<event>
 5    1  0.4866530E-005  0.1723027E+03  0.7818608E-02  0.1080983E+00
         21   -1    0    0  501  502  0.00000000000E+00  0.00000000000E+00  0.44860738397E+03  0.44860738397E+03  0.00000000000E+00 0.  1.
          4   -1    0    0  502    0 -0.00000000000E+00 -0.00000000000E+00 -0.57372071098E+03  0.57372071098E+03  0.00000000000E+00 0.  1.
        -13    1    1    2    0    0  0.11286477173E+03  0.15807997450E+03 -0.45124614338E+03  0.49127469721E+03  0.10566000000E+00 0.  1.
         13    1    1    2    0    0 -0.11701298873E+03 -0.62879362140E+02 -0.50831755037E+02  0.14223126309E+03  0.10566000000E+00 0. -1.
          4    1    1    2  501    0  0.41482170035E+01 -0.95200612357E+02  0.37696457141E+03  0.38882213465E+03  0.00000000000E+00 0.  1.
</event>
<event>
 5    1  0.4866530E-005  0.2567455E+03  0.7818608E-02  0.1026955E+00
         21   -1    0    0  501  502  0.00000000000E+00  0.00000000000E+00  0.28453530210E+02  0.28453530210E+02  0.00000000000E+00 0.  1.
         -4   -1    0    0    0  501 -0.00000000000E+00 -0.00000000000E+00 -0.26885626897E+04  0.26885626897E+04  0.00000000000E+00 0. -1.
        -13    1    1    2    0    0 -0.99623168672E+02  0.24952948360E+03 -0.12133301711E+04  0.12427227584E+04  0.10566000000E+00 0.  1.
         13    1    1    2    0    0  0.10357908035E+03 -0.22535127496E+03 -0.13966217061E+04  0.14184724263E+04  0.10566000000E+00 0. -1.
         -4    1    1    2    0  502 -0.39559116805E+01 -0.24178208634E+02 -0.50157282322E+02  0.55821035282E+02  0.00000000000E+00 0. -1.
</event>
<event>
 5    1  0.4866530E-005  0.3481406E+03  0.7818608E-02  0.9959222E-01
          4   -1    0    0  502    0 -0.00000000000E+00  0.00000000000E+00  0.40980733783E+03  0.40980733783E+03  0.00000000000E+00 0.  1.
         21   -1    0    0  501  502  0.00000000000E+00 -0.00000000000E+00 -0.23150952049E+04  0.23150952049E+04  0.00000000000E+00 0.  1.
        -13    1    1    2    0    0 -0.31637721624E+02 -0.42502287158E+03 -0.36353472555E+03  0.56018112664E+03  0.10566000000E+00 0.  1.
         13    1    1    2    0    0  0.23867040003E+03  0.14339674720E+03  0.22856064347E+03  0.36023071199E+03  0.10566000000E+00 0. -1.
          4    1    1    2  501    0 -0.20703267841E+03  0.28162612438E+03 -0.17703137850E+04  0.18044907041E+04  0.00000000000E+00 0.  1.
</event>
<event>
 5    1  0.4866530E-005  0.4215085E+03  0.7818608E-02  0.9867193E-01
          4   -1    0    0  502    0 -0.00000000000E+00  0.00000000000E+00  0.39674869436E+03  0.39674869436E+03  0.00000000000E+00 0.  1.
         21   -1    0    0  501  502  0.00000000000E+00 -0.00000000000E+00 -0.11715712699E+04  0.11715712699E+04  0.00000000000E+00 0.  1.
        -13    1    1    2    0    0  0.25972735518E+02  0.37794997049E+03 -0.59919965437E+03  0.70891536882E+03  0.10566000000E+00 0.  1.
         13    1    1    2    0    0 -0.98885094514E+02  0.18895351040E+03  0.87071524274E+02  0.23035440633E+03  0.10566000000E+00 0. -1.
          4    1    1    2  501    0  0.72912358996E+02 -0.56690348090E+03 -0.26269444543E+03  0.62905018910E+03  0.00000000000E+00 0.  1.
</event>
<event>
 5    1  0.4866530E-005  0.4285858E+03  0.7818608E-02  0.9720307E-01
         21   -1    0    0  501  502  0.00000000000E+00  0.00000000000E+00  0.13968561950E+03  0.13968561950E+03  0.00000000000E+00 0.  1.
          4   -1    0    0  502    0 -0.00000000000E+00 -0.00000000000E+00 -0.42451081437E+04  0.42451081437E+04  0.00000000000E+00 0.  1.
        -13    1    1    2    0    0  0.60384932136E+01  0.35161539102E+03 -0.47686826162E+03  0.59251430084E+03  0.10566000000E+00 0.  1.
         13    1    1    2    0    0 -0.10793280400E+03  0.31732826954E+03 -0.20134282027E+04  0.20411369037E+04  0.10566000000E+00 0. -1.
          4    1    1    2  501    0  0.10189431078E+03 -0.66894366056E+03 -0.16151260599E+04  0.17511425587E+04  0.00000000000E+00 0.  1.
</event>
<event>
 5    1  0.4866530E-005  0.2754074E+03  0.7818608E-02  0.1033996E+00
         21   -1    0    0  501  502  0.00000000000E+00  0.00000000000E+00  0.30047961409E+03  0.30047961409E+03  0.00000000000E+00 0. -1.
          4   -1    0    0  502    0 -0.00000000000E+00 -0.00000000000E+00 -0.11420824887E+04  0.11420824887E+04  0.00000000000E+00 0.  1.
        -13    1    1    2    0    0 -0.10467506617E+03 -0.13180337597E+03 -0.93170571338E+03  0.94678643152E+03  0.10566000000E+00 0.  1.
         13    1    1    2    0    0  0.66771371043E+02 -0.15347773384E+03 -0.51390532058E+02  0.17508520419E+03  0.10566000000E+00 0. -1.
          4    1    1    2  501    0  0.37903695127E+02  0.28528110981E+03  0.14149337080E+03  0.32069046712E+03  0.00000000000E+00 0.  1.
</event>
<event>
 5    1  0.4866530E-005  0.5016696E+03  0.7818608E-02  0.9734203E-01
         21   -1    0    0  501  502  0.00000000000E+00  0.00000000000E+00  0.72478110917E+03  0.72478110917E+03  0.00000000000E+00 0.  1.
          4   -1    0    0  502    0 -0.00000000000E+00 -0.00000000000E+00 -0.69301948147E+03  0.69301948147E+03  0.00000000000E+00 0.  1.
        -13    1    1    2    0    0 -0.30788382229E+03  0.44375100976E+03  0.17910054270E+03  0.56902058157E+03  0.10566000000E+00 0.  1.
         13    1    1    2    0    0  0.19740411789E+03  0.26502183447E+02 -0.28389228824E+03  0.34679330151E+03  0.10566000000E+00 0. -1.
          4    1    1    2  501    0  0.11047970441E+03 -0.47025319321E+03  0.13655337325E+03  0.50198670755E+03  0.00000000000E+00 0.  1.
</event>
<event>
 5    1  0.4866530E-005  0.1347853E+03  0.7818608E-02  0.1117168E+00
         -4   -1    0    0    0  501 -0.00000000000E+00  0.00000000000E+00  0.10285746251E+03  0.10285746251E+03  0.00000000000E+00 0. -1.
         21   -1    0    0  501  502  0.00000000000E+00 -0.00000000000E+00 -0.92462088012E+03  0.92462088012E+03  0.00000000000E+00 0.  1.
        -13    1    1    2    0    0  0.65705931128E+02  0.13365986392E+03 -0.63186578629E+03  0.64918149362E+03  0.10566000000E+00 0.  1.
         13    1    1    2    0    0 -0.67283154284E+02 -0.11560296755E+03  0.46194647246E+02  0.14150980727E+03  0.10566000000E+00 0. -1.
         -4    1    1    2    0  502  0.15772231565E+01 -0.18056896371E+02 -0.23609227857E+03  0.23678704175E+03  0.00000000000E+00 0. -1.
</event>
<event>
 5    1  0.4866530E-005  0.4523808E+03  0.7818608E-02  0.9703682E-01
          4   -1    0    0  502    0 -0.00000000000E+00  0.00000000000E+00  0.42300997320E+03  0.42300997320E+03  0.00000000000E+00 0.  1.
         21   -1    0    0  501  502  0.00000000000E+00 -0.00000000000E+00 -0.14817281451E+04  0.14817281451E+04  0.00000000000E+00 0.  1.
        -13    1    1    2    0    0  0.31981210943E+03 -0.38264862330E+03 -0.99667614400E+03  0.11144788475E+04  0.10566000000E+00 0.  1.
         13    1    1    2    0    0  0.82620687264E+02  0.29044823955E+03  0.13738817946E+03  0.33175575479E+03  0.10566000000E+00 0. -1.
          4    1    1    2  501    0 -0.40243279669E+03  0.92200383751E+02 -0.19943020735E+03  0.45850351604E+03  0.00000000000E+00 0.  1.
</event>
<event>
 5    1  0.5385294E-005  0.2399101E+03  0.7818608E-02  0.1057783E+00
         -4   -1    0    0    0  501 -0.00000000000E+00  0.00000000000E+00  0.78226508930E+03  0.78226508930E+03  0.00000000000E+00 0. -1.
         21   -1    0    0  501  502  0.00000000000E+00 -0.00000000000E+00 -0.43386612303E+03  0.43386612303E+03  0.00000000000E+00 0. -1.
        -13    1    1    2    0    0 -0.11775219846E+03  0.39259447186E+02  0.13521184081E+03  0.18354600921E+03  0.10566000000E+00 0.  1.
         13    1    1    2    0    0  0.85044076041E+02 -0.27541381841E+03  0.54939946727E+03  0.62042328457E+03  0.10566000000E+00 0. -1.
         -4    1    1    2    0  502  0.32708122420E+02  0.23615437122E+03 -0.33621234180E+03  0.41216191855E+03  0.00000000000E+00 0. -1.
</event>
<event>
 5    1  0.4866530E-005  0.2941796E+03  0.7818608E-02  0.1014811E+00
         -4   -1    0    0    0  501 -0.00000000000E+00  0.00000000000E+00  0.15327687954E+04  0.15327687954E+04  0.00000000000E+00 0. -1.
         21   -1    0    0  501  502  0.00000000000E+00 -0.00000000000E+00 -0.68454687448E+03  0.68454687448E+03  0.00000000000E+00 0. -1.
        -13    1    1    2    0    0 -0.36975236554E+02  0.31690352114E+03  0.10895388811E+04  0.11352929113E+04  0.10566000000E+00 0.  1.
         13    1    1    2    0    0 -0.26093631552E+03  0.37819847460E+02 -0.48987418969E+03  0.55632259931E+03  0.10566000000E+00 0. -1.
         -4    1    1    2    0  502  0.29791155208E+03 -0.35472336860E+03  0.24855722946E+03  0.52570015923E+03  0.00000000000E+00 0. -1.
</event>
<event>
 5    1  0.4866530E-005  0.5071659E+03  0.7818608E-02  0.9725715E-01
          4   -1    0    0  502    0 -0.00000000000E+00  0.00000000000E+00  0.22269339129E+04  0.22269339129E+04  0.00000000000E+00 0.  1.
         21   -1    0    0  501  502  0.00000000000E+00 -0.00000000000E+00 -0.17399791380E+03  0.17399791380E+03  0.00000000000E+00 0. -1.
        -13    1    1    2    0    0  0.39730069135E+03 -0.10935336175E+03  0.96820901572E+03  0.10522522066E+04  0.10566000000E+00 0.  1.
         13    1    1    2    0    0  0.15491169189E+03 -0.12414432466E+03  0.21861858946E+03  0.29530246266E+03  0.10566000000E+00 0. -1.
          4    1    1    2  501    0 -0.55221238324E+03  0.23349768641E+03  0.86610839396E+03  0.10533771575E+04  0.00000000000E+00 0.  1.
</event>
<event>
 5    1  0.4866530E-005  0.3847611E+03  0.7818608E-02  0.1007250E+00
         -4   -1    0    0    0  501 -0.00000000000E+00  0.00000000000E+00  0.40214834182E+03  0.40214834182E+03  0.00000000000E+00 0. -1.
         21   -1    0    0  501  502  0.00000000000E+00 -0.00000000000E+00 -0.11017391946E+04  0.11017391946E+04  0.00000000000E+00 0. -1.
        -13    1    1    2    0    0  0.14231970031E+03 -0.63165290669E+01  0.14114467837E+03  0.20054083632E+03  0.10566000000E+00 0.  1.
         13    1    1    2    0    0 -0.14656678042E+03 -0.36442559496E+03 -0.84578597994E+03  0.93254585432E+03  0.10566000000E+00 0. -1.
         -4    1    1    2    0  502  0.42470801093E+01  0.37074212403E+03  0.50504487576E+01  0.37080084581E+03  0.00000000000E+00 0. -1.
</event>
<event>
 5    1  0.5406786E-005  0.3094005E+03  0.7818608E-02  0.1012149E+00
         21   -1    0    0  501  502  0.00000000000E+00  0.00000000000E+00  0.27852686906E+03  0.27852686906E+03  0.00000000000E+00 0.  1.
          4   -1    0    0  502    0 -0.00000000000E+00 -0.00000000000E+00 -0.15096640366E+04  0.15096640366E+04  0.00000000000E+00 0.  1.
        -13    1    1    2    0    0  0.17476119481E+03  0.94447147035E+02 -0.95701185497E+03  0.97741160241E+03  0.10566000000E+00 0.  1.
         13    1    1    2    0    0  0.14089297141E+03 -0.18687735282E+03 -0.39602290958E+03  0.46000883738E+03  0.10566000000E+00 0. -1.
          4    1    1    2  501    0 -0.31565416621E+03  0.92430205781E+02  0.12189759700E+03  0.35077046589E+03  0.00000000000E+00 0.  1.
</event>
<event>
 5    1  0.4866530E-005  0.5958847E+03  0.7818608E-02  0.9310641E-01
         -4   -1    0    0    0  501 -0.00000000000E+00  0.00000000000E+00  0.18630121097E+04  0.18630121097E+04  0.00000000000E+00 0. -1.
         21   -1    0    0  501  502  0.00000000000E+00 -0.00000000000E+00 -0.50199451780E+03  0.50199451780E+03  0.00000000000E+00 0. -1.
        -13    1    1    2    0    0 -0.33329423397E+02  0.54892504998E+03  0.67772026481E+03  0.87277392804E+03  0.10566000000E+00 0.  1.
         13    1    1    2    0    0  0.58992501404E+03 -0.14652799582E+03  0.48421935644E+03  0.77714244001E+03  0.10566000000E+00 0. -1.
         -4    1    1    2    0  502 -0.55659559065E+03 -0.40239705416E+03  0.19907797062E+03  0.71509025942E+03  0.00000000000E+00 0. -1.
</event>
<event>
 5    1  0.4866530E-005  0.1267526E+03  0.7818608E-02  0.1126604E+00
         21   -1    0    0  501  502  0.00000000000E+00  0.00000000000E+00  0.46791104527E+03  0.46791104527E+03  0.00000000000E+00 0.  1.
         -4   -1    0    0    0  501 -0.00000000000E+00 -0.00000000000E+00 -0.16079446953E+03  0.16079446953E+03  0.00000000000E+00 0. -1.
        -13    1    1    2    0    0 -0.91367825070E+02 -0.25977975988E+02  0.40250902146E+03  0.41356554283E+03  0.10566000000E+00 0.  1.
         13    1    1    2    0    0  0.12932843197E+03 -0.96328670775E+01 -0.98718177575E+02  0.16298443236E+03  0.10566000000E+00 0. -1.
         -4    1    1    2    0  502 -0.37960606901E+02  0.35610843066E+02  0.33257318515E+01  0.52155539615E+02  0.00000000000E+00 0. -1.
</event>
<event>
 5    1  0.4866530E-005  0.1246701E+03  0.7818608E-02  0.1129175E+00
         21   -1    0    0  501  502  0.00000000000E+00  0.00000000000E+00  0.37021219903E+03  0.37021219903E+03  0.00000000000E+00 0.  1.
         -4   -1    0    0    0  501 -0.00000000000E+00 -0.00000000000E+00 -0.72683143849E+02  0.72683143849E+02  0.00000000000E+00 0. -1.
        -13    1    1    2    0    0 -0.58059541054E+02  0.11806637971E+03  0.13744613719E+03  0.19026831612E+03  0.10566000000E+00 0.  1.
         13    1    1    2    0    0  0.53526521837E+02 -0.10885924409E+03  0.33800353452E+02  0.12592814865E+03  0.10566000000E+00 0. -1.
         -4    1    1    2    0  502  0.45330192176E+01 -0.92071356213E+01  0.12628256453E+03  0.12669887811E+03  0.00000000000E+00 0. -1.
</event>
<event>
 5    1  0.4866530E-005  0.3682439E+03  0.7818608E-02  0.1020457E+00
         -4   -1    0    0    0  501 -0.00000000000E+00  0.00000000000E+00  0.68854881558E+03  0.68854881558E+03  0.00000000000E+00 0. -1.
         21   -1    0    0  501  502  0.00000000000E+00 -0.00000000000E+00 -0.26579264258E+03  0.26579264258E+03  0.00000000000E+00 0. -1.
        -13    1    1    2    0    0  0.33754883288E+02  0.10115137295E+03  0.59971189918E+02  0.12234192731E+03  0.10566000000E+00 0.  1.
         13    1    1    2    0    0  0.16369705868E+03 -0.36691936175E+03  0.11333756317E+03  0.41745893144E+03  0.10566000000E+00 0. -1.
         -4    1    1    2    0  502 -0.19745194197E+03  0.26576798881E+03  0.24944741990E+03  0.41454059941E+03  0.00000000000E+00 0. -1.
</event>
<event>
 5    1  0.4866530E-005  0.2470220E+03  0.7818608E-02  0.1051216E+00
         21   -1    0    0  501  502  0.00000000000E+00  0.00000000000E+00  0.14951110429E+03  0.14951110429E+03  0.00000000000E+00 0.  1.
          4   -1    0    0  502    0 -0.00000000000E+00 -0.00000000000E+00 -0.23380775519E+04  0.23380775519E+04  0.00000000000E+00 0.  1.
        -13    1    1    2    0    0 -0.45892607755E+02  0.23982823872E+03  0.73500837722E+01  0.24429029950E+03  0.10566000000E+00 0.  1.
         13    1    1    2    0    0  0.12156223607E+03  0.65327429735E+02 -0.51139375184E+03  0.52968729539E+03  0.10566000000E+00 0. -1.
          4    1    1    2  501    0 -0.75669628314E+02 -0.30515566846E+03 -0.16845227795E+04  0.17136110613E+04  0.00000000000E+00 0.  1.
</event>
<event>
 5    1  0.4866530E-005  0.1115013E+03  0.7818608E-02  0.1146812E+00
          4   -1    0    0  502    0 -0.00000000000E+00  0.00000000000E+00  0.82688211984E+02  0.82688211984E+02  0.00000000000E+00 0.  1.
         21   -1    0    0  501  502  0.00000000000E+00 -0.00000000000E+00 -0.26343594579E+03  0.26343594579E+03  0.00000000000E+00 0. -1.
        -13    1    1    2    0    0  0.84305430472E+02 -0.95271262591E+02 -0.24490284391E+02  0.12955232254E+03  0.10566000000E+00 0.  1.
         13    1    1    2    0    0 -0.65842602958E+02  0.68360728598E+02 -0.53926240741E+02  0.10916266845E+03  0.10566000000E+00 0. -1.
          4    1    1    2  501    0 -0.18462827514E+02  0.26910533993E+02 -0.10233120868E+03  0.10740916678E+03  0.00000000000E+00 0.  1.
</event>
<event>
 5    1  0.6497101E-005  0.3453714E+03  0.7818608E-02  0.1036948E+00
         -4   -1    0    0    0  501 -0.00000000000E+00  0.00000000000E+00  0.42110612660E+03  0.42110612660E+03  0.00000000000E+00 0. -1.
         21   -1    0    0  501  502  0.00000000000E+00 -0.00000000000E+00 -0.96258558664E+03  0.96258558664E+03  0.00000000000E+00 0. -1.
        -13    1    1    2    0    0  0.76659047659E+02  0.11702785776E+02  0.14719051372E+03  0.16636893724E+03  0.10566000000E+00 0.  1.
         13    1    1    2    0    0 -0.20144126010E+03  0.30764836691E+03  0.79395383756E+02  0.37620438203E+03  0.10566000000E+00 0. -1.
         -4    1    1    2    0  502  0.12478221244E+03 -0.31935115269E+03 -0.76806535752E+03  0.84111839398E+03  0.00000000000E+00 0. -1.
</event>
<event>
 5    1  0.4866530E-005  0.5060604E+02  0.7818608E-02  0.1289341E+00
          4   -1    0    0  502    0 -0.00000000000E+00  0.00000000000E+00  0.18354345503E+02  0.18354345503E+02  0.00000000000E+00 0.  1.
         21   -1    0    0  501  502  0.00000000000E+00 -0.00000000000E+00 -0.34603441029E+03  0.34603441029E+03  0.00000000000E+00 0. -1.
        -13    1    1    2    0    0 -0.28588642727E+02 -0.44382656501E+02 -0.43562428302E+02  0.68445796179E+02  0.10566000000E+00 0.  1.
         13    1    1    2    0    0  0.44403265680E+02  0.19501361067E+02 -0.22129153741E+03  0.22654339271E+03  0.10566000000E+00 0. -1.
          4    1    1    2  501    0 -0.15814622953E+02  0.24881295434E+02 -0.62826099079E+02  0.69399566908E+02  0.00000000000E+00 0.  1.
</event>
<event>
 5    1  0.4866530E-005  0.2300891E+03  0.7818608E-02  0.1076850E+00
         -4   -1    0    0    0  501 -0.00000000000E+00  0.00000000000E+00  0.51901876269E+03  0.51901876269E+03  0.00000000000E+00 0. -1.
         21   -1    0    0  501  502  0.00000000000E+00 -0.00000000000E+00 -0.80542298986E+03  0.80542298986E+03  0.00000000000E+00 0. -1.
        -13    1    1    2    0    0 -0.70360176756E+02 -0.40704930336E+02  0.15271549312E+03  0.17300138389E+03  0.10566000000E+00 0.  1.
         13    1    1    2    0    0  0.10987274716E+03 -0.20200034131E+03 -0.73301784843E+03  0.76823911365E+03  0.10566000000E+00 0. -1.
         -4    1    1    2    0  502 -0.39512570400E+02  0.24270527165E+03  0.29389812815E+03  0.38320125500E+03  0.00000000000E+00 0. -1.
</event>
<event>
 5    1  0.4866530E-005  0.4099507E+03  0.7818608E-02  0.9731434E-01
         -4   -1    0    0    0  501 -0.00000000000E+00  0.00000000000E+00  0.14556151519E+04  0.14556151519E+04  0.00000000000E+00 0. -1.
         21   -1    0    0  501  502  0.00000000000E+00 -0.00000000000E+00 -0.34439580850E+03  0.34439580850E+03  0.00000000000E+00 0. -1.
        -13    1    1    2    0    0  0.57227355998E+02  0.36404437458E+03  0.42844732796E+03  0.56512865875E+03  0.10566000000E+00 0.  1.
         13    1    1    2    0    0  0.33961804636E+03 -0.13108516411E+03  0.68385211113E+03  0.77471120989E+03  0.10566000000E+00 0. -1.
         -4    1    1    2    0  502 -0.39684540236E+03 -0.23295921047E+03 -0.10800956593E+01  0.46017109180E+03  0.00000000000E+00 0. -1.
</event>
<event>
 5    1  0.4866530E-005  0.9524980E+03  0.7818608E-02  0.8820550E-01
         -4   -1    0    0    0  501 -0.00000000000E+00  0.00000000000E+00  0.26149938476E+04  0.26149938476E+04  0.00000000000E+00 0. -1.
         21   -1    0    0  501  502  0.00000000000E+00 -0.00000000000E+00 -0.95674190092E+03  0.95674190092E+03  0.00000000000E+00 0. -1.
        -13    1    1    2    0    0 -0.80097271283E+03  0.49772674772E+03  0.19426419899E+04  0.21594321277E+04  0.10566000000E+00 0.  1.
         13    1    1    2    0    0  0.73991503580E+03 -0.68542104115E+03  0.65346414467E+02  0.10107158003E+04  0.10566000000E+00 0. -1.
         -4    1    1    2    0  502  0.61057677026E+02  0.18769429343E+03 -0.34973645773E+03  0.40158782050E+03  0.00000000000E+00 0. -1.
</event>
<event>
 5    1  0.4866530E-005  0.4987114E+03  0.7818608E-02  0.9932754E-01
         21   -1    0    0  501  502  0.00000000000E+00  0.00000000000E+00  0.42710664005E+03  0.42710664005E+03  0.00000000000E+00 0.  1.
          4   -1    0    0  502    0 -0.00000000000E+00 -0.00000000000E+00 -0.73122826525E+03  0.73122826525E+03  0.00000000000E+00 0.  1.
        -13    1    1    2    0    0 -0.37619248377E+03 -0.23596820609E+03 -0.22720297873E+03  0.49882159520E+03  0.10566000000E+00 0.  1.
         13    1    1    2    0    0 -0.85125426781E+02 -0.58702124087E+02  0.14888022551E+02  0.10446981400E+03  0.10566000000E+00 0. -1.
          4    1    1    2  501    0  0.46131791055E+03  0.29467033017E+03 -0.91806669014E+02  0.55504349610E+03  0.00000000000E+00 0.  1.
</event>
<event>
 5    1  0.4866530E-005  0.2276063E+03  0.7818608E-02  0.1049951E+00
         21   -1    0    0  501  502  0.00000000000E+00  0.00000000000E+00  0.41113767287E+03  0.41113767287E+03  0.00000000000E+00 0.  1.
          4   -1    0    0  502    0 -0.00000000000E+00 -0.00000000000E+00 -0.37884666444E+03  0.37884666444E+03  0.00000000000E+00 0.  1.
        -13    1    1    2    0    0  0.15167066481E+03 -0.19326250670E+03  0.20956717516E+03  0.32291299003E+03  0.10566000000E+00 0.  1.
         13    1    1    2    0    0 -0.18279816948E+03 -0.11721269943E+02  0.15676916185E+02  0.18384323702E+03  0.10566000000E+00 0. -1.
          4    1    1    2  501    0  0.31127504668E+02  0.20498377664E+03 -0.19295308292E+03  0.28322811026E+03  0.00000000000E+00 0.  1.
</event>
<event>
 5    1  0.4866530E-005  0.4982275E+03  0.7818608E-02  0.9767082E-01
         -4   -1    0    0    0  501 -0.00000000000E+00  0.00000000000E+00  0.15103396268E+04  0.15103396268E+04  0.00000000000E+00 0. -1.
         21   -1    0    0  501  502  0.00000000000E+00 -0.00000000000E+00 -0.23780613600E+03  0.23780613600E+03  0.00000000000E+00 0. -1.
        -13    1    1    2    0    0  0.17284629390E+03  0.55508799130E+02  0.24211992784E+03  0.30262045324E+03  0.10566000000E+00 0.  1.
         13    1    1    2    0    0 -0.34954627841E+03  0.39416207837E+03  0.47460605675E+03  0.70908198754E+03  0.10566000000E+00 0. -1.
         -4    1    1    2    0  502  0.17669998451E+03 -0.44967087750E+03  0.55580750620E+03  0.73644332202E+03  0.00000000000E+00 0. -1.
</event>
<event>
 5    1  0.4866530E-005  0.8487427E+02  0.7818608E-02  0.1192342E+00
         -4   -1    0    0    0  501 -0.00000000000E+00  0.00000000000E+00  0.25227067569E+03  0.25227067569E+03  0.00000000000E+00 0. -1.
         21   -1    0    0  501  502  0.00000000000E+00 -0.00000000000E+00 -0.17354334455E+03  0.17354334455E+03  0.00000000000E+00 0.  1.
        -13    1    1    2    0    0 -0.89143322651E+01  0.97976388091E+02  0.75652555237E+02  0.12410543188E+03  0.10566000000E+00 0.  1.
         13    1    1    2    0    0  0.55766375720E+02 -0.63170243404E+02  0.13404022635E+03  0.15832612468E+03  0.10566000000E+00 0. -1.
         -4    1    1    2    0  502 -0.46852043455E+02 -0.34806144687E+02 -0.13096545044E+03  0.14338246369E+03  0.00000000000E+00 0. -1.
</event>
<event>
 5    1  0.4866530E-005  0.2367710E+02  0.7818608E-02  0.1470025E+00
         -4   -1    0    0    0  501 -0.00000000000E+00  0.00000000000E+00  0.20177468234E+02  0.20177468234E+02  0.00000000000E+00 0. -1.
         21   -1    0    0  501  502  0.00000000000E+00 -0.00000000000E+00 -0.37023126344E+03  0.37023126344E+03  0.00000000000E+00 0. -1.
        -13    1    1    2    0    0 -0.45964456346E+01  0.21215262832E+02  0.47310637147E+01  0.22217308960E+02  0.10566000000E+00 0.  1.
         13    1    1    2    0    0  0.25000982956E+02 -0.31323357354E+02 -0.57802388284E+02  0.70337252719E+02  0.10566000000E+00 0. -1.
         -4    1    1    2    0  502 -0.20404537321E+02  0.10108094522E+02 -0.29698247063E+03  0.29785416999E+03  0.00000000000E+00 0. -1.
</event>
<event>
 5    1  0.4866530E-005  0.2745896E+03  0.7818608E-02  0.1018383E+00
         21   -1    0    0  501  502  0.00000000000E+00  0.00000000000E+00  0.29717072860E+03  0.29717072860E+03  0.00000000000E+00 0.  1.
          4   -1    0    0  502    0 -0.00000000000E+00 -0.00000000000E+00 -0.71268509932E+03  0.71268509932E+03  0.00000000000E+00 0.  1.
        -13    1    1    2    0    0  0.33123903025E+03  0.97664347232E+02 -0.44375489257E+03  0.56229532785E+03  0.10566000000E+00 0.  1.
         13    1    1    2    0    0 -0.20531399853E+03 -0.18318846409E+02 -0.11915339973E+03  0.23809023911E+03  0.10566000000E+00 0. -1.
          4    1    1    2  501    0 -0.12592503172E+03 -0.79345500823E+02  0.14739392157E+03  0.20947026096E+03  0.00000000000E+00 0.  1.
</event>
<event>
 5    1  0.4866530E-005  0.1428815E+03  0.7818608E-02  0.1108352E+00
         21   -1    0    0  501  502  0.00000000000E+00  0.00000000000E+00  0.32109950031E+03  0.32109950031E+03  0.00000000000E+00 0.  1.
         -4   -1    0    0    0  501 -0.00000000000E+00 -0.00000000000E+00 -0.13529968862E+03  0.13529968862E+03  0.00000000000E+00 0. -1.
        -13    1    1    2    0    0 -0.13024059329E+03 -0.16549664999E+02  0.19204541094E+03  0.23263266017E+03  0.10566000000E+00 0.  1.
         13    1    1    2    0    0  0.14549438708E+03  0.39774567897E+01 -0.66742675305E+02  0.16012193075E+03  0.10566000000E+00 0. -1.
         -4    1    1    2    0  502 -0.15253793790E+02  0.12572208209E+02  0.60497076053E+02  0.63644598005E+02  0.00000000000E+00 0. -1.
</event>
<event>
 5    1  0.4866530E-005  0.4681890E+03  0.7818608E-02  0.9550560E-01
         21   -1    0    0  501  502  0.00000000000E+00  0.00000000000E+00  0.30699916319E+03  0.30699916319E+03  0.00000000000E+00 0.  1.
         -4   -1    0    0    0  501 -0.00000000000E+00 -0.00000000000E+00 -0.19809734973E+04  0.19809734973E+04  0.00000000000E+00 0. -1.
        -13    1    1    2    0    0 -0.34038999463E+03  0.29747875371E+03 -0.10108859635E+03  0.46322550969E+03  0.10566000000E+00 0.  1.
         13    1    1    2    0    0  0.31020520951E+03 -0.35543543999E+03 -0.16543567948E+04  0.17203075421E+04  0.10566000000E+00 0. -1.
         -4    1    1    2    0  502  0.30184785116E+02  0.57956686286E+02  0.81471056974E+02  0.10443960869E+03  0.00000000000E+00 0. -1.
</event>
<event>
 5    1  0.4866530E-005  0.3288663E+03  0.7818608E-02  0.1008314E+00
          4   -1    0    0  502    0 -0.00000000000E+00  0.00000000000E+00  0.21362873901E+04  0.21362873901E+04  0.00000000000E+00 0.  1.
         21   -1    0    0  501  502  0.00000000000E+00 -0.00000000000E+00 -0.17428783608E+03  0.17428783608E+03  0.00000000000E+00 0.  1.
        -13    1    1    2    0    0  0.49952595450E+03  0.13539701460E+03  0.14951842823E+04  0.15822245669E+04  0.10566000000E+00 0.  1.
         13    1    1    2    0    0 -0.20277301383E+03 -0.86476818105E+02  0.33255961659E+03  0.39898752482E+03  0.10566000000E+00 0. -1.
          4    1    1    2  501    0 -0.29675294067E+03 -0.48920196495E+02  0.13425565509E+03  0.32936313446E+03  0.00000000000E+00 0.  1.
</event>
<event>
 5    1  0.4866530E-005  0.4568734E+03  0.7818608E-02  0.9870253E-01
         21   -1    0    0  501  502  0.00000000000E+00  0.00000000000E+00  0.82048568101E+03  0.82048568101E+03  0.00000000000E+00 0.  1.
          4   -1    0    0  502    0 -0.00000000000E+00 -0.00000000000E+00 -0.60705454572E+03  0.60705454572E+03  0.00000000000E+00 0.  1.
        -13    1    1    2    0    0 -0.49540409347E+03  0.18423179890E+03  0.84198497405E+02  0.53521581599E+03  0.10566000000E+00 0.  1.
         13    1    1    2    0    0  0.14848308089E+03  0.73679427891E+02 -0.26150684724E+03  0.30961544813E+03  0.10566000000E+00 0. -1.
          4    1    1    2  501    0  0.34692101259E+03 -0.25791122679E+03  0.39073948512E+03  0.58270896261E+03  0.00000000000E+00 0.  1.
</event>
<event>
 5    1  0.4866530E-005  0.1191761E+03  0.7818608E-02  0.1153969E+00
          4   -1    0    0  502    0 -0.00000000000E+00  0.00000000000E+00  0.32165112388E+03  0.32165112388E+03  0.00000000000E+00 0.  1.
         21   -1    0    0  501  502  0.00000000000E+00 -0.00000000000E+00 -0.11966317218E+03  0.11966317218E+03  0.00000000000E+00 0.  1.
        -13    1    1    2    0    0  0.11970380656E+03 -0.10779010637E+02  0.20011800000E+02  0.12184281546E+03  0.10566000000E+00 0.  1.
         13    1    1    2    0    0 -0.74938496231E+01  0.76118495322E+02  0.17318949986E+03  0.18932722239E+03  0.10566000000E+00 0. -1.
          4    1    1    2  501    0 -0.11220995694E+03 -0.65339484685E+02  0.87866518419E+01  0.13014425821E+03  0.00000000000E+00 0.  1.
</event>
<event>
 5    1  0.4866530E-005  0.4962775E+03  0.7818608E-02  0.9877178E-01
          4   -1    0    0  502    0 -0.00000000000E+00  0.00000000000E+00  0.13112013048E+04  0.13112013048E+04  0.00000000000E+00 0.  1.
         21   -1    0    0  501  502  0.00000000000E+00 -0.00000000000E+00 -0.28835857024E+03  0.28835857024E+03  0.00000000000E+00 0.  1.
        -13    1    1    2    0    0  0.55952119278E+03  0.11181426829E+03  0.40697868911E+03  0.70085523493E+03  0.10566000000E+00 0.  1.
         13    1    1    2    0    0 -0.11976555023E+03 -0.40254471864E+02  0.36750516740E+03  0.38861841021E+03  0.10566000000E+00 0. -1.
          4    1    1    2  501    0 -0.43975564255E+03 -0.71559796430E+02  0.24835887803E+03  0.51008622988E+03  0.00000000000E+00 0.  1.
</event>
<event>
 5    1  0.4866530E-005  0.9194823E+03  0.7818608E-02  0.8854160E-01
         21   -1    0    0  501  502  0.00000000000E+00  0.00000000000E+00  0.64176637482E+03  0.64176637482E+03  0.00000000000E+00 0.  1.
         -4   -1    0    0    0  501 -0.00000000000E+00 -0.00000000000E+00 -0.18549614169E+04  0.18549614169E+04  0.00000000000E+00 0. -1.
        -13    1    1    2    0    0  0.38761969698E+02  0.76727456960E+03 -0.10033934779E+02  0.76831858396E+03  0.10566000000E+00 0.  1.
         13    1    1    2    0    0 -0.19895656489E+02 -0.99878657496E+03 -0.10548577293E+04  0.14528232170E+04  0.10566000000E+00 0. -1.
         -4    1    1    2    0  502 -0.18866313209E+02  0.23151200536E+03 -0.14830337797E+03  0.27558599079E+03  0.00000000000E+00 0. -1.
</event>
<event>
 5    1  0.4866530E-005  0.4970672E+03  0.7818608E-02  0.9972634E-01
         21   -1    0    0  501  502  0.00000000000E+00  0.00000000000E+00  0.12780152956E+03  0.12780152956E+03  0.00000000000E+00 0.  1.
          4   -1    0    0  502    0 -0.00000000000E+00 -0.00000000000E+00 -0.24215773432E+04  0.24215773432E+04  0.00000000000E+00 0.  1.
        -13    1    1    2    0    0 -0.53463145044E+03  0.78851708056E+02 -0.12279451951E+04  0.13416026957E+04  0.10566000000E+00 0.  1.
         13    1    1    2    0    0  0.84945100277E+02  0.34063594175E+02 -0.94994769336E+02  0.13190911975E+03  0.10566000000E+00 0. -1.
          4    1    1    2  501    0  0.44968635017E+03 -0.11291530223E+03 -0.97083584919E+03  0.10758670573E+04  0.00000000000E+00 0.  1.
</event>
<event>
 5    1  0.4866530E-005  0.1652177E+03  0.7818608E-02  0.1109806E+00
         21   -1    0    0  501  502  0.00000000000E+00  0.00000000000E+00  0.23866430666E+03  0.23866430666E+03  0.00000000000E+00 0.  1.
         -4   -1    0    0    0  501 -0.00000000000E+00 -0.00000000000E+00 -0.37302168246E+03  0.37302168246E+03  0.00000000000E+00 0. -1.
        -13    1    1    2    0    0  0.18598882875E+03  0.14682877187E+03  0.27086658449E+02  0.23850415279E+03  0.10566000000E+00 0.  1.
         13    1    1    2    0    0 -0.39576435808E+02 -0.70276158602E+02 -0.18917712348E+03  0.20565268769E+03  0.10566000000E+00 0. -1.
         -4    1    1    2    0  502 -0.14641239294E+03 -0.76552613269E+02  0.27733089235E+02  0.16752914864E+03  0.00000000000E+00 0. -1.
</event>
<event>
 5    1  0.4866530E-005  0.1912307E+03  0.7818608E-02  0.1085009E+00
          4   -1    0    0  502    0 -0.00000000000E+00  0.00000000000E+00  0.72997351268E+03  0.72997351268E+03  0.00000000000E+00 0.  1.
         21   -1    0    0  501  502  0.00000000000E+00 -0.00000000000E+00 -0.59984781046E+03  0.59984781046E+03  0.00000000000E+00 0.  1.
        -13    1    1    2    0    0  0.37793168604E+01  0.14759811349E+03 -0.48374777295E+03  0.50577801982E+03  0.10566000000E+00 0.  1.
         13    1    1    2    0    0 -0.24607201257E+03 -0.39291804049E+02  0.15357006395E+03  0.29270985112E+03  0.10566000000E+00 0. -1.
          4    1    1    2  501    0  0.24229269571E+03 -0.10830630944E+03  0.46030341121E+03  0.53133345220E+03  0.00000000000E+00 0.  1.
</event>
<event>
 5    1  0.4866530E-005  0.3837886E+03  0.7818608E-02  0.9951076E-01
          4   -1    0    0  502    0 -0.00000000000E+00  0.00000000000E+00  0.28932644396E+04  0.28932644396E+04  0.00000000000E+00 0.  1.
         21   -1    0    0  501  502  0.00000000000E+00 -0.00000000000E+00 -0.13358297818E+03  0.13358297818E+03  0.00000000000E+00 0.  1.
        -13    1    1    2    0    0 -0.53916738625E+03  0.21679723063E+02  0.17999802339E+04  0.18791222245E+04  0.10566000000E+00 0.  1.
         13    1    1    2    0    0  0.19384986116E+03 -0.89487079869E+02  0.63113617733E+03  0.66627216033E+03  0.10566000000E+00 0. -1.
          4    1    1    2  501    0  0.34531752509E+03  0.67807356807E+02  0.32856505010E+03  0.48145303293E+03  0.00000000000E+00 0.  1.
</event>
<event>
 5    1  0.4866530E-005  0.3078622E+03  0.7818608E-02  0.1004112E+00
         21   -1    0    0  501  502  0.00000000000E+00  0.00000000000E+00  0.53011132282E+03  0.53011132282E+03  0.00000000000E+00 0. -1.
         -4   -1    0    0    0  501 -0.00000000000E+00 -0.00000000000E+00 -0.60404977966E+03  0.60404977966E+03  0.00000000000E+00 0. -1.
        -13    1    1    2    0    0  0.31373251399E+03 -0.53784868354E+02  0.55970658659E+02  0.32319286532E+03  0.10566000000E+00 0.  1.
         13    1    1    2    0    0 -0.30036223052E+03  0.53764829184E+02 -0.42078953661E+03  0.51978069574E+03  0.10566000000E+00 0. -1.
         -4    1    1    2    0  502 -0.13370283479E+02  0.20039170229E-01  0.29088042112E+03  0.29118754141E+03  0.00000000000E+00 0. -1.
</event>
<event>
 5    1  0.4866530E-005  0.1404634E+03  0.7818608E-02  0.1110917E+00
          4   -1    0    0  502    0 -0.00000000000E+00  0.00000000000E+00  0.63728721833E+03  0.63728721833E+03  0.00000000000E+00 0.  1.
         21   -1    0    0  501  502  0.00000000000E+00 -0.00000000000E+00 -0.75259339570E+02  0.75259339570E+02  0.00000000000E+00 0. -1.
        -13    1    1    2    0    0  0.36526098388E+02 -0.15278457650E+03  0.38453667166E+03  0.41538626084E+03  0.10566000000E+00 0.  1.
         13    1    1    2    0    0 -0.10200624333E+03  0.83059616072E+02  0.14585560001E+03  0.19641293419E+03  0.10566000000E+00 0. -1.
          4    1    1    2  501    0  0.65480144944E+02  0.69724960424E+02  0.31635607088E+02  0.10074736286E+03  0.00000000000E+00 0.  1.
</event>
<event>
 5    1  0.4866530E-005  0.3370118E+03  0.7818608E-02  0.1012705E+00
         21   -1    0    0  501  502  0.00000000000E+00  0.00000000000E+00  0.29871245025E+03  0.29871245025E+03  0.00000000000E+00 0.  1.
          4   -1    0    0  502    0 -0.00000000000E+00 -0.00000000000E+00 -0.17936178343E+04  0.17936178343E+04  0.00000000000E+00 0.  1.
        -13    1    1    2    0    0  0.37197475363E+03 -0.25651439021E+03 -0.75083279607E+03  0.87630745093E+03  0.10566000000E+00 0.  1.
         13    1    1    2    0    0 -0.17789291816E+03 -0.23198605253E+01 -0.85553972931E+03  0.87384181158E+03  0.10566000000E+00 0. -1.
          4    1    1    2  501    0 -0.19408183548E+03  0.25883425074E+03  0.11146714136E+03  0.34218102201E+03  0.00000000000E+00 0.  1.
</event>
<event>
 5    1  0.4866530E-005  0.4776012E+03  0.7818608E-02  0.9780065E-01
         21   -1    0    0  501  502  0.00000000000E+00  0.00000000000E+00  0.11332813758E+04  0.11332813758E+04  0.00000000000E+00 0. -1.
         -4   -1    0    0    0  501 -0.00000000000E+00 -0.00000000000E+00 -0.39792698476E+03  0.39792698476E+03  0.00000000000E+00 0. -1.
        -13    1    1    2    0    0 -0.19118393407E+03 -0.47971162061E+02 -0.91744713790E+02  0.21741580602E+03  0.10566000000E+00 0.  1.
         13    1    1    2    0    0  0.37802701618E+03  0.43584993910E+03  0.36757124138E+03  0.68408933849E+03  0.10566000000E+00 0. -1.
         -4    1    1    2    0  502 -0.18684308211E+03 -0.38787877704E+03  0.45952786342E+03  0.62970321603E+03  0.00000000000E+00 0. -1.
</event>
<event>
 5    1  0.4866530E-005  0.2013060E+03  0.7818608E-02  0.1059244E+00
         -4   -1    0    0    0  501 -0.00000000000E+00  0.00000000000E+00  0.18055582708E+04  0.18055582708E+04  0.00000000000E+00 0. -1.
         21   -1    0    0  501  502  0.00000000000E+00 -0.00000000000E+00 -0.40126807027E+02  0.40126807027E+02  0.00000000000E+00 0. -1.
        -13    1    1    2    0    0  0.12465444705E+03  0.14956762761E+03  0.62264019100E+03  0.65237261209E+03  0.10566000000E+00 0.  1.
         13    1    1    2    0    0 -0.14459761514E+03 -0.14618939119E+03  0.11526246149E+04  0.11708216442E+04  0.10566000000E+00 0. -1.
         -4    1    1    2    0  502  0.19943168094E+02 -0.33782364205E+01 -0.98333421696E+01  0.22490821531E+02  0.00000000000E+00 0. -1.
</event>
<event>
 5    1  0.4866530E-005  0.1264414E+03  0.7818608E-02  0.1126985E+00
         -4   -1    0    0    0  501 -0.00000000000E+00  0.00000000000E+00  0.43860484619E+03  0.43860484619E+03  0.00000000000E+00 0. -1.
         21   -1    0    0  501  502  0.00000000000E+00 -0.00000000000E+00 -0.23291384813E+03  0.23291384813E+03  0.00000000000E+00 0.  1.
        -13    1    1    2    0    0 -0.34147127680E+02 -0.12194807504E+03  0.12372183059E+02  0.12724166539E+03  0.10566000000E+00 0.  1.
         13    1    1    2    0    0  0.31121908790E+01  0.12699164685E+03  0.35631206829E+03  0.37827881949E+03  0.10566000000E+00 0. -1.
         -4    1    1    2    0  502  0.31034936801E+02 -0.50435718168E+01 -0.16299325329E+03  0.16599820944E+03  0.00000000000E+00 0. -1.
</event>
<event>
 5    1  0.4866530E-005  0.2837869E+03  0.7818608E-02  0.1043608E+00
         21   -1    0    0  501  502  0.00000000000E+00  0.00000000000E+00  0.42383847163E+03  0.42383847163E+03  0.00000000000E+00 0.  1.
          4   -1    0    0  502    0 -0.00000000000E+00 -0.00000000000E+00 -0.11555917906E+04  0.11555917906E+04  0.00000000000E+00 0.  1.
        -13    1    1    2    0    0  0.37787926892E+02 -0.38959829456E+03 -0.10098379664E+04  0.10830454691E+04  0.10566000000E+00 0.  1.
         13    1    1    2    0    0 -0.25990667829E+01  0.11422015616E+03  0.17414255981E+02  0.11556931556E+03  0.10566000000E+00 0. -1.
          4    1    1    2  501    0 -0.35188860109E+02  0.27537813840E+03  0.26067039146E+03  0.38081547758E+03  0.00000000000E+00 0.  1.
</event>
<event>
 5    1  0.4866530E-005  0.2748640E+03  0.7818608E-02  0.1039188E+00
         -4   -1    0    0    0  501 -0.00000000000E+00  0.00000000000E+00  0.42648869106E+03  0.42648869106E+03  0.00000000000E+00 0. -1.
         21   -1    0    0  501  502  0.00000000000E+00 -0.00000000000E+00 -0.12403413480E+04  0.12403413480E+04  0.00000000000E+00 0. -1.
        -13    1    1    2    0    0  0.25658012848E+02  0.14140223751E+03  0.19231045748E+03  0.24007550816E+03  0.10566000000E+00 0.  1.
         13    1    1    2    0    0  0.25111922499E+03 -0.11949362276E+03  0.92867744888E+02  0.29319621458E+03  0.10566000000E+00 0. -1.
         -4    1    1    2    0  502 -0.27677723784E+03 -0.21908614752E+02 -0.10990308593E+04  0.11335583163E+04  0.00000000000E+00 0. -1.
</event>
<event>
 5    1  0.4866530E-005  0.4313373E+03  0.7818608E-02  0.9722473E-01
         -4   -1    0    0    0  501 -0.00000000000E+00  0.00000000000E+00  0.49292890553E+03  0.49292890553E+03  0.00000000000E+00 0. -1.
         21   -1    0    0  501  502  0.00000000000E+00 -0.00000000000E+00 -0.10012424567E+04  0.10012424567E+04  0.00000000000E+00 0. -1.
        -13    1    1    2    0    0 -0.32002420662E+03  0.63926667999E+02 -0.32414450078E+02  0.32795246521E+03  0.10566000000E+00 0.  1.
         13    1    1    2    0    0  0.32078521193E+03  0.37570761340E+03  0.31287199098E+02  0.49501339673E+03  0.10566000000E+00 0. -1.
         -4    1    1    2    0  502 -0.76100531155E+00 -0.43963428139E+03 -0.50718630016E+03  0.67120550026E+03  0.00000000000E+00 0. -1.
</event>
<event>
 5    1  0.4866530E-005  0.4318707E+03  0.7818608E-02  0.9746552E-01
         21   -1    0    0  501  502  0.00000000000E+00  0.00000000000E+00  0.47764037932E+03  0.47764037932E+03  0.00000000000E+00 0. -1.
         -4   -1    0    0    0  501 -0.00000000000E+00 -0.00000000000E+00 -0.10079061036E+04  0.10079061036E+04  0.00000000000E+00 0. -1.
        -13    1    1    2    0    0  0.12581721821E+03  0.27141221902E+03 -0.24821283073E+03  0.38872121827E+03  0.10566000000E+00 0.  1.
         13    1    1    2    0    0 -0.24170716425E+03  0.19926817176E+03 -0.48004359540E+03  0.57321202200E+03  0.10566000000E+00 0. -1.
         -4    1    1    2    0  502  0.11588994604E+03 -0.47068039079E+03  0.19799070184E+03  0.52361324265E+03  0.00000000000E+00 0. -1.
</event>
<event>
 5    1  0.4866530E-005  0.1951960E+03  0.7818608E-02  0.1063480E+00
         21   -1    0    0  501  502  0.00000000000E+00  0.00000000000E+00  0.59837449437E+02  0.59837449437E+02  0.00000000000E+00 0.  1.
          4   -1    0    0  502    0 -0.00000000000E+00 -0.00000000000E+00 -0.13497197605E+04  0.13497197605E+04  0.00000000000E+00 0.  1.
        -13    1    1    2    0    0  0.12952101129E+02 -0.21548965161E+03 -0.90040995272E+03  0.92592744910E+03  0.10566000000E+00 0.  1.
         13    1    1    2    0    0 -0.24106129882E+02  0.16628755860E+03 -0.39841112461E+03  0.43239344701E+03  0.10566000000E+00 0. -1.
          4    1    1    2  501    0  0.11154028753E+02  0.49202093011E+02  0.89387662466E+01  0.51236313842E+02  0.00000000000E+00 0.  1.
</event>
<event>
 5    1  0.4866530E-005  0.4061569E+03  0.7818608E-02  0.1009915E+00
         21   -1    0    0  501  502  0.00000000000E+00  0.00000000000E+00  0.41484777740E+03  0.41484777740E+03  0.00000000000E+00 0. -1.
         -4   -1    0    0    0  501 -0.00000000000E+00 -0.00000000000E+00 -0.64776527266E+03  0.64776527266E+03  0.00000000000E+00 0. -1.
        -13    1    1    2    0    0 -0.87894814623E+02  0.68028210233E+02 -0.19087654288E+03  0.22087825065E+03  0.10566000000E+00 0.  1.
         13    1    1    2    0    0 -0.31041590269E+03 -0.24146422052E+03  0.53574942478E+02  0.39690463346E+03  0.10566000000E+00 0. -1.
         -4    1    1    2    0  502  0.39831071731E+03  0.17343601029E+03 -0.95615894852E+02  0.44483016595E+03  0.00000000000E+00 0. -1.
</event>
<event>
 5    1  0.4866530E-005  0.5070698E+03  0.7818608E-02  0.9540776E-01
         21   -1    0    0  501  502  0.00000000000E+00  0.00000000000E+00  0.22842306487E+03  0.22842306487E+03  0.00000000000E+00 0.  1.
          4   -1    0    0  502    0 -0.00000000000E+00 -0.00000000000E+00 -0.27092539437E+04  0.27092539437E+04  0.00000000000E+00 0.  1.
        -13    1    1    2    0    0  0.31421585269E+03 -0.44544848683E+03 -0.66023589487E+03  0.85619355554E+03  0.10566000000E+00 0.  1.
         13    1    1    2    0    0  0.20937484647E+03  0.31920448967E+03 -0.12025521779E+04  0.12616897734E+04  0.10566000000E+00 0. -1.
          4    1    1    2  501    0 -0.52359069915E+03  0.12624399716E+03 -0.61804280609E+03  0.81979367967E+03  0.00000000000E+00 0.  1.
</event>
<event>
 5    1  0.4866530E-005  0.5385720E+03  0.7818608E-02  0.9551636E-01
         21   -1    0    0  501  502  0.00000000000E+00  0.00000000000E+00  0.41268390831E+03  0.41268390831E+03  0.00000000000E+00 0. -1.
         -4   -1    0    0    0  501 -0.00000000000E+00 -0.00000000000E+00 -0.12346978203E+04  0.12346978203E+04  0.00000000000E+00 0. -1.
        -13    1    1    2    0    0  0.27926802394E+03  0.12603186658E+03 -0.18228466329E+03  0.35651419358E+03  0.10566000000E+00 0.  1.
         13    1    1    2    0    0  0.49620141759E+02  0.43531833703E+03 -0.41239478913E+03  0.60169235186E+03  0.10566000000E+00 0. -1.
         -4    1    1    2    0  502 -0.32888816570E+03 -0.56135020361E+03 -0.22733445961E+03  0.68917518321E+03  0.00000000000E+00 0. -1.
</event>
<event>
 5    1  0.4866530E-005  0.2233210E+02  0.7818608E-02  0.1479784E+00
         21   -1    0    0  501  502  0.00000000000E+00  0.00000000000E+00  0.30358842156E+02  0.30358842156E+02  0.00000000000E+00 0.  1.
          4   -1    0    0  502    0 -0.00000000000E+00 -0.00000000000E+00 -0.31168097212E+02  0.31168097212E+02  0.00000000000E+00 0.  1.
        -13    1    1    2    0    0  0.22462362189E+02  0.11139175125E+02 -0.73039502634E+01  0.26115087422E+02  0.10566000000E+00 0.  1.
         13    1    1    2    0    0 -0.12641283595E+02 -0.16551925457E+02 -0.25794192337E+01  0.20986492200E+02  0.10566000000E+00 0. -1.
          4    1    1    2  501    0 -0.98210785944E+01  0.54127503316E+01  0.90741144410E+01  0.14425359746E+02  0.00000000000E+00 0.  1.
</event>
<event>
 5    1  0.4866530E-005  0.4980268E+03  0.7818608E-02  0.9614495E-01
         -4   -1    0    0    0  501 -0.00000000000E+00  0.00000000000E+00  0.11638098928E+04  0.11638098928E+04  0.00000000000E+00 0. -1.
         21   -1    0    0  501  502  0.00000000000E+00 -0.00000000000E+00 -0.68927644966E+03  0.68927644966E+03  0.00000000000E+00 0. -1.
        -13    1    1    2    0    0  0.30872909763E+03  0.23039634271E+02  0.71499693744E+03  0.77914383279E+03  0.10566000000E+00 0.  1.
         13    1    1    2    0    0  0.35482930506E+03 -0.57905620373E+02  0.20389840838E+02  0.36010089333E+03  0.10566000000E+00 0. -1.
         -4    1    1    2    0  502 -0.66355840269E+03  0.34865986101E+02 -0.26085333514E+03  0.71384161634E+03  0.00000000000E+00 0. -1.
</event>
<event>
 5    1  0.4866530E-005  0.7300531E+02  0.7818608E-02  0.1219056E+00
         -4   -1    0    0    0  501 -0.00000000000E+00  0.00000000000E+00  0.23215617386E+03  0.23215617386E+03  0.00000000000E+00 0. -1.
         21   -1    0    0  501  502  0.00000000000E+00 -0.00000000000E+00 -0.17515338234E+03  0.17515338234E+03  0.00000000000E+00 0. -1.
        -13    1    1    2    0    0 -0.64701913715E+02 -0.10256510448E+02  0.18567835652E+02  0.68090449623E+02  0.10566000000E+00 0.  1.
         13    1    1    2    0    0  0.75383709058E+02  0.22343077979E+01  0.18097192619E+03  0.19605750421E+03  0.10566000000E+00 0. -1.
         -4    1    1    2    0  502 -0.10681795343E+02  0.80222026505E+01 -0.14253697032E+03  0.14316160238E+03  0.00000000000E+00 0. -1.
</event>
<event>
 5    1  0.4866530E-005  0.9329840E+02  0.7818608E-02  0.1176146E+00
          4   -1    0    0  502    0 -0.00000000000E+00  0.00000000000E+00  0.18931757356E+03  0.18931757356E+03  0.00000000000E+00 0.  1.
         21   -1    0    0  501  502  0.00000000000E+00 -0.00000000000E+00 -0.92132099715E+02  0.92132099715E+02  0.00000000000E+00 0. -1.
        -13    1    1    2    0    0  0.73403528959E+02  0.42748376421E+02  0.90113458135E+02  0.12383839571E+03  0.10566000000E+00 0.  1.
         13    1    1    2    0    0 -0.99726763124E+02 -0.57802123420E+02  0.30566218878E+02  0.11925106983E+03  0.10566000000E+00 0. -1.
          4    1    1    2  501    0  0.26323234165E+02  0.15053747000E+02 -0.23494203165E+02  0.38360207741E+02  0.00000000000E+00 0.  1.
</event>
<event>
 5    1  0.4866530E-005  0.4720665E+03  0.7818608E-02  0.9559299E-01
         -4   -1    0    0    0  501 -0.00000000000E+00  0.00000000000E+00  0.15835184174E+04  0.15835184174E+04  0.00000000000E+00 0. -1.
         21   -1    0    0  501  502  0.00000000000E+00 -0.00000000000E+00 -0.51984784984E+03  0.51984784984E+03  0.00000000000E+00 0. -1.
        -13    1    1    2    0    0 -0.43576920382E+03  0.28277736453E+03  0.79414357925E+03  0.94895830915E+03  0.10566000000E+00 0.  1.
         13    1    1    2    0    0 -0.25657032076E+02 -0.18311585933E+03 -0.33785809813E+03  0.38514647456E+03  0.10566000000E+00 0. -1.
         -4    1    1    2    0  502  0.46142623590E+03 -0.99661505192E+02  0.60738508644E+03  0.76926148352E+03  0.00000000000E+00 0. -1.
</event>
<event>
 5    1  0.4866530E-005  0.4594469E+03  0.7818608E-02  0.9828730E-01
         -4   -1    0    0    0  501 -0.00000000000E+00  0.00000000000E+00  0.21956987104E+04  0.21956987104E+04  0.00000000000E+00 0. -1.
         21   -1    0    0  501  502  0.00000000000E+00 -0.00000000000E+00 -0.16447688429E+03  0.16447688429E+03  0.00000000000E+00 0. -1.
        -13    1    1    2    0    0 -0.14270413012E+03 -0.12169381298E+03  0.37583242840E+03  0.42002842555E+03  0.10566000000E+00 0.  1.
         13    1    1    2    0    0 -0.28214538468E+03  0.34122179014E+03  0.12028606961E+04  0.12817613637E+04  0.10566000000E+00 0. -1.
         -4    1    1    2    0  502  0.42484951480E+03 -0.21952797716E+03  0.45252870161E+03  0.65838580541E+03  0.00000000000E+00 0. -1.
</event>
<event>
 5    1  0.4866530E-005  0.2332029E+03  0.7818608E-02  0.1059267E+00
         -4   -1    0    0    0  501 -0.00000000000E+00  0.00000000000E+00  0.13048191955E+04  0.13048191955E+04  0.00000000000E+00 0. -1.
         21   -1    0    0  501  502  0.00000000000E+00 -0.00000000000E+00 -0.37152496256E+03  0.37152496256E+03  0.00000000000E+00 0. -1.
        -13    1    1    2    0    0  0.12834331282E+03 -0.16519794769E+02  0.59511772825E+03  0.60902383468E+03  0.10566000000E+00 0.  1.
         13    1    1    2    0    0 -0.24232577099E+03  0.21473132091E+03  0.62297813183E+03  0.70209193370E+03  0.10566000000E+00 0. -1.
         -4    1    1    2    0  502  0.11398245817E+03 -0.19821152614E+03 -0.28480162709E+03  0.36522838972E+03  0.00000000000E+00 0. -1.
</event>
<event>
 5    1  0.4866530E-005  0.4711285E+03  0.7818608E-02  0.9774035E-01
          4   -1    0    0  502    0 -0.00000000000E+00  0.00000000000E+00  0.16983054467E+04  0.16983054467E+04  0.00000000000E+00 0.  1.
         21   -1    0    0  501  502  0.00000000000E+00 -0.00000000000E+00 -0.22033721252E+03  0.22033721252E+03  0.00000000000E+00 0.  1.
        -13    1    1    2    0    0  0.19126306506E+03 -0.39888505732E+03  0.89387628106E+03  0.99734931996E+03  0.10566000000E+00 0.  1.
         13    1    1    2    0    0  0.19497061822E+03  0.77033917680E+02  0.16566004006E+03  0.26719099251E+03  0.10566000000E+00 0. -1.
          4    1    1    2  501    0 -0.38623368328E+03  0.32185113964E+03  0.41843191310E+03  0.65410234680E+03  0.00000000000E+00 0.  1.
</event>
<event>
 5    1  0.4866530E-005  0.3774325E+03  0.7818608E-02  0.9796583E-01
         -4   -1    0    0    0  501 -0.00000000000E+00  0.00000000000E+00  0.25674558361E+04  0.25674558361E+04  0.00000000000E+00 0. -1.
         21   -1    0    0  501  502  0.00000000000E+00 -0.00000000000E+00 -0.22750708160E+03  0.22750708160E+03  0.00000000000E+00 0. -1.
        -13    1    1    2    0    0 -0.33184037078E+03 -0.14086172881E+03  0.39807368746E+03  0.53705002572E+03  0.10566000000E+00 0.  1.
         13    1    1    2    0    0  0.36696370951E+03 -0.20894183884E+03  0.18457593270E+04  0.18934483253E+04  0.10566000000E+00 0. -1.
         -4    1    1    2    0  502 -0.35123338736E+02  0.34980356765E+03  0.96115739990E+02  0.36446456664E+03  0.00000000000E+00 0. -1.
</event>
<event>
 5    1  0.4866530E-005  0.3646526E+03  0.7818608E-02  0.9837080E-01
          4   -1    0    0  502    0 -0.00000000000E+00  0.00000000000E+00  0.26117271408E+04  0.26117271408E+04  0.00000000000E+00 0.  1.
         21   -1    0    0  501  502  0.00000000000E+00 -0.00000000000E+00 -0.19258693670E+03  0.19258693670E+03  0.00000000000E+00 0.  1.
        -13    1    1    2    0    0 -0.29285664440E+02  0.38927667887E+03  0.16756584726E+04  0.17205305318E+04  0.10566000000E+00 0.  1.
         13    1    1    2    0    0 -0.91266022404E+02 -0.32734459350E+03  0.84739884706E+03  0.91299988330E+03  0.10566000000E+00 0. -1.
          4    1    1    2  501    0  0.12055168684E+03 -0.61932085364E+02 -0.10391711564E+03  0.17078366234E+03  0.00000000000E+00 0.  1.
</event>
<event>
 5    1  0.4866530E-005  0.4679109E+03  0.7818608E-02  0.9801221E-01
         21   -1    0    0  501  502  0.00000000000E+00  0.00000000000E+00  0.13350994395E+03  0.13350994395E+03  0.00000000000E+00 0.  1.
          4   -1    0    0  502    0 -0.00000000000E+00 -0.00000000000E+00 -0.29437905911E+04  0.29437905911E+04  0.00000000000E+00 0.  1.
        -13    1    1    2    0    0 -0.31372823391E+03  0.17489620523E+03 -0.14712525914E+04  0.15144630356E+04  0.10566000000E+00 0.  1.
         13    1    1    2    0    0 -0.64854801468E+02  0.18387739191E+03 -0.75517662698E+03  0.77994152962E+03  0.10566000000E+00 0. -1.
          4    1    1    2  501    0  0.37858303538E+03 -0.35877359713E+03 -0.58385142873E+03  0.78289596979E+03  0.00000000000E+00 0.  1.
</event>
<event>
 5    1  0.4866530E-005  0.3265381E+03  0.7818608E-02  0.9969163E-01
         21   -1    0    0  501  502  0.00000000000E+00  0.00000000000E+00  0.26386049021E+03  0.26386049021E+03  0.00000000000E+00 0. -1.
         -4   -1    0    0    0  501 -0.00000000000E+00 -0.00000000000E+00 -0.80337760060E+03  0.80337760060E+03  0.00000000000E+00 0. -1.
        -13    1    1    2    0    0  0.28502323698E+03  0.60698388077E+02 -0.27736792377E+03  0.40231270951E+03  0.10566000000E+00 0.  1.
         13    1    1    2    0    0 -0.36119439478E+03 -0.74963962031E+02 -0.37629899837E+03  0.52695534323E+03  0.10566000000E+00 0. -1.
         -4    1    1    2    0  502  0.76171157792E+02  0.14265573953E+02  0.11414981175E+03  0.13797003806E+03  0.00000000000E+00 0. -1.
</event>
<event>
 5    1  0.4866530E-005  0.6090268E+03  0.7818608E-02  0.9323590E-01
         -4   -1    0    0    0  501 -0.00000000000E+00  0.00000000000E+00  0.74558108355E+03  0.74558108355E+03  0.00000000000E+00 0. -1.
         21   -1    0    0  501  502  0.00000000000E+00 -0.00000000000E+00 -0.13599650619E+04  0.13599650619E+04  0.00000000000E+00 0. -1.
        -13    1    1    2    0    0  0.41413965749E+03 -0.54410219101E+03  0.36636814102E+02  0.68476354860E+03  0.10566000000E+00 0.  1.
         13    1    1    2    0    0 -0.56792040831E+03 -0.11686337926E+03 -0.24097617399E+03  0.62790139925E+03  0.10566000000E+00 0. -1.
         -4    1    1    2    0  502  0.15378075082E+03  0.66096557027E+03 -0.41004461850E+03  0.79288119764E+03  0.00000000000E+00 0. -1.
</event>
<event>
 5    1  0.4866530E-005  0.4388963E+03  0.7818608E-02  0.9783743E-01
         21   -1    0    0  501  502  0.00000000000E+00  0.00000000000E+00  0.31086816125E+03  0.31086816125E+03  0.00000000000E+00 0. -1.
         -4   -1    0    0    0  501 -0.00000000000E+00 -0.00000000000E+00 -0.17401241045E+04  0.17401241045E+04  0.00000000000E+00 0. -1.
        -13    1    1    2    0    0 -0.20950249316E+03 -0.13789458235E+03 -0.83628820606E+03  0.87308887591E+03  0.10566000000E+00 0.  1.
         13    1    1    2    0    0  0.17645882940E+03 -0.33784775210E+03 -0.58831213344E+03  0.70099215373E+03  0.10566000000E+00 0. -1.
         -4    1    1    2    0  502  0.33043663759E+02  0.47574233445E+03 -0.46556037802E+01  0.47691123614E+03  0.00000000000E+00 0. -1.
</event>
<event>
 5    1  0.4866530E-005  0.5862507E+03  0.7818608E-02  0.9306663E-01
          4   -1    0    0  502    0 -0.00000000000E+00  0.00000000000E+00  0.16947035111E+04  0.16947035111E+04  0.00000000000E+00 0.  1.
         21   -1    0    0  501  502  0.00000000000E+00 -0.00000000000E+00 -0.52761293607E+03  0.52761293607E+03  0.00000000000E+00 0. -1.
        -13    1    1    2    0    0 -0.54785865249E+03  0.47400693599E+03  0.31726542404E+03  0.79087864994E+03  0.10566000000E+00 0.  1.
         13    1    1    2    0    0  0.56252096473E+03 -0.71184005057E+02  0.85781124830E+03  0.10282690053E+04  0.10566000000E+00 0. -1.
          4    1    1    2  501    0 -0.14662312242E+02 -0.40282293094E+03 -0.79860972700E+01  0.40316879199E+03  0.00000000000E+00 0.  1.
</event>
<event>
 5    1  0.4866530E-005  0.4903136E+03  0.7818608E-02  0.9904207E-01
         -4   -1    0    0    0  501 -0.00000000000E+00  0.00000000000E+00  0.74172572072E+03  0.74172572072E+03  0.00000000000E+00 0. -1.
         21   -1    0    0  501  502  0.00000000000E+00 -0.00000000000E+00 -0.58980501854E+03  0.58980501854E+03  0.00000000000E+00 0. -1.
        -13    1    1    2    0    0  0.11073180769E+03 -0.45376939667E+02  0.30767866993E+03  0.33013145106E+03  0.10566000000E+00 0.  1.
         13    1    1    2    0    0  0.42107986925E+03  0.12713279402E+03  0.48534634808E+01  0.43988017786E+03  0.10566000000E+00 0. -1.
         -4    1    1    2    0  502 -0.53181167693E+03 -0.81755854350E+02 -0.16061143123E+03  0.56151911034E+03  0.00000000000E+00 0. -1.
</event>
<event>
 5    1  0.4866530E-005  0.4764045E+03  0.7818608E-02  0.9896329E-01
         21   -1    0    0  501  502  0.00000000000E+00  0.00000000000E+00  0.15176384826E+04  0.15176384826E+04  0.00000000000E+00 0.  1.
          4   -1    0    0  502    0 -0.00000000000E+00 -0.00000000000E+00 -0.20433185341E+03  0.20433185341E+03  0.00000000000E+00 0.  1.
        -13    1    1    2    0    0  0.14424658788E+03  0.52194430184E+03  0.58213064004E+03  0.79505284452E+03  0.10566000000E+00 0.  1.
         13    1    1    2    0    0  0.32336012865E+02 -0.12998136931E+03  0.23423975803E+03  0.26983152058E+03  0.10566000000E+00 0. -1.
          4    1    1    2  501    0 -0.17658260075E+03 -0.39196293253E+03  0.49693623113E+03  0.65708597091E+03  0.00000000000E+00 0.  1.
</event>
<event>
 5    1  0.4866530E-005  0.3531288E+03  0.7818608E-02  0.9875134E-01
          4   -1    0    0  502    0 -0.00000000000E+00  0.00000000000E+00  0.40101422237E+04  0.40101422237E+04  0.00000000000E+00 0.  1.
         21   -1    0    0  501  502  0.00000000000E+00 -0.00000000000E+00 -0.11422841665E+03  0.11422841665E+03  0.00000000000E+00 0.  1.
        -13    1    1    2    0    0  0.40354752041E+03  0.22444944534E+03  0.25047044015E+04  0.25469142712E+04  0.10566000000E+00 0.  1.
         13    1    1    2    0    0 -0.11263676453E+03 -0.27438613247E+03  0.11742510253E+04  0.12111318144E+04  0.10566000000E+00 0. -1.
          4    1    1    2  501    0 -0.29091075588E+03  0.49936687129E+02  0.21695838024E+03  0.36632455468E+03  0.00000000000E+00 0.  1.
</event>
<event>
 5    1  0.4866530E-005  0.4140957E+03  0.7818608E-02  0.9805687E-01
         -4   -1    0    0    0  501 -0.00000000000E+00  0.00000000000E+00  0.19615097514E+04  0.19615097514E+04  0.00000000000E+00 0. -1.
         21   -1    0    0  501  502  0.00000000000E+00 -0.00000000000E+00 -0.22859239487E+03  0.22859239487E+03  0.00000000000E+00 0. -1.
        -13    1    1    2    0    0 -0.29662903745E+02  0.27545848289E+03  0.37189272651E+03  0.46374721007E+03  0.10566000000E+00 0.  1.
         13    1    1    2    0    0  0.36265193938E+03 -0.26710669686E+03  0.15680644170E+03  0.47691790485E+03  0.10566000000E+00 0. -1.
         -4    1    1    2    0  502 -0.33298903564E+03 -0.83517860314E+01  0.12042181883E+04  0.12494370313E+04  0.00000000000E+00 0. -1.
</event>
<event>
 5    1  0.4866530E-005  0.4537395E+03  0.7818608E-02  0.9889041E-01
         -4   -1    0    0    0  501 -0.00000000000E+00  0.00000000000E+00  0.41484822197E+03  0.41484822197E+03  0.00000000000E+00 0. -1.
         21   -1    0    0  501  502  0.00000000000E+00 -0.00000000000E+00 -0.90781822496E+03  0.90781822496E+03  0.00000000000E+00 0. -1.
        -13    1    1    2    0    0 -0.27592809703E+01  0.15884291260E+03  0.46444626797E+02  0.16551676362E+03  0.10566000000E+00 0.  1.
         13    1    1    2    0    0 -0.39334967730E+03 -0.33715960364E+03 -0.78837724180E+02  0.52403813304E+03  0.10566000000E+00 0. -1.
         -4    1    1    2    0  502  0.39610895827E+03  0.17831669104E+03 -0.46057690560E+03  0.63311155028E+03  0.00000000000E+00 0. -1.
</event>
<event>
 5    1  0.4866530E-005  0.2559205E+03  0.7818608E-02  0.1063131E+00
         21   -1    0    0  501  502  0.00000000000E+00  0.00000000000E+00  0.54149513361E+03  0.54149513361E+03  0.00000000000E+00 0. -1.
         -4   -1    0    0    0  501 -0.00000000000E+00 -0.00000000000E+00 -0.30156469070E+03  0.30156469070E+03  0.00000000000E+00 0. -1.
        -13    1    1    2    0    0  0.85550619692E+02  0.18327129120E+02 -0.20346159884E+02  0.89826330090E+02  0.10566000000E+00 0.  1.
         13    1    1    2    0    0 -0.26547252072E+03 -0.18297619194E+03 -0.82252957088E+02  0.33274841275E+03  0.10566000000E+00 0. -1.
         -4    1    1    2    0  502  0.17992190103E+03  0.16464906281E+03  0.34252955988E+03  0.42048508148E+03  0.00000000000E+00 0. -1.
</event>
<event>
 5    1  0.4866530E-005  0.4843509E+03  0.7818608E-02  0.9635597E-01
          4   -1    0    0  502    0 -0.00000000000E+00  0.00000000000E+00  0.25044342217E+04  0.25044342217E+04  0.00000000000E+00 0.  1.
         21   -1    0    0  501  502  0.00000000000E+00 -0.00000000000E+00 -0.18771230040E+03  0.18771230040E+03  0.00000000000E+00 0.  1.
        -13    1    1    2    0    0  0.50112443142E+03  0.23674865949E+03  0.11326890393E+04  0.12610155012E+04  0.10566000000E+00 0.  1.
         13    1    1    2    0    0 -0.28463964860E+02 -0.31104496746E+03  0.59734370293E+03  0.67407616756E+03  0.10566000000E+00 0. -1.
          4    1    1    2  501    0 -0.47266046656E+03  0.74296307973E+02  0.58668917913E+03  0.75705485332E+03  0.00000000000E+00 0.  1.
</event>
<event>
 5    1  0.4866530E-005  0.4709696E+03  0.7818608E-02  0.1073092E+00
         -4   -1    0    0    0  501 -0.00000000000E+00  0.00000000000E+00  0.42273954054E+03  0.42273954054E+03  0.00000000000E+00 0. -1.
         21   -1    0    0  501  502  0.00000000000E+00 -0.00000000000E+00 -0.64058125661E+03  0.64058125661E+03  0.00000000000E+00 0. -1.
        -13    1    1    2    0    0 -0.67549018332E+01 -0.80953457612E+01  0.41634630689E+02  0.42949004161E+02  0.10566000000E+00 0.  1.
         13    1    1    2    0    0 -0.37215464380E+03  0.28815141938E+03  0.22608375742E+02  0.47121276427E+03  0.10566000000E+00 0. -1.
         -4    1    1    2    0  502  0.37890954564E+03 -0.28005607362E+03 -0.28208472251E+03  0.54915902871E+03  0.00000000000E+00 0. -1.
</event>
<event>
 5    1  0.4866530E-005  0.2025705E+02  0.7818608E-02  0.1548754E+00
         21   -1    0    0  501  502  0.00000000000E+00  0.00000000000E+00  0.10075510396E+03  0.10075510396E+03  0.00000000000E+00 0.  1.
          4   -1    0    0  502    0 -0.00000000000E+00 -0.00000000000E+00 -0.13408615967E+02  0.13408615967E+02  0.00000000000E+00 0.  1.
        -13    1    1    2    0    0 -0.20090730801E+02 -0.14396090321E+02  0.30512418671E+02  0.39267082115E+02  0.10566000000E+00 0.  1.
         13    1    1    2    0    0  0.10857139760E+02 -0.25684403862E+01 -0.33821093609E+01  0.11658653333E+02  0.10566000000E+00 0. -1.
          4    1    1    2  501    0  0.92335910415E+01  0.16964530708E+02  0.60216178680E+02  0.63237984475E+02  0.00000000000E+00 0.  1.
</event>
<event>
 5    1  0.4866530E-005  0.4762703E+03  0.7818608E-02  0.9556086E-01
         21   -1    0    0  501  502  0.00000000000E+00  0.00000000000E+00  0.79791461917E+03  0.79791461917E+03  0.00000000000E+00 0.  1.
          4   -1    0    0  502    0 -0.00000000000E+00 -0.00000000000E+00 -0.13947614809E+04  0.13947614809E+04  0.00000000000E+00 0.  1.
        -13    1    1    2    0    0  0.26085615741E+03  0.46693091643E+03 -0.17363290747E+02  0.53513728202E+03  0.10566000000E+00 0.  1.
         13    1    1    2    0    0  0.23876143955E+03 -0.36483233754E+03 -0.93786139817E+03  0.10342599639E+04  0.10566000000E+00 0. -1.
          4    1    1    2  501    0 -0.49961759696E+03 -0.10209857889E+03  0.35837782720E+03  0.62327885415E+03  0.00000000000E+00 0.  1.
</event>
<event>
 5    1  0.4866530E-005  0.4203159E+03  0.7818608E-02  0.9776549E-01
         -4   -1    0    0    0  501 -0.00000000000E+00  0.00000000000E+00  0.32398294387E+04  0.32398294387E+04  0.00000000000E+00 0. -1.
         21   -1    0    0  501  502  0.00000000000E+00 -0.00000000000E+00 -0.16001051264E+03  0.16001051264E+03  0.00000000000E+00 0. -1.
        -13    1    1    2    0    0 -0.25980059582E+03  0.13480911565E+03  0.13322711739E+04  0.13640441119E+04  0.10566000000E+00 0.  1.
         13    1    1    2    0    0  0.56962230373E+03  0.97211321066E+02  0.14039546320E+04  0.15182253554E+04  0.10566000000E+00 0. -1.
         -4    1    1    2    0  502 -0.30982170790E+03 -0.23202043671E+03  0.34359312013E+03  0.51757048404E+03  0.00000000000E+00 0. -1.
</event>
<event>
 5    1  0.4866530E-005  0.2509033E+03  0.7818608E-02  0.1029926E+00
         21   -1    0    0  501  502  0.00000000000E+00  0.00000000000E+00  0.32431965331E+03  0.32431965331E+03  0.00000000000E+00 0. -1.
         -4   -1    0    0    0  501 -0.00000000000E+00 -0.00000000000E+00 -0.10758305927E+04  0.10758305927E+04  0.00000000000E+00 0. -1.
        -13    1    1    2    0    0 -0.14626790479E+03 -0.11040690548E+03 -0.19463306055E+02  0.18429003282E+03  0.10566000000E+00 0.  1.
         13    1    1    2    0    0  0.24396307930E+03  0.10853141523E+03 -0.94476538984E+03  0.98177324529E+03  0.10566000000E+00 0. -1.
         -4    1    1    2    0  502 -0.97695174502E+02  0.18754902473E+01  0.21271775653E+03  0.23408696787E+03  0.00000000000E+00 0. -1.
</event>
<event>
 5    1  0.4866530E-005  0.4164355E+03  0.7818608E-02  0.9682743E-01
         -4   -1    0    0    0  501 -0.00000000000E+00  0.00000000000E+00  0.37272615094E+04  0.37272615094E+04  0.00000000000E+00 0. -1.
         21   -1    0    0  501  502  0.00000000000E+00 -0.00000000000E+00 -0.16132731520E+03  0.16132731520E+03  0.00000000000E+00 0. -1.
        -13    1    1    2    0    0  0.23469412438E+03  0.26763418395E+03  0.18137733228E+04  0.18483730863E+04  0.10566000000E+00 0.  1.
         13    1    1    2    0    0 -0.36526332392E+03 -0.54132984545E+03  0.15323044402E+04  0.16656566891E+04  0.10566000000E+00 0. -1.
         -4    1    1    2    0  502  0.13056919953E+03  0.27369566151E+03  0.21985643122E+03  0.37455904921E+03  0.00000000000E+00 0. -1.
</event>
<event>
 5    1  0.4866530E-005  0.7776448E+02  0.7818608E-02  0.1207713E+00
         21   -1    0    0  501  502  0.00000000000E+00  0.00000000000E+00  0.10080724767E+02  0.10080724767E+02  0.00000000000E+00 0.  1.
         -4   -1    0    0    0  501 -0.00000000000E+00 -0.00000000000E+00 -0.14027975549E+04  0.14027975549E+04  0.00000000000E+00 0. -1.
        -13    1    1    2    0    0 -0.64536662074E+02  0.16264881276E+02 -0.29364241761E+03  0.30109036467E+03  0.10566000000E+00 0.  1.
         13    1    1    2    0    0  0.96804814227E+02  0.22790619251E+02 -0.45589552857E+03  0.46661689695E+03  0.10566000000E+00 0. -1.
         -4    1    1    2    0  502 -0.32268152153E+02 -0.39055500527E+02 -0.64317888399E+03  0.64517101808E+03  0.00000000000E+00 0. -1.
</event>
<event>
 5    1  0.4866530E-005  0.4252338E+03  0.7818608E-02  0.9896670E-01
         21   -1    0    0  501  502  0.00000000000E+00  0.00000000000E+00  0.15879643748E+03  0.15879643748E+03  0.00000000000E+00 0. -1.
         -4   -1    0    0    0  501 -0.00000000000E+00 -0.00000000000E+00 -0.18166691603E+04  0.18166691603E+04  0.00000000000E+00 0. -1.
        -13    1    1    2    0    0  0.92494300478E+02  0.16382788939E+03 -0.43470126749E+03  0.47366652414E+03  0.10566000000E+00 0.  1.
         13    1    1    2    0    0  0.32823427406E+03 -0.28347161936E+03 -0.59124300571E+03  0.73325452649E+03  0.10566000000E+00 0. -1.
         -4    1    1    2    0  502 -0.42072857454E+03  0.11964372997E+03 -0.63192844966E+03  0.76854454721E+03  0.00000000000E+00 0. -1.
</event>
<event>
 5    1  0.4866530E-005  0.3670868E+03  0.7818608E-02  0.1010581E+00
         21   -1    0    0  501  502  0.00000000000E+00  0.00000000000E+00  0.12968430063E+03  0.12968430063E+03  0.00000000000E+00 0. -1.
         -4   -1    0    0    0  501 -0.00000000000E+00 -0.00000000000E+00 -0.28871987887E+04  0.28871987887E+04  0.00000000000E+00 0. -1.
        -13    1    1    2    0    0 -0.17362097539E+02  0.14632928693E+03 -0.75947127283E+03  0.77363449255E+03  0.10566000000E+00 0.  1.
         13    1    1    2    0    0 -0.34215279435E+03 -0.37022690638E+02 -0.17711931375E+04  0.18043182523E+04  0.10566000000E+00 0. -1.
         -4    1    1    2    0  502  0.35951489189E+03 -0.10930659629E+03 -0.22685007776E+03  0.43893034443E+03  0.00000000000E+00 0. -1.
</event>
<event>
 5    1  0.4866530E-005  0.1445557E+03  0.7818608E-02  0.1106608E+00
          4   -1    0    0  502    0 -0.00000000000E+00  0.00000000000E+00  0.37560280333E+03  0.37560280333E+03  0.00000000000E+00 0.  1.
         21   -1    0    0  501  502  0.00000000000E+00 -0.00000000000E+00 -0.29627051388E+03  0.29627051388E+03  0.00000000000E+00 0. -1.
        -13    1    1    2    0    0 -0.12278178722E+03  0.74711950246E+02  0.32222808664E+03  0.35282884486E+03  0.10566000000E+00 0.  1.
         13    1    1    2    0    0  0.12457435411E+03 -0.89594852396E+02 -0.11883653194E+03  0.19408281677E+03  0.10566000000E+00 0. -1.
          4    1    1    2  501    0 -0.17925668936E+01  0.14882902150E+02 -0.12405926524E+03  0.12496165558E+03  0.00000000000E+00 0.  1.
</event>
<event>
 5    1  0.4866530E-005  0.2778035E+03  0.7818608E-02  0.1016913E+00
         21   -1    0    0  501  502  0.00000000000E+00  0.00000000000E+00  0.49817561792E+03  0.49817561792E+03  0.00000000000E+00 0. -1.
          4   -1    0    0  502    0 -0.00000000000E+00 -0.00000000000E+00 -0.44321838748E+03  0.44321838748E+03  0.00000000000E+00 0.  1.
        -13    1    1    2    0    0 -0.20568219644E+03 -0.18081569609E+03 -0.31691697642E+03  0.41885064521E+03  0.10566000000E+00 0.  1.
         13    1    1    2    0    0  0.21256907142E+03  0.21556713873E+03  0.24099484470E+03  0.38695390909E+03  0.10566000000E+00 0. -1.
          4    1    1    2  501    0 -0.68868749824E+01 -0.34751442636E+02  0.13087936215E+03  0.13558945110E+03  0.00000000000E+00 0.  1.
</event>
<event>
 5    1  0.4866530E-005  0.3112861E+03  0.7818608E-02  0.1002752E+00
         21   -1    0    0  501  502  0.00000000000E+00  0.00000000000E+00  0.24661598968E+03  0.24661598968E+03  0.00000000000E+00 0.  1.
          4   -1    0    0  502    0 -0.00000000000E+00 -0.00000000000E+00 -0.22129832303E+04  0.22129832303E+04  0.00000000000E+00 0.  1.
        -13    1    1    2    0    0  0.63827996280E+02 -0.14938086213E+02  0.18396053529E+03  0.19529119089E+03  0.10566000000E+00 0.  1.
         13    1    1    2    0    0 -0.35141051449E+03  0.96551853148E+02 -0.76873241204E+03  0.85074152509E+03  0.10566000000E+00 0. -1.
          4    1    1    2  501    0  0.28758251821E+03 -0.81613766935E+02 -0.13815953639E+04  0.14135665040E+04  0.00000000000E+00 0.  1.
</event>
<event>
 5    1  0.4866530E-005  0.4863648E+02  0.7818608E-02  0.1318252E+00
         21   -1    0    0  501  502  0.00000000000E+00  0.00000000000E+00  0.36119804815E+02  0.36119804815E+02  0.00000000000E+00 0. -1.
         -4   -1    0    0    0  501 -0.00000000000E+00 -0.00000000000E+00 -0.22434587162E+03  0.22434587162E+03  0.00000000000E+00 0. -1.
        -13    1    1    2    0    0 -0.29307851142E+02  0.14368314368E+02 -0.11331291770E+03  0.11792042689E+03  0.10566000000E+00 0.  1.
         13    1    1    2    0    0 -0.15859419468E+02 -0.46377502226E+02  0.47210268612E+00  0.49016608854E+02  0.10566000000E+00 0. -1.
         -4    1    1    2    0  502  0.45167270610E+02  0.32009187858E+02 -0.75385251794E+02  0.93528640692E+02  0.00000000000E+00 0. -1.
</event>
<event>
 5    1  0.4866530E-005  0.1752597E+03  0.7818608E-02  0.1078561E+00
         -4   -1    0    0    0  501 -0.00000000000E+00  0.00000000000E+00  0.42059534933E+03  0.42059534933E+03  0.00000000000E+00 0. -1.
         21   -1    0    0  501  502  0.00000000000E+00 -0.00000000000E+00 -0.35101288549E+03  0.35101288549E+03  0.00000000000E+00 0. -1.
        -13    1    1    2    0    0  0.18272813875E+03 -0.16702534033E+02  0.22577781340E+02  0.18487378048E+03  0.10566000000E+00 0.  1.
         13    1    1    2    0    0 -0.16715817216E+03 -0.56390155801E+02  0.28616338823E+03  0.33617138504E+03  0.10566000000E+00 0. -1.
         -4    1    1    2    0  502 -0.15569966592E+02  0.73092689834E+02 -0.23915870573E+03  0.25056306930E+03  0.00000000000E+00 0. -1.
</event>
<event>
 5    1  0.4866530E-005  0.6975837E+02  0.7818608E-02  0.1227363E+00
         21   -1    0    0  501  502  0.00000000000E+00  0.00000000000E+00  0.70822098625E+02  0.70822098625E+02  0.00000000000E+00 0. -1.
         -4   -1    0    0    0  501 -0.00000000000E+00 -0.00000000000E+00 -0.54674267445E+03  0.54674267445E+03  0.00000000000E+00 0. -1.
        -13    1    1    2    0    0 -0.18044535819E+00  0.47564680203E+02 -0.77861577028E+02  0.91240712978E+02  0.10566000000E+00 0.  1.
         13    1    1    2    0    0  0.22933426501E+02 -0.79869497536E+02 -0.45193527495E+03  0.45951124317E+03  0.10566000000E+00 0. -1.
         -4    1    1    2    0  502 -0.22752981143E+02  0.32304817333E+02  0.53876276155E+02  0.66812816930E+02  0.00000000000E+00 0. -1.
</event>
<event>
 5    1  0.4866530E-005  0.4502481E+03  0.7818608E-02  0.9609786E-01
         21   -1    0    0  501  502  0.00000000000E+00  0.00000000000E+00  0.27564294926E+03  0.27564294926E+03  0.00000000000E+00 0. -1.
         -4   -1    0    0    0  501 -0.00000000000E+00 -0.00000000000E+00 -0.22782835535E+04  0.22782835535E+04  0.00000000000E+00 0. -1.
        -13    1    1    2    0    0  0.45680772505E+03  0.74646526687E+02 -0.44621447030E+03  0.64292516383E+03  0.10566000000E+00 0.  1.
         13    1    1    2    0    0 -0.10728143947E+03  0.31445700044E+03 -0.12739374317E+04  0.13165519752E+04  0.10566000000E+00 0. -1.
         -4    1    1    2    0  502 -0.34952628559E+03 -0.38910352713E+03 -0.28248870226E+03  0.59444936373E+03  0.00000000000E+00 0. -1.
</event>
<event>
 5    1  0.4866530E-005  0.1153651E+03  0.7818608E-02  0.1141371E+00
         21   -1    0    0  501  502  0.00000000000E+00  0.00000000000E+00  0.45200552910E+02  0.45200552910E+02  0.00000000000E+00 0.  1.
          4   -1    0    0  502    0 -0.00000000000E+00 -0.00000000000E+00 -0.47829934178E+03  0.47829934178E+03  0.00000000000E+00 0.  1.
        -13    1    1    2    0    0 -0.86860334174E+02 -0.82337012206E+02 -0.31888187535E+03  0.34060205933E+03  0.10566000000E+00 0.  1.
         13    1    1    2    0    0  0.96448706427E+02  0.49060294351E+02 -0.85594887508E+02  0.13797014672E+03  0.10566000000E+00 0. -1.
          4    1    1    2  501    0 -0.95883722523E+01  0.33276717855E+02 -0.28622026016E+02  0.44927688644E+02  0.00000000000E+00 0.  1.
</event>
<event>
 5    1  0.4866530E-005  0.2047493E+03  0.7818608E-02  0.1056928E+00
          4   -1    0    0  502    0 -0.00000000000E+00  0.00000000000E+00  0.44733833972E+03  0.44733833972E+03  0.00000000000E+00 0.  1.
         21   -1    0    0  501  502  0.00000000000E+00 -0.00000000000E+00 -0.75802852312E+03  0.75802852312E+03  0.00000000000E+00 0.  1.
        -13    1    1    2    0    0  0.22925132128E+03  0.45643861220E+00  0.36239209140E+03  0.42881746200E+03  0.10566000000E+00 0.  1.
         13    1    1    2    0    0 -0.12566513881E+03  0.58728606438E+02 -0.58580388090E+02  0.15057373396E+03  0.10566000000E+00 0. -1.
          4    1    1    2  501    0 -0.10358618247E+03 -0.59185045050E+02 -0.61450188671E+03  0.62597566688E+03  0.00000000000E+00 0.  1.
</event>
<event>
 5    1  0.4866530E-005  0.4476431E+03  0.7818608E-02  0.9649628E-01
          4   -1    0    0  502    0 -0.00000000000E+00  0.00000000000E+00  0.11543477904E+04  0.11543477904E+04  0.00000000000E+00 0.  1.
         21   -1    0    0  501  502  0.00000000000E+00 -0.00000000000E+00 -0.45227113069E+03  0.45227113069E+03  0.00000000000E+00 0.  1.
        -13    1    1    2    0    0 -0.22715034695E+03 -0.11159279631E+03  0.37065669212E+03  0.44881691912E+03  0.10566000000E+00 0.  1.
         13    1    1    2    0    0 -0.10613569396E+03 -0.36129687296E+03  0.42929309356E+03  0.57104534609E+03  0.10566000000E+00 0. -1.
          4    1    1    2  501    0  0.33328604092E+03  0.47288966927E+03 -0.97873126019E+02  0.58675665584E+03  0.00000000000E+00 0.  1.
</event>
<event>
 5    1  0.4866530E-005  0.1675941E+03  0.7818608E-02  0.1084947E+00
          4   -1    0    0  502    0 -0.00000000000E+00  0.00000000000E+00  0.15835133315E+03  0.15835133315E+03  0.00000000000E+00 0.  1.
         21   -1    0    0  501  502  0.00000000000E+00 -0.00000000000E+00 -0.29753743109E+03  0.29753743109E+03  0.00000000000E+00 0. -1.
        -13    1    1    2    0    0 -0.12322253010E+03  0.14339925352E+03 -0.10845298317E+03  0.21796604909E+03  0.10566000000E+00 0.  1.
         13    1    1    2    0    0  0.65392615717E+02 -0.14657480647E+03  0.18950321088E+02  0.16161526510E+03  0.10566000000E+00 0. -1.
          4    1    1    2  501    0  0.57829914386E+02  0.31755529482E+01 -0.49683435852E+02  0.76307450046E+02  0.00000000000E+00 0.  1.
</event>
<event>
 5    1  0.4866530E-005  0.4108314E+03  0.7818608E-02  0.9870061E-01
          4   -1    0    0  502    0 -0.00000000000E+00  0.00000000000E+00  0.27247167392E+04  0.27247167392E+04  0.00000000000E+00 0.  1.
         21   -1    0    0  501  502  0.00000000000E+00 -0.00000000000E+00 -0.18108395214E+03  0.18108395214E+03  0.00000000000E+00 0.  1.
        -13    1    1    2    0    0  0.88134275047E+02  0.30690190689E+03  0.11372318188E+04  0.11812081323E+04  0.10566000000E+00 0.  1.
         13    1    1    2    0    0 -0.18825228516E+03  0.12883041850E+03  0.12184274602E+04  0.12395973889E+04  0.10566000000E+00 0. -1.
          4    1    1    2  501    0  0.10011801011E+03 -0.43573232540E+03  0.18797350801E+03  0.48499517014E+03  0.00000000000E+00 0.  1.
</event>
<event>
 5    1  0.4866530E-005  0.1416285E+03  0.7818608E-02  0.1109674E+00
         21   -1    0    0  501  502  0.00000000000E+00  0.00000000000E+00  0.37353074053E+03  0.37353074053E+03  0.00000000000E+00 0.  1.
          4   -1    0    0  502    0 -0.00000000000E+00 -0.00000000000E+00 -0.29734542129E+03  0.29734542129E+03  0.00000000000E+00 0.  1.
        -13    1    1    2    0    0  0.40002481566E+02  0.14347034565E+03 -0.17625023549E+03  0.23075548810E+03  0.10566000000E+00 0.  1.
         13    1    1    2    0    0 -0.65844155254E+02 -0.11415485220E+03 -0.45664058763E+02  0.13947042873E+03  0.10566000000E+00 0. -1.
          4    1    1    2  501    0  0.25841673688E+02 -0.29315493446E+02  0.29809961349E+03  0.30065024500E+03  0.00000000000E+00 0.  1.
</event>
<event>
 5    1  0.4866530E-005  0.3122041E+03  0.7818608E-02  0.1002391E+00
         21   -1    0    0  501  502  0.00000000000E+00  0.00000000000E+00  0.12712497804E+04  0.12712497804E+04  0.00000000000E+00 0.  1.
          4   -1    0    0  502    0 -0.00000000000E+00 -0.00000000000E+00 -0.12082700994E+03  0.12082700994E+03  0.00000000000E+00 0.  1.
        -13    1    1    2    0    0  0.26322751415E+03 -0.21895178576E+03  0.31011590556E+03  0.46195291398E+03  0.10566000000E+00 0.  1.
         13    1    1    2    0    0 -0.25037860051E+03  0.12096833913E+03  0.46295326844E+03  0.54004492645E+03  0.10566000000E+00 0. -1.
          4    1    1    2  501    0 -0.12848913640E+02  0.97983446634E+02  0.37735359651E+03  0.39007894995E+03  0.00000000000E+00 0.  1.
</event>
<event>
 5    1  0.4866530E-005  0.4380677E+03  0.7818608E-02  0.9862118E-01
          4   -1    0    0  502    0 -0.00000000000E+00  0.00000000000E+00  0.12076123792E+04  0.12076123792E+04  0.00000000000E+00 0.  1.
         21   -1    0    0  501  502  0.00000000000E+00 -0.00000000000E+00 -0.29558872070E+03  0.29558872070E+03  0.00000000000E+00 0.  1.
        -13    1    1    2    0    0  0.21710727199E+03 -0.44879590624E+03  0.65803375067E+03  0.82556753885E+03  0.10566000000E+00 0.  1.
         13    1    1    2    0    0 -0.19171641418E+03  0.24371670206E+02  0.13621693218E+03  0.23644074427E+03  0.10566000000E+00 0. -1.
          4    1    1    2  501    0 -0.25390857804E+02  0.42442423604E+03  0.11777297566E+03  0.44119281679E+03  0.00000000000E+00 0.  1.
</event>
<event>
 5    1  0.4866530E-005  0.6625625E+02  0.7818608E-02  0.1236907E+00
         -4   -1    0    0    0  501 -0.00000000000E+00  0.00000000000E+00  0.39500612309E+03  0.39500612309E+03  0.00000000000E+00 0. -1.
         21   -1    0    0  501  502  0.00000000000E+00 -0.00000000000E+00 -0.15597992229E+03  0.15597992229E+03  0.00000000000E+00 0.  1.
        -13    1    1    2    0    0  0.29965044756E+01  0.79045714659E+02 -0.11811643213E+03  0.14215733097E+03  0.10566000000E+00 0.  1.
         13    1    1    2    0    0 -0.29680066337E+01 -0.65907544648E+02  0.37825321692E+03  0.38396369722E+03  0.10566000000E+00 0. -1.
         -4    1    1    2    0  502 -0.28497841831E-01 -0.13138170012E+02 -0.21110583995E+02  0.24865017192E+02  0.00000000000E+00 0. -1.
</event>
<event>
 5    1  0.4866530E-005  0.4802377E+03  0.7818608E-02  0.9790596E-01
         -4   -1    0    0    0  501 -0.00000000000E+00  0.00000000000E+00  0.22170330828E+04  0.22170330828E+04  0.00000000000E+00 0. -1.
         21   -1    0    0  501  502  0.00000000000E+00 -0.00000000000E+00 -0.21145156187E+03  0.21145156187E+03  0.00000000000E+00 0. -1.
        -13    1    1    2    0    0  0.27259030360E+02  0.18501805167E+03  0.10124369892E+04  0.10295646665E+04  0.10566000000E+00 0.  1.
         13    1    1    2    0    0 -0.22965197577E+03  0.34655021548E+03  0.44513620333E+03  0.60908401104E+03  0.10566000000E+00 0. -1.
         -4    1    1    2    0  502  0.20239294541E+03 -0.53156826715E+03  0.54800832831E+03  0.78983596708E+03  0.00000000000E+00 0. -1.
</event>
<event>
 5    1  0.4866530E-005  0.5161032E+03  0.7818608E-02  0.9810720E-01
         -4   -1    0    0    0  501 -0.00000000000E+00  0.00000000000E+00  0.68548115236E+03  0.68548115236E+03  0.00000000000E+00 0. -1.
         21   -1    0    0  501  502  0.00000000000E+00 -0.00000000000E+00 -0.67222156808E+03  0.67222156808E+03  0.00000000000E+00 0. -1.
        -13    1    1    2    0    0  0.85868347060E+02  0.11142195282E+03  0.25195535040E+03  0.28856495691E+03  0.10566000000E+00 0.  1.
         13    1    1    2    0    0  0.38756375006E+03 -0.34010820730E+03 -0.97971954696E+02  0.52485976041E+03  0.10566000000E+00 0. -1.
         -4    1    1    2    0  502 -0.47343209712E+03  0.22868625448E+03 -0.14072381143E+03  0.54427800311E+03  0.00000000000E+00 0. -1.
</event>
<event>
 5    1  0.4866530E-005  0.2618723E+03  0.7818608E-02  0.1051494E+00
          4   -1    0    0  502    0 -0.00000000000E+00  0.00000000000E+00  0.38549288151E+04  0.38549288151E+04  0.00000000000E+00 0.  1.
         21   -1    0    0  501  502  0.00000000000E+00 -0.00000000000E+00 -0.80687429561E+02  0.80687429561E+02  0.00000000000E+00 0.  1.
        -13    1    1    2    0    0  0.21563610819E+03 -0.13586185483E+03  0.20905309442E+03  0.32963704617E+03  0.10566000000E+00 0.  1.
         13    1    1    2    0    0  0.40657998543E+02 -0.10744645491E+03  0.29226969203E+03  0.31403725506E+03  0.10566000000E+00 0. -1.
          4    1    1    2  501    0 -0.25629410674E+03  0.24330830974E+03  0.32729185991E+04  0.32919419434E+04  0.00000000000E+00 0.  1.
</event>
<event>
 5    1  0.4866530E-005  0.1721195E+02  0.7818608E-02  0.1560947E+00
          4   -1    0    0  502    0 -0.00000000000E+00  0.00000000000E+00  0.14609865435E+02  0.14609865435E+02  0.00000000000E+00 0.  1.
         21   -1    0    0  501  502  0.00000000000E+00 -0.00000000000E+00 -0.49111198797E+02  0.49111198797E+02  0.00000000000E+00 0. -1.
        -13    1    1    2    0    0  0.13436515281E+02 -0.24491272461E+01 -0.14727232074E+02  0.20085833211E+02  0.10566000000E+00 0.  1.
         13    1    1    2    0    0 -0.13298103964E+02 -0.14762265107E+02 -0.39565819217E+01  0.20259065740E+02  0.10566000000E+00 0. -1.
          4    1    1    2  501    0 -0.13841131771E+00  0.17211392353E+02 -0.15817519366E+02  0.23376165282E+02  0.00000000000E+00 0.  1.
</event>
<event>
 5    1  0.4866530E-005  0.4050339E+03  0.7818608E-02  0.9714620E-01
          4   -1    0    0  502    0 -0.00000000000E+00  0.00000000000E+00  0.27879554170E+04  0.27879554170E+04  0.00000000000E+00 0.  1.
         21   -1    0    0  501  502  0.00000000000E+00 -0.00000000000E+00 -0.29832346847E+03  0.29832346847E+03  0.00000000000E+00 0.  1.
        -13    1    1    2    0    0  0.16517299879E+03 -0.36411097092E+03  0.20320813665E+04  0.20710416726E+04  0.10566000000E+00 0.  1.
         13    1    1    2    0    0 -0.15317606452E+03  0.39285712899E+03  0.67483041829E+03  0.79573597076E+03  0.10566000000E+00 0. -1.
          4    1    1    2  501    0 -0.11996934272E+02 -0.28746158063E+02 -0.21727983624E+03  0.21950124207E+03  0.00000000000E+00 0.  1.
</event>
<event>
 5    1  0.4866530E-005  0.3863089E+03  0.7818608E-02  0.1027638E+00
         21   -1    0    0  501  502  0.00000000000E+00  0.00000000000E+00  0.68127652027E+03  0.68127652027E+03  0.00000000000E+00 0.  1.
          4   -1    0    0  502    0 -0.00000000000E+00 -0.00000000000E+00 -0.45800592946E+03  0.45800592946E+03  0.00000000000E+00 0.  1.
        -13    1    1    2    0    0 -0.37270142259E+03 -0.32507788995E+02  0.41366159714E+03  0.55774459644E+03  0.10566000000E+00 0.  1.
         13    1    1    2    0    0 -0.72615311822E+02 -0.13105918131E+02  0.33484014133E+02  0.81030481719E+02  0.10566000000E+00 0. -1.
          4    1    1    2  501    0  0.44531673441E+03  0.45613707126E+02 -0.22387502046E+03  0.50050737158E+03  0.00000000000E+00 0.  1.
</event>
<event>
 5    1  0.4866530E-005  0.4985803E+03  0.7818608E-02  0.9608027E-01
         21   -1    0    0  501  502  0.00000000000E+00  0.00000000000E+00  0.25277374325E+03  0.25277374325E+03  0.00000000000E+00 0. -1.
         -4   -1    0    0    0  501 -0.00000000000E+00 -0.00000000000E+00 -0.20456270473E+04  0.20456270473E+04  0.00000000000E+00 0. -1.
        -13    1    1    2    0    0 -0.13789151484E+03 -0.28401932328E+03 -0.76498170134E+03  0.82757359818E+03  0.10566000000E+00 0.  1.
         13    1    1    2    0    0  0.41063062170E+03  0.52827107988E+03 -0.53408919124E+03  0.85611863469E+03  0.10566000000E+00 0. -1.
         -4    1    1    2    0  502 -0.27273910686E+03 -0.24425175660E+03 -0.49378241149E+03  0.61470855770E+03  0.00000000000E+00 0. -1.
</event>
<event>
 5    1  0.4866530E-005  0.4704307E+03  0.7818608E-02  0.9752434E-01
          4   -1    0    0  502    0 -0.00000000000E+00  0.00000000000E+00  0.20496466051E+04  0.20496466051E+04  0.00000000000E+00 0.  1.
         21   -1    0    0  501  502  0.00000000000E+00 -0.00000000000E+00 -0.21159090338E+03  0.21159090338E+03  0.00000000000E+00 0.  1.
        -13    1    1    2    0    0  0.30039255692E+03  0.41566922121E+03  0.81274225844E+03  0.96102371434E+03  0.10566000000E+00 0.  1.
         13    1    1    2    0    0 -0.22250759054E+03  0.43972108125E+02  0.68900099263E+03  0.72537269948E+03  0.10566000000E+00 0. -1.
          4    1    1    2  501    0 -0.77884966386E+02 -0.45964132934E+03  0.33631245061E+03  0.57484109462E+03  0.00000000000E+00 0.  1.
</event>
<event>
 5    1  0.4866530E-005  0.3891466E+03  0.7818608E-02  0.9760924E-01
         -4   -1    0    0    0  501 -0.00000000000E+00  0.00000000000E+00  0.11835961549E+04  0.11835961549E+04  0.00000000000E+00 0. -1.
         21   -1    0    0  501  502  0.00000000000E+00 -0.00000000000E+00 -0.48154395402E+03  0.48154395402E+03  0.00000000000E+00 0. -1.
        -13    1    1    2    0    0 -0.34685561171E+03  0.21176467354E+03  0.32290772425E+03  0.51905924699E+03  0.10566000000E+00 0.  1.
         13    1    1    2    0    0  0.42255609039E+03  0.15329348078E+03  0.57107035354E+03  0.72675573656E+03  0.10566000000E+00 0. -1.
         -4    1    1    2    0  502 -0.75700478671E+02 -0.36505815432E+03 -0.19192587694E+03  0.41932512534E+03  0.00000000000E+00 0. -1.
</event>
<event>
 5    1  0.4866530E-005  0.7988093E+02  0.7818608E-02  0.1213168E+00
         21   -1    0    0  501  502  0.00000000000E+00  0.00000000000E+00  0.51225169631E+02  0.51225169631E+02  0.00000000000E+00 0.  1.
          4   -1    0    0  502    0 -0.00000000000E+00 -0.00000000000E+00 -0.82687975821E+03  0.82687975821E+03  0.00000000000E+00 0.  1.
        -13    1    1    2    0    0  0.74056335773E+02  0.22856991061E+02 -0.42186513266E+03  0.42892538305E+03  0.10566000000E+00 0.  1.
         13    1    1    2    0    0 -0.26880851559E+01 -0.63443534011E+02 -0.36120436236E+03  0.36674365756E+03  0.10566000000E+00 0. -1.
          4    1    1    2  501    0 -0.71368250617E+02  0.40586542950E+02  0.74149064456E+01  0.82435887223E+02  0.00000000000E+00 0.  1.
</event>
<event>
 5    1  0.4866530E-005  0.4951556E+03  0.7818608E-02  0.9606059E-01
         -4   -1    0    0    0  501 -0.00000000000E+00  0.00000000000E+00  0.18709881903E+04  0.18709881903E+04  0.00000000000E+00 0. -1.
         21   -1    0    0  501  502  0.00000000000E+00 -0.00000000000E+00 -0.31112199019E+03  0.31112199019E+03  0.00000000000E+00 0. -1.
        -13    1    1    2    0    0 -0.12587651520E+03  0.29917721534E+03  0.86737988292E+03  0.92612082134E+03  0.10566000000E+00 0.  1.
         13    1    1    2    0    0  0.52009095828E+03 -0.37199088822E+03  0.35133226579E+03  0.72959317290E+03  0.10566000000E+00 0. -1.
         -4    1    1    2    0  502 -0.39421444308E+03  0.72813672882E+02  0.34115405137E+03  0.52639618621E+03  0.00000000000E+00 0. -1.
</event>
<event>
 5    1  0.4866530E-005  0.6675254E+03  0.7818608E-02  0.9171466E-01
          4   -1    0    0  502    0 -0.00000000000E+00  0.00000000000E+00  0.10263163033E+04  0.10263163033E+04  0.00000000000E+00 0.  1.
         21   -1    0    0  501  502  0.00000000000E+00 -0.00000000000E+00 -0.98875540838E+03  0.98875540838E+03  0.00000000000E+00 0.  1.
        -13    1    1    2    0    0  0.82020617574E+03  0.30169168250E+03 -0.23071613371E+03  0.90387277176E+03  0.10566000000E+00 0.  1.
         13    1    1    2    0    0 -0.53430686991E+03 -0.30229717083E+03  0.45986982595E+03  0.76703825114E+03  0.10566000000E+00 0. -1.
          4    1    1    2  501    0 -0.28589930583E+03  0.60548833236E+00 -0.19159279736E+03  0.34416068876E+03  0.00000000000E+00 0.  1.
</event>
<event>
 5    1  0.4866530E-005  0.4887608E+03  0.7818608E-02  0.1020383E+00
         21   -1    0    0  501  502  0.00000000000E+00  0.00000000000E+00  0.17417245369E+04  0.17417245369E+04  0.00000000000E+00 0.  1.
          4   -1    0    0  502    0 -0.00000000000E+00 -0.00000000000E+00 -0.23614776414E+03  0.23614776414E+03  0.00000000000E+00 0.  1.
        -13    1    1    2    0    0 -0.13914572014E+03 -0.45881431798E+03  0.11087900094E+04  0.12080096878E+04  0.10566000000E+00 0.  1.
         13    1    1    2    0    0 -0.41608693374E+02 -0.18928255870E+02 -0.66211891439E+02  0.80458610269E+02  0.10566000000E+00 0. -1.
          4    1    1    2  501    0  0.18075441352E+03  0.47774257385E+03  0.46299865477E+03  0.68940400289E+03  0.00000000000E+00 0.  1.
</event>
<event>
 5    1  0.4866530E-005  0.1124373E+03  0.7818608E-02  0.1145472E+00
          4   -1    0    0  502    0 -0.00000000000E+00  0.00000000000E+00  0.24628282424E+03  0.24628282424E+03  0.00000000000E+00 0.  1.
         21   -1    0    0  501  502  0.00000000000E+00 -0.00000000000E+00 -0.16070565487E+03  0.16070565487E+03  0.00000000000E+00 0. -1.
        -13    1    1    2    0    0 -0.91756236912E+02 -0.73837018978E+02  0.19258694732E+03  0.22574511252E+03  0.10566000000E+00 0.  1.
         13    1    1    2    0    0  0.39294452791E+02  0.83858264650E+02 -0.62590762662E+02  0.11177601400E+03  0.10566000000E+00 0. -1.
          4    1    1    2  501    0  0.52461784120E+02 -0.10021245672E+02 -0.44419015292E+02  0.69467352601E+02  0.00000000000E+00 0.  1.
</event>
<event>
 5    1  0.4866530E-005  0.5703574E+03  0.7818608E-02  0.9702323E-01
         21   -1    0    0  501  502  0.00000000000E+00  0.00000000000E+00  0.28472646122E+03  0.28472646122E+03  0.00000000000E+00 0. -1.
         -4   -1    0    0    0  501 -0.00000000000E+00 -0.00000000000E+00 -0.19872656193E+04  0.19872656193E+04  0.00000000000E+00 0. -1.
        -13    1    1    2    0    0 -0.11737414896E+03 -0.95611195365E+02 -0.77470516707E+03  0.78935815608E+03  0.10566000000E+00 0.  1.
         13    1    1    2    0    0  0.43346663025E+03  0.46776304121E+03 -0.35477622289E+03  0.72976829320E+03  0.10566000000E+00 0. -1.
         -4    1    1    2    0  502 -0.31609248129E+03 -0.37215184585E+03 -0.57305776806E+03  0.75286563120E+03  0.00000000000E+00 0. -1.
</event>
<event>
 5    1  0.4866530E-005  0.3197908E+03  0.7818608E-02  0.1020676E+00
          4   -1    0    0  502    0 -0.00000000000E+00  0.00000000000E+00  0.21463807107E+04  0.21463807107E+04  0.00000000000E+00 0.  1.
         21   -1    0    0  501  502  0.00000000000E+00 -0.00000000000E+00 -0.16800322620E+03  0.16800322620E+03  0.00000000000E+00 0.  1.
        -13    1    1    2    0    0  0.40932472641E+03 -0.17158347217E+03  0.13936238454E+04  0.14625918956E+04  0.10566000000E+00 0.  1.
         13    1    1    2    0    0 -0.10948759586E+03  0.11899643926E+03  0.51458822172E+03  0.53939664006E+03  0.10566000000E+00 0. -1.
          4    1    1    2  501    0 -0.29983713055E+03  0.52587032915E+02  0.70165417362E+02  0.31239540118E+03  0.00000000000E+00 0.  1.
</event>
<event>
 5    1  0.4866530E-005  0.3479920E+03  0.7818608E-02  0.9892597E-01
         21   -1    0    0  501  502  0.00000000000E+00  0.00000000000E+00  0.53870996018E+03  0.53870996018E+03  0.00000000000E+00 0. -1.
          4   -1    0    0  502    0 -0.00000000000E+00 -0.00000000000E+00 -0.68046950173E+03  0.68046950173E+03  0.00000000000E+00 0.  1.
        -13    1    1    2    0    0 -0.37492885923E+02 -0.34876582527E+03 -0.50830767407E+03  0.61759211463E+03  0.10566000000E+00 0.  1.
         13    1    1    2    0    0 -0.88779387629E+02  0.33776090756E+03  0.28610309127E+03  0.45146339867E+03  0.10566000000E+00 0. -1.
          4    1    1    2  501    0  0.12627227355E+03  0.11004917711E+02  0.80445041255E+02  0.15012394860E+03  0.00000000000E+00 0.  1.
</event>
<event>
 5    1  0.4866530E-005  0.4881308E+03  0.7818608E-02  0.9730242E-01
         21   -1    0    0  501  502  0.00000000000E+00  0.00000000000E+00  0.36607048891E+03  0.36607048891E+03  0.00000000000E+00 0.  1.
          4   -1    0    0  502    0 -0.00000000000E+00 -0.00000000000E+00 -0.10414960747E+04  0.10414960747E+04  0.00000000000E+00 0.  1.
        -13    1    1    2    0    0 -0.27230131386E+03  0.46625195026E+03 -0.16766693634E+03  0.56537695333E+03  0.10566000000E+00 0.  1.
         13    1    1    2    0    0 -0.90207402720E+02 -0.19977411659E+03 -0.20313580538E+03  0.29884986156E+03  0.10566000000E+00 0. -1.
          4    1    1    2  501    0  0.36250871658E+03 -0.26647783368E+03 -0.30462284411E+03  0.54333974877E+03  0.00000000000E+00 0.  1.
</event>
<event>
 5    1  0.4866530E-005  0.3142576E+03  0.7818608E-02  0.1001588E+00
         -4   -1    0    0    0  501 -0.00000000000E+00  0.00000000000E+00  0.58976764069E+03  0.58976764069E+03  0.00000000000E+00 0. -1.
         21   -1    0    0  501  502  0.00000000000E+00 -0.00000000000E+00 -0.59019765761E+03  0.59019765761E+03  0.00000000000E+00 0. -1.
        -13    1    1    2    0    0  0.25265024744E+03 -0.31686218227E+03 -0.50620108977E+02  0.40840690088E+03  0.10566000000E+00 0.  1.
         13    1    1    2    0    0 -0.16661929017E+03  0.24118404542E+03  0.34650059296E+03  0.45386606363E+03  0.10566000000E+00 0. -1.
         -4    1    1    2    0  502 -0.86030957266E+02  0.75678136852E+02 -0.29631050091E+03  0.31769233380E+03  0.00000000000E+00 0. -1.
</event>
<event>
 5    1  0.4866530E-005  0.1405396E+03  0.7818608E-02  0.1110836E+00
         21   -1    0    0  501  502  0.00000000000E+00  0.00000000000E+00  0.14737805097E+03  0.14737805097E+03  0.00000000000E+00 0.  1.
         -4   -1    0    0    0  501 -0.00000000000E+00 -0.00000000000E+00 -0.33875292467E+03  0.33875292467E+03  0.00000000000E+00 0. -1.
        -13    1    1    2    0    0  0.40702850246E+02  0.12905293205E+03  0.33523412459E+01  0.13536111201E+03  0.10566000000E+00 0.  1.
         13    1    1    2    0    0  0.65650526100E+02 -0.13860296014E+03 -0.18960411366E+03  0.24386574835E+03  0.10566000000E+00 0. -1.
         -4    1    1    2    0  502 -0.10635337635E+03  0.95500280863E+01 -0.51231012814E+01  0.10690411528E+03  0.00000000000E+00 0. -1.
</event>
<event>
 5    1  0.4866530E-005  0.5386262E+02  0.7818608E-02  0.1276814E+00
         21   -1    0    0  501  502  0.00000000000E+00  0.00000000000E+00  0.18561356401E+03  0.18561356401E+03  0.00000000000E+00 0.  1.
         -4   -1    0    0    0  501 -0.00000000000E+00 -0.00000000000E+00 -0.33704767501E+02  0.33704767501E+02  0.00000000000E+00 0. -1.
        -13    1    1    2    0    0  0.45973630583E+02  0.68691372827E+01  0.86270672434E+02  0.97996937923E+02  0.10566000000E+00 0.  1.
         13    1    1    2    0    0 -0.56284759399E+02  0.70579592769E+01  0.35236084313E+01  0.56834988433E+02  0.10566000000E+00 0. -1.
         -4    1    1    2    0  502  0.10311128816E+02 -0.13927096560E+02  0.62114515641E+02  0.64486405152E+02  0.00000000000E+00 0. -1.
</event>
<event>
 5    1  0.4866530E-005  0.4925300E+03  0.7818608E-02  0.9682946E-01
         -4   -1    0    0    0  501 -0.00000000000E+00  0.00000000000E+00  0.23374071618E+04  0.23374071618E+04  0.00000000000E+00 0. -1.
         21   -1    0    0  501  502  0.00000000000E+00 -0.00000000000E+00 -0.17331172759E+03  0.17331172759E+03  0.00000000000E+00 0. -1.
        -13    1    1    2    0    0  0.24116131296E+03  0.71462403873E+02  0.52073106298E+03  0.57829620883E+03  0.10566000000E+00 0.  1.
         13    1    1    2    0    0  0.19909594885E+03 -0.41053779116E+03  0.83406965443E+03  0.95071166734E+03  0.10566000000E+00 0. -1.
         -4    1    1    2    0  502 -0.44025726181E+03  0.33907538729E+03  0.80929471683E+03  0.98171101324E+03  0.00000000000E+00 0. -1.
</event>
<event>
 5    1  0.4866530E-005  0.3839316E+03  0.7818608E-02  0.1003853E+00
         21   -1    0    0  501  502  0.00000000000E+00  0.00000000000E+00  0.12977287124E+04  0.12977287124E+04  0.00000000000E+00 0. -1.
         -4   -1    0    0    0  501 -0.00000000000E+00 -0.00000000000E+00 -0.31778062297E+03  0.31778062297E+03  0.00000000000E+00 0. -1.
        -13    1    1    2    0    0 -0.15144910918E+03  0.51828800882E+02 -0.59859862752E+02  0.17089842482E+03  0.10566000000E+00 0.  1.
         13    1    1    2    0    0 -0.14334433022E+03  0.33405440962E+03  0.84776726247E+03  0.92241492186E+03  0.10566000000E+00 0. -1.
         -4    1    1    2    0  502  0.29479343941E+03 -0.38588321051E+03  0.19204068967E+03  0.52219598865E+03  0.00000000000E+00 0. -1.
</event>
<event>
 5    1  0.4866530E-005  0.4286679E+02  0.7818608E-02  0.1357111E+00
          4   -1    0    0  502    0 -0.00000000000E+00  0.00000000000E+00  0.29554196220E+03  0.29554196220E+03  0.00000000000E+00 0.  1.
         21   -1    0    0  501  502  0.00000000000E+00 -0.00000000000E+00 -0.60171287593E+02  0.60171287593E+02  0.00000000000E+00 0.  1.
        -13    1    1    2    0    0  0.52052894552E+02  0.34433832792E+02  0.27295189993E+03  0.27999632768E+03  0.10566000000E+00 0.  1.
         13    1    1    2    0    0 -0.12748945192E+02 -0.19609550132E+02 -0.17160271550E+02  0.29009587098E+02  0.10566000000E+00 0. -1.
          4    1    1    2  501    0 -0.39303949361E+02 -0.14824282660E+02 -0.20420953773E+02  0.46707335020E+02  0.00000000000E+00 0.  1.
</event>
<event>
 5    1  0.4866530E-005  0.2266489E+03  0.7818608E-02  0.1043258E+00
         -4   -1    0    0    0  501 -0.00000000000E+00  0.00000000000E+00  0.96806205586E+03  0.96806205586E+03  0.00000000000E+00 0. -1.
         21   -1    0    0  501  502  0.00000000000E+00 -0.00000000000E+00 -0.12990225975E+03  0.12990225975E+03  0.00000000000E+00 0.  1.
        -13    1    1    2    0    0 -0.85683798492E+02 -0.21540326523E+03  0.18550037079E+03  0.29690179980E+03  0.10566000000E+00 0.  1.
         13    1    1    2    0    0  0.75982055149E+02  0.21184886179E+03  0.70895763929E+03  0.74382401038E+03  0.10566000000E+00 0. -1.
         -4    1    1    2    0  502  0.97017433431E+01  0.35544034387E+01 -0.56298213976E+02  0.57238505437E+02  0.00000000000E+00 0. -1.
</event>
<event>
 5    1  0.4866530E-005  0.2725171E+03  0.7818608E-02  0.1039678E+00
         21   -1    0    0  501  502  0.00000000000E+00  0.00000000000E+00  0.94142485448E+03  0.94142485448E+03  0.00000000000E+00 0.  1.
         -4   -1    0    0    0  501 -0.00000000000E+00 -0.00000000000E+00 -0.59578298437E+03  0.59578298437E+03  0.00000000000E+00 0. -1.
        -13    1    1    2    0    0 -0.17850883552E+03 -0.36673112809E+03  0.14812673857E+03  0.43393394257E+03  0.10566000000E+00 0.  1.
         13    1    1    2    0    0 -0.12756607563E+03  0.15313087751E+03 -0.37218969569E+03  0.42219349834E+03  0.10566000000E+00 0. -1.
         -4    1    1    2    0  502  0.30607491115E+03  0.21360025059E+03  0.56970482723E+03  0.68108039794E+03  0.00000000000E+00 0. -1.
</event>
<event>
 5    1  0.4866530E-005  0.1138427E+03  0.7818608E-02  0.1143487E+00
         -4   -1    0    0    0  501 -0.00000000000E+00  0.00000000000E+00  0.16211654809E+03  0.16211654809E+03  0.00000000000E+00 0. -1.
         21   -1    0    0  501  502  0.00000000000E+00 -0.00000000000E+00 -0.93798109421E+02  0.93798109421E+02  0.00000000000E+00 0.  1.
        -13    1    1    2    0    0  0.11007331989E+03  0.81551168508E+01  0.47393264255E+00  0.11037607285E+03  0.10566000000E+00 0.  1.
         13    1    1    2    0    0 -0.11607946192E+03  0.97831675439E+00  0.68137048029E+02  0.13460336943E+03  0.10566000000E+00 0. -1.
         -4    1    1    2    0  502  0.60061420311E+01 -0.91334336052E+01 -0.29254199787E+00  0.10935215240E+02  0.00000000000E+00 0. -1.
</event>
<event>
 5    1  0.4866530E-005  0.5726612E+03  0.7818608E-02  0.9331521E-01
         -4   -1    0    0    0  501 -0.00000000000E+00  0.00000000000E+00  0.29747916452E+03  0.29747916452E+03  0.00000000000E+00 0. -1.
         21   -1    0    0  501  502  0.00000000000E+00 -0.00000000000E+00 -0.12213945500E+04  0.12213945500E+04  0.00000000000E+00 0.  1.
        -13    1    1    2    0    0  0.41472957100E+03  0.37203490652E+03 -0.38257394145E+03  0.67585014654E+03  0.10566000000E+00 0.  1.
         13    1    1    2    0    0 -0.43179759994E+03 -0.40198616000E+03 -0.43995439320E+03  0.73593608378E+03  0.10566000000E+00 0. -1.
         -4    1    1    2    0  502  0.17068028934E+02  0.29951253475E+02 -0.10138705085E+03  0.10708748422E+03  0.00000000000E+00 0. -1.
</event>
<event>
 5    1  0.4866530E-005  0.1930607E+03  0.7818608E-02  0.1065000E+00
         21   -1    0    0  501  502  0.00000000000E+00  0.00000000000E+00  0.32725951500E+03  0.32725951500E+03  0.00000000000E+00 0.  1.
          4   -1    0    0  502    0 -0.00000000000E+00 -0.00000000000E+00 -0.35465605026E+03  0.35465605026E+03  0.00000000000E+00 0.  1.
        -13    1    1    2    0    0 -0.10599060043E+02 -0.18788146115E+03 -0.18450112488E+03  0.26353834590E+03  0.10566000000E+00 0.  1.
         13    1    1    2    0    0  0.15802616629E+02  0.20221903774E+03 -0.51455237509E+02  0.20926039890E+03  0.10566000000E+00 0. -1.
          4    1    1    2  501    0 -0.52035565853E+01 -0.14337576588E+02  0.20855982713E+03  0.20911682046E+03  0.00000000000E+00 0.  1.
</event>
<event>
 5    1  0.4866530E-005  0.4933580E+03  0.7818608E-02  0.9534084E-01
         21   -1    0    0  501  502  0.00000000000E+00  0.00000000000E+00  0.30539090032E+03  0.30539090032E+03  0.00000000000E+00 0. -1.
         -4   -1    0    0    0  501 -0.00000000000E+00 -0.00000000000E+00 -0.24459028224E+04  0.24459028224E+04  0.00000000000E+00 0. -1.
        -13    1    1    2    0    0 -0.30571530741E+03  0.43516049535E+03 -0.10713054296E+04  0.11960442469E+04  0.10566000000E+00 0.  1.
         13    1    1    2    0    0 -0.36519694767E+03 -0.12998071161E+03 -0.30233048709E+03  0.49159691879E+03  0.10566000000E+00 0. -1.
         -4    1    1    2    0  502  0.67091225508E+03 -0.30517978374E+03 -0.76687600542E+03  0.10636525570E+04  0.00000000000E+00 0. -1.
</event>
<event>
 5    1  0.4866530E-005  0.2817301E+02  0.7818608E-02  0.1420207E+00
         21   -1    0    0  501  502  0.00000000000E+00  0.00000000000E+00  0.21140257677E+02  0.21140257677E+02  0.00000000000E+00 0.  1.
         -4   -1    0    0    0  501 -0.00000000000E+00 -0.00000000000E+00 -0.15628470142E+03  0.15628470142E+03  0.00000000000E+00 0. -1.
        -13    1    1    2    0    0 -0.35817404865E+02  0.10681367391E+02 -0.22952091284E+02  0.43861004993E+02  0.10566000000E+00 0.  1.
         13    1    1    2    0    0  0.20784532706E+02 -0.17481103250E+02 -0.11379133195E+03  0.11698745301E+03  0.10566000000E+00 0. -1.
         -4    1    1    2    0  502  0.15032872160E+02  0.67997358589E+01  0.15989794902E+01  0.16576501094E+02  0.00000000000E+00 0. -1.
</event>
<event>
 5    1  0.4866530E-005  0.4925707E+03  0.7818608E-02  0.9636411E-01
         21   -1    0    0  501  502  0.00000000000E+00  0.00000000000E+00  0.47450494620E+03  0.47450494620E+03  0.00000000000E+00 0. -1.
         -4   -1    0    0    0  501 -0.00000000000E+00 -0.00000000000E+00 -0.15777733706E+04  0.15777733706E+04  0.00000000000E+00 0. -1.
        -13    1    1    2    0    0  0.21035517435E+03  0.20841042072E+03 -0.94607831536E+03  0.99133666975E+03  0.10566000000E+00 0.  1.
         13    1    1    2    0    0  0.32803804457E+03  0.63547808798E+02 -0.29100710483E+03  0.44309415355E+03  0.10566000000E+00 0. -1.
         -4    1    1    2    0  502 -0.53839321892E+03 -0.27195822952E+03  0.13381699584E+03  0.61784749345E+03  0.00000000000E+00 0. -1.
</event>
<event>
 5    1  0.4866530E-005  0.2095241E+03  0.7818608E-02  0.1094952E+00
         -4   -1    0    0    0  501 -0.00000000000E+00  0.00000000000E+00  0.11556674128E+04  0.11556674128E+04  0.00000000000E+00 0. -1.
         21   -1    0    0  501  502  0.00000000000E+00 -0.00000000000E+00 -0.70784979155E+03  0.70784979155E+03  0.00000000000E+00 0. -1.
        -13    1    1    2    0    0 -0.31877083982E+03 -0.19933760151E+03  0.67814727887E+03  0.77539284927E+03  0.10566000000E+00 0.  1.
         13    1    1    2    0    0 -0.82686038512E+02 -0.74939015161E+02 -0.51348898962E+03  0.52547482393E+03  0.10566000000E+00 0. -1.
         -4    1    1    2    0  502  0.40145687833E+03  0.27427661667E+03  0.28315933199E+03  0.56264953115E+03  0.00000000000E+00 0. -1.
</event>
<event>
 5    1  0.4866530E-005  0.9850881E+02  0.7818608E-02  0.1167047E+00
         -4   -1    0    0    0  501 -0.00000000000E+00  0.00000000000E+00  0.13700508347E+03  0.13700508347E+03  0.00000000000E+00 0. -1.
         21   -1    0    0  501  502  0.00000000000E+00 -0.00000000000E+00 -0.20052782593E+03  0.20052782593E+03  0.00000000000E+00 0. -1.
        -13    1    1    2    0    0 -0.36982022244E+01  0.71273884174E+02 -0.85035448290E+02  0.11101658387E+03  0.10566000000E+00 0.  1.
         13    1    1    2    0    0  0.24516573317E+02 -0.10225126761E+03  0.96522537215E+02  0.14273400243E+03  0.10566000000E+00 0. -1.
         -4    1    1    2    0  502 -0.20818371093E+02  0.30977383432E+02 -0.75009831387E+02  0.83782323100E+02  0.00000000000E+00 0. -1.
</event>
<event>
 5    1  0.4866530E-005  0.1945195E+03  0.7818608E-02  0.1063959E+00
          4   -1    0    0  502    0 -0.00000000000E+00  0.00000000000E+00  0.10645096108E+03  0.10645096108E+03  0.00000000000E+00 0.  1.
         21   -1    0    0  501  502  0.00000000000E+00 -0.00000000000E+00 -0.63112705123E+03  0.63112705123E+03  0.00000000000E+00 0. -1.
        -13    1    1    2    0    0 -0.87969681031E+01 -0.19183527210E+03 -0.29475985674E+02  0.19428588000E+03  0.10566000000E+00 0.  1.
         13    1    1    2    0    0 -0.24040498028E+01  0.20504079369E+03 -0.43990921667E+03  0.48535310508E+03  0.10566000000E+00 0. -1.
          4    1    1    2  501    0  0.11201017906E+02 -0.13205521588E+02 -0.55290887801E+02  0.57939027230E+02  0.00000000000E+00 0.  1.
</event>
<event>
 5    1  0.4866530E-005  0.1294523E+03  0.7818608E-02  0.1123350E+00
          4   -1    0    0  502    0 -0.00000000000E+00  0.00000000000E+00  0.23799490024E+03  0.23799490024E+03  0.00000000000E+00 0.  1.
         21   -1    0    0  501  502  0.00000000000E+00 -0.00000000000E+00 -0.55513512298E+03  0.55513512298E+03  0.00000000000E+00 0. -1.
        -13    1    1    2    0    0  0.12697835249E+03 -0.12540225457E+02  0.19611347481E+03  0.23396851374E+03  0.10566000000E+00 0.  1.
         13    1    1    2    0    0 -0.15594997752E+03  0.14414222605E+02 -0.25481152498E+03  0.29909378082E+03  0.10566000000E+00 0. -1.
          4    1    1    2  501    0  0.28971625033E+02 -0.18739971482E+01 -0.25844217258E+03  0.26006772866E+03  0.00000000000E+00 0.  1.
</event>
<event>
 5    1  0.4866530E-005  0.2036163E+03  0.7818608E-02  0.1057685E+00
         21   -1    0    0  501  502  0.00000000000E+00  0.00000000000E+00  0.36759589175E+03  0.36759589175E+03  0.00000000000E+00 0.  1.
         -4   -1    0    0    0  501 -0.00000000000E+00 -0.00000000000E+00 -0.18594415146E+03  0.18594415146E+03  0.00000000000E+00 0. -1.
        -13    1    1    2    0    0 -0.15991886702E+03 -0.13855648675E+03  0.22001615594E+03  0.30525245959E+03  0.10566000000E+00 0.  1.
         13    1    1    2    0    0  0.14674563807E+03  0.13806248136E+03 -0.70573102097E+02  0.21348560831E+03  0.10566000000E+00 0. -1.
         -4    1    1    2    0  502  0.13173228951E+02  0.49400538238E+00  0.32208686451E+02  0.34801975306E+02  0.00000000000E+00 0. -1.
</event>
<event>
 5    1  0.4866530E-005  0.6916110E+03  0.7818608E-02  0.9135237E-01
         -4   -1    0    0    0  501 -0.00000000000E+00  0.00000000000E+00  0.41853333251E+04  0.41853333251E+04  0.00000000000E+00 0. -1.
         21   -1    0    0  501  502  0.00000000000E+00 -0.00000000000E+00 -0.37140631195E+03  0.37140631195E+03  0.00000000000E+00 0. -1.
        -13    1    1    2    0    0 -0.21067688815E+01  0.10309910246E+04  0.17835803882E+04  0.20601227982E+04  0.10566000000E+00 0.  1.
         13    1    1    2    0    0 -0.78302887415E+02 -0.58193900043E+03  0.19460411369E+04  0.20326978280E+04  0.10566000000E+00 0. -1.
         -4    1    1    2    0  502  0.80409656297E+02 -0.44905202418E+03  0.84305487973E+02  0.46391901076E+03  0.00000000000E+00 0. -1.
</event>
<event>
 5    1  0.4866530E-005  0.5568552E+03  0.7818608E-02  0.9361366E-01
         21   -1    0    0  501  502  0.00000000000E+00  0.00000000000E+00  0.74646890512E+03  0.74646890512E+03  0.00000000000E+00 0.  1.
         -4   -1    0    0    0  501 -0.00000000000E+00 -0.00000000000E+00 -0.90165413233E+03  0.90165413233E+03  0.00000000000E+00 0. -1.
        -13    1    1    2    0    0 -0.13737932066E+01  0.48385205856E+03 -0.16503046146E+03  0.51122379273E+03  0.10566000000E+00 0.  1.
         13    1    1    2    0    0  0.55227665887E+01 -0.63403546532E+03 -0.36601822720E+03  0.73212077285E+03  0.10566000000E+00 0. -1.
         -4    1    1    2    0  502 -0.41489733821E+01  0.15018340676E+03  0.37586346145E+03  0.40477847188E+03  0.00000000000E+00 0. -1.
</event>
<event>
 5    1  0.4866530E-005  0.1948490E+03  0.7818608E-02  0.1063726E+00
         21   -1    0    0  501  502  0.00000000000E+00  0.00000000000E+00  0.47401131967E+03  0.47401131967E+03  0.00000000000E+00 0.  1.
         -4   -1    0    0    0  501 -0.00000000000E+00 -0.00000000000E+00 -0.18082941715E+03  0.18082941715E+03  0.00000000000E+00 0. -1.
        -13    1    1    2    0    0  0.84485730548E+02 -0.18063622123E+03  0.12572427052E+03  0.23574114288E+03  0.10566000000E+00 0.  1.
         13    1    1    2    0    0 -0.88660986295E+02  0.17145391298E+03 -0.51608337056E+02  0.19980151747E+03  0.10566000000E+00 0. -1.
         -4    1    1    2    0  502  0.41752557471E+01  0.91823082499E+01  0.21906596906E+03  0.21929807647E+03  0.00000000000E+00 0. -1.
</event>
<event>
 5    1  0.4866530E-005  0.4180938E+03  0.7818608E-02  0.9944582E-01
         21   -1    0    0  501  502  0.00000000000E+00  0.00000000000E+00  0.26610003833E+03  0.26610003833E+03  0.00000000000E+00 0.  1.
          4   -1    0    0  502    0 -0.00000000000E+00 -0.00000000000E+00 -0.17751784230E+04  0.17751784230E+04  0.00000000000E+00 0.  1.
        -13    1    1    2    0    0  0.36858037228E+03  0.83019814725E+02 -0.95535229437E+02  0.38970600675E+03  0.10566000000E+00 0.  1.
         13    1    1    2    0    0  0.11739515126E+03  0.12120567928E+03 -0.89983024599E+03  0.91551456624E+03  0.10566000000E+00 0. -1.
          4    1    1    2  501    0 -0.48597552354E+03 -0.20422549401E+03 -0.51371290929E+03  0.73605788838E+03  0.00000000000E+00 0.  1.
</event>
<event>
 5    1  0.4866530E-005  0.8364283E+02  0.7818608E-02  0.1194883E+00
         21   -1    0    0  501  502  0.00000000000E+00  0.00000000000E+00  0.80789246688E+02  0.80789246688E+02  0.00000000000E+00 0.  1.
         -4   -1    0    0    0  501 -0.00000000000E+00 -0.00000000000E+00 -0.12319947240E+03  0.12319947240E+03  0.00000000000E+00 0. -1.
        -13    1    1    2    0    0  0.68953861971E+02 -0.62470906027E+02 -0.38671882396E+02  0.10076097872E+03  0.10566000000E+00 0.  1.
         13    1    1    2    0    0 -0.62967964886E+02  0.40950835846E+02 -0.17322418189E+02  0.77084453000E+02  0.10566000000E+00 0. -1.
         -4    1    1    2    0  502 -0.59858970855E+01  0.21520070180E+02  0.13584074870E+02  0.26143287371E+02  0.00000000000E+00 0. -1.
</event>
<event>
 5    1  0.4866530E-005  0.3340005E+03  0.7818608E-02  0.1010036E+00
         -4   -1    0    0    0  501 -0.00000000000E+00  0.00000000000E+00  0.27416659467E+04  0.27416659467E+04  0.00000000000E+00 0. -1.
         21   -1    0    0  501  502  0.00000000000E+00 -0.00000000000E+00 -0.76800638574E+02  0.76800638574E+02  0.00000000000E+00 0. -1.
        -13    1    1    2    0    0 -0.63932826260E+02 -0.18853987131E+03  0.37374674158E+03  0.42346348999E+03  0.10566000000E+00 0.  1.
         13    1    1    2    0    0  0.23735810682E+03  0.36315625979E+03  0.11872942679E+04  0.12640763544E+04  0.10566000000E+00 0. -1.
         -4    1    1    2    0  502 -0.17342528056E+03 -0.17461638849E+03  0.11038242987E+04  0.11309267409E+04  0.00000000000E+00 0. -1.
</event>
<event>
 5    1  0.4866530E-005  0.1172613E+03  0.7818608E-02  0.1138786E+00
         -4   -1    0    0    0  501 -0.00000000000E+00  0.00000000000E+00  0.18804829110E+02  0.18804829110E+02  0.00000000000E+00 0. -1.
         21   -1    0    0  501  502  0.00000000000E+00 -0.00000000000E+00 -0.13898206715E+04  0.13898206715E+04  0.00000000000E+00 0.  1.
        -13    1    1    2    0    0  0.95416600627E+02  0.11037588721E+03 -0.58930987574E+03  0.60710238424E+03  0.10566000000E+00 0.  1.
         13    1    1    2    0    0 -0.80176627480E+02 -0.65148193398E+02 -0.29663136666E+03  0.31410628384E+03  0.10566000000E+00 0. -1.
         -4    1    1    2    0  502 -0.15239973147E+02 -0.45227693809E+02 -0.48507460001E+03  0.48741683254E+03  0.00000000000E+00 0. -1.
</event>
<event>
 5    1  0.4866530E-005  0.4770986E+03  0.7818608E-02  0.9939455E-01
         21   -1    0    0  501  502  0.00000000000E+00  0.00000000000E+00  0.20750418339E+03  0.20750418339E+03  0.00000000000E+00 0. -1.
         -4   -1    0    0    0  501 -0.00000000000E+00 -0.00000000000E+00 -0.15196674992E+04  0.15196674992E+04  0.00000000000E+00 0. -1.
        -13    1    1    2    0    0 -0.60515265690E+02 -0.98381439346E+02 -0.19017700378E+03  0.22250462674E+03  0.10566000000E+00 0.  1.
         13    1    1    2    0    0  0.26091161120E+03  0.48558517354E+03 -0.75477784909E+03  0.93464294907E+03  0.10566000000E+00 0. -1.
         -4    1    1    2    0  502 -0.20039634551E+03 -0.38720373419E+03 -0.36720846297E+03  0.57002410680E+03  0.00000000000E+00 0. -1.
</event>
<event>
 5    1  0.4866530E-005  0.2851064E+03  0.7818608E-02  0.1019815E+00
          4   -1    0    0  502    0 -0.00000000000E+00  0.00000000000E+00  0.11898119148E+04  0.11898119148E+04  0.00000000000E+00 0.  1.
         21   -1    0    0  501  502  0.00000000000E+00 -0.00000000000E+00 -0.39246296222E+03  0.39246296222E+03  0.00000000000E+00 0.  1.
        -13    1    1    2    0    0  0.33133755511E+02  0.43055470207E+03  0.59761211269E+03  0.73730281814E+03  0.10566000000E+00 0.  1.
         13    1    1    2    0    0  0.11996943281E+03 -0.20144712008E+03  0.42743104257E+03  0.48751504009E+03  0.10566000000E+00 0. -1.
          4    1    1    2  501    0 -0.15310318832E+03 -0.22910758199E+03 -0.22769420264E+03  0.35745701884E+03  0.00000000000E+00 0.  1.
</event>
<event>
 5    1  0.4866530E-005  0.2146511E+03  0.7818608E-02  0.1082708E+00
         21   -1    0    0  501  502  0.00000000000E+00  0.00000000000E+00  0.12606341516E+04  0.12606341516E+04  0.00000000000E+00 0. -1.
         -4   -1    0    0    0  501 -0.00000000000E+00 -0.00000000000E+00 -0.74460581939E+03  0.74460581939E+03  0.00000000000E+00 0. -1.
        -13    1    1    2    0    0 -0.16955959877E+03  0.40992748763E+03 -0.37578021134E+03  0.58137920590E+03  0.10566000000E+00 0.  1.
         13    1    1    2    0    0  0.40367642644E+02 -0.94045446584E+02 -0.22975728236E+03  0.25152040187E+03  0.10566000000E+00 0. -1.
         -4    1    1    2    0  502  0.12919195613E+03 -0.31588204105E+03  0.11215658259E+04  0.11723403632E+04  0.00000000000E+00 0. -1.
</event>
<event>
 5    1  0.4866530E-005  0.4908766E+03  0.7818608E-02  0.9728654E-01
         -4   -1    0    0    0  501 -0.00000000000E+00  0.00000000000E+00  0.12933276081E+04  0.12933276081E+04  0.00000000000E+00 0. -1.
         21   -1    0    0  501  502  0.00000000000E+00 -0.00000000000E+00 -0.42217638300E+03  0.42217638300E+03  0.00000000000E+00 0. -1.
        -13    1    1    2    0    0  0.39425655244E+02 -0.21311044026E+03  0.61798760814E+03  0.65488864475E+03  0.10566000000E+00 0.  1.
         13    1    1    2    0    0 -0.19405763300E+03  0.59073100759E+03  0.16058282270E+03  0.64219026960E+03  0.10566000000E+00 0. -1.
         -4    1    1    2    0  502  0.15463197776E+03 -0.37762056734E+03  0.92580794297E+02  0.41842507680E+03  0.00000000000E+00 0. -1.
</event>
<event>
 5    1  0.4866530E-005  0.4066817E+03  0.7818608E-02  0.1003917E+00
         21   -1    0    0  501  502  0.00000000000E+00  0.00000000000E+00  0.10844082253E+03  0.10844082253E+03  0.00000000000E+00 0.  1.
          4   -1    0    0  502    0 -0.00000000000E+00 -0.00000000000E+00 -0.33632658558E+04  0.33632658558E+04  0.00000000000E+00 0.  1.
        -13    1    1    2    0    0 -0.39823289915E+03 -0.11721544754E+03 -0.25057473652E+04  0.25399013313E+04  0.10566000000E+00 0.  1.
         13    1    1    2    0    0 -0.10545759358E+02  0.13398777251E+03 -0.11340046604E+03  0.17585111056E+03  0.10566000000E+00 0. -1.
          4    1    1    2  501    0  0.40877865851E+03 -0.16772324968E+02 -0.63567720200E+03  0.75595423650E+03  0.00000000000E+00 0.  1.
</event>
<event>
 5    1  0.4866530E-005  0.1752847E+03  0.7818608E-02  0.1078541E+00
         -4   -1    0    0    0  501 -0.00000000000E+00  0.00000000000E+00  0.53618567970E+03  0.53618567970E+03  0.00000000000E+00 0. -1.
         21   -1    0    0  501  502  0.00000000000E+00 -0.00000000000E+00 -0.14145824487E+03  0.14145824487E+03  0.00000000000E+00 0.  1.
        -13    1    1    2    0    0 -0.21416396653E+02  0.14356664285E+03 -0.60239203457E+02  0.15715856891E+03  0.10566000000E+00 0.  1.
         13    1    1    2    0    0  0.62929942000E+02 -0.16952078497E+03  0.42790961608E+03  0.46454722563E+03  0.10566000000E+00 0. -1.
         -4    1    1    2    0  502 -0.41513545347E+02  0.25954142123E+02  0.27057022206E+02  0.55938130030E+02  0.00000000000E+00 0. -1.
</event>
<event>
 5    1  0.4866530E-005  0.1794185E+03  0.7818608E-02  0.1075242E+00
         -4   -1    0    0    0  501 -0.00000000000E+00  0.00000000000E+00  0.69899032291E+03  0.69899032291E+03  0.00000000000E+00 0. -1.
         21   -1    0    0  501  502  0.00000000000E+00 -0.00000000000E+00 -0.17798814154E+03  0.17798814154E+03  0.00000000000E+00 0. -1.
        -13    1    1    2    0    0 -0.14861118482E+03 -0.43290594059E+02  0.87410085348E+02  0.17776359012E+03  0.10566000000E+00 0.  1.
         13    1    1    2    0    0  0.14772402038E+03  0.12300540935E+03  0.53600424246E+03  0.56943241567E+03  0.10566000000E+00 0. -1.
         -4    1    1    2    0  502  0.88716444286E+00 -0.79714815286E+02 -0.10241214643E+03  0.12978245865E+03  0.00000000000E+00 0. -1.
</event>
<event>
 5    1  0.4866530E-005  0.1191713E+03  0.7818608E-02  0.1136235E+00
         -4   -1    0    0    0  501 -0.00000000000E+00  0.00000000000E+00  0.13964755828E+03  0.13964755828E+03  0.00000000000E+00 0. -1.
         21   -1    0    0  501  502  0.00000000000E+00 -0.00000000000E+00 -0.47930375614E+03  0.47930375614E+03  0.00000000000E+00 0.  1.
        -13    1    1    2    0    0 -0.10248381592E+03 -0.10519494463E+03 -0.10874161863E+03  0.18273932168E+03  0.10566000000E+00 0.  1.
         13    1    1    2    0    0  0.80233972416E+02  0.79840809598E+02  0.70214394219E+02  0.13319954026E+03  0.10566000000E+00 0. -1.
         -4    1    1    2    0  502  0.22249843506E+02  0.25354135036E+02 -0.30112897345E+03  0.30301245247E+03  0.00000000000E+00 0. -1.
</event>
<event>
 5    1  0.4866530E-005  0.1920103E+03  0.7818608E-02  0.1071769E+00
          4   -1    0    0  502    0 -0.00000000000E+00  0.00000000000E+00  0.11536724530E+04  0.11536724530E+04  0.00000000000E+00 0.  1.
         21   -1    0    0  501  502  0.00000000000E+00 -0.00000000000E+00 -0.36883863299E+03  0.36883863299E+03  0.00000000000E+00 0.  1.
        -13    1    1    2    0    0 -0.10786227833E+02  0.16940650975E+03 -0.26729330387E+03  0.31663958961E+03  0.10566000000E+00 0.  1.
         13    1    1    2    0    0 -0.49105530172E+02  0.20347200746E+03  0.32613939003E+03  0.38752951347E+03  0.10566000000E+00 0. -1.
          4    1    1    2  501    0  0.59891758005E+02 -0.37287851721E+03  0.72598773381E+03  0.81834198287E+03  0.00000000000E+00 0.  1.
</event>
<event>
 5    1  0.4866530E-005  0.5253006E+03  0.7818608E-02  0.9424178E-01
         21   -1    0    0  501  502  0.00000000000E+00  0.00000000000E+00  0.37912332792E+03  0.37912332792E+03  0.00000000000E+00 0.  1.
         -4   -1    0    0    0  501 -0.00000000000E+00 -0.00000000000E+00 -0.19469767629E+04  0.19469767629E+04  0.00000000000E+00 0. -1.
        -13    1    1    2    0    0  0.58210743769E+03 -0.20991781707E+02 -0.62510910167E+03  0.85443029211E+03  0.10566000000E+00 0.  1.
         13    1    1    2    0    0 -0.37364429252E+03 -0.44057152329E+03 -0.29263745719E+03  0.64757240289E+03  0.10566000000E+00 0. -1.
         -4    1    1    2    0  502 -0.20846314517E+03  0.46156330500E+03 -0.65010687608E+03  0.82409739579E+03  0.00000000000E+00 0. -1.
</event>
<event>
 5    1  0.4866530E-005  0.4762297E+03  0.7818608E-02  0.9557523E-01
         21   -1    0    0  501  502  0.00000000000E+00  0.00000000000E+00  0.95938129826E+03  0.95938129826E+03  0.00000000000E+00 0. -1.
         -4   -1    0    0    0  501 -0.00000000000E+00 -0.00000000000E+00 -0.17944161761E+04  0.17944161761E+04  0.00000000000E+00 0. -1.
        -13    1    1    2    0    0 -0.37563580317E+03  0.21714624516E+03 -0.31632113728E+02  0.43503488388E+03  0.10566000000E+00 0.  1.
         13    1    1    2    0    0  0.62000424580E+03 -0.60194999868E+03 -0.13525730691E+04  0.16050554458E+04  0.10566000000E+00 0. -1.
         -4    1    1    2    0  502 -0.24436844263E+03  0.38480375352E+03  0.54917030499E+03  0.71370714467E+03  0.00000000000E+00 0. -1.
</event>
<event>
 5    1  0.4866530E-005  0.1251168E+03  0.7818608E-02  0.1128619E+00
          4   -1    0    0  502    0 -0.00000000000E+00  0.00000000000E+00  0.12979890513E+03  0.12979890513E+03  0.00000000000E+00 0.  1.
         21   -1    0    0  501  502  0.00000000000E+00 -0.00000000000E+00 -0.36372818093E+03  0.36372818093E+03  0.00000000000E+00 0. -1.
        -13    1    1    2    0    0  0.75503249399E+02  0.10354603222E+03  0.79767953682E+02  0.15094853115E+03  0.10566000000E+00 0.  1.
         13    1    1    2    0    0 -0.51169406247E+02 -0.93868803249E+02 -0.21027601440E+03  0.23589335250E+03  0.10566000000E+00 0. -1.
          4    1    1    2  501    0 -0.24333843152E+02 -0.96772289718E+01 -0.10342121508E+03  0.10668520241E+03  0.00000000000E+00 0.  1.
</event>
<event>
 5    1  0.4866530E-005  0.2546234E+03  0.7818608E-02  0.1028024E+00
         -4   -1    0    0    0  501 -0.00000000000E+00  0.00000000000E+00  0.12976788445E+04  0.12976788445E+04  0.00000000000E+00 0. -1.
         21   -1    0    0  501  502  0.00000000000E+00 -0.00000000000E+00 -0.36010833270E+03  0.36010833270E+03  0.00000000000E+00 0.  1.
        -13    1    1    2    0    0 -0.17771055432E+03 -0.19724434358E+03  0.40793214745E+02  0.26860839474E+03  0.10566000000E+00 0.  1.
         13    1    1    2    0    0  0.19999927293E+03  0.15612234335E+03  0.11265120246E+04  0.11547308119E+04  0.10566000000E+00 0. -1.
         -4    1    1    2    0  502 -0.22288718617E+02  0.41122000227E+02 -0.22973472751E+03  0.23444797057E+03  0.00000000000E+00 0. -1.
</event>
<event>
 5    1  0.4866530E-005  0.3796149E+03  0.7818608E-02  0.9789837E-01
         -4   -1    0    0    0  501 -0.00000000000E+00  0.00000000000E+00  0.18948490657E+04  0.18948490657E+04  0.00000000000E+00 0. -1.
         21   -1    0    0  501  502  0.00000000000E+00 -0.00000000000E+00 -0.34617076738E+03  0.34617076738E+03  0.00000000000E+00 0.  1.
        -13    1    1    2    0    0  0.33144701726E+03  0.37129559978E+03  0.45585900317E+03  0.67492591416E+03  0.10566000000E+00 0.  1.
         13    1    1    2    0    0 -0.33280627112E+02 -0.36704027372E+03  0.11952623668E+04  0.12507910694E+04  0.10566000000E+00 0. -1.
         -4    1    1    2    0  502 -0.29816639015E+03 -0.42553260607E+01 -0.10244307162E+03  0.31530284955E+03  0.00000000000E+00 0. -1.
</event>
<event>
 5    1  0.4866530E-005  0.5095579E+03  0.7818608E-02  0.9457266E-01
          4   -1    0    0  502    0 -0.00000000000E+00  0.00000000000E+00  0.64079959914E+03  0.64079959914E+03  0.00000000000E+00 0.  1.
         21   -1    0    0  501  502  0.00000000000E+00 -0.00000000000E+00 -0.14047891195E+04  0.14047891195E+04  0.00000000000E+00 0. -1.
        -13    1    1    2    0    0  0.52675127342E+02  0.59904225846E+03 -0.10443519993E+04  0.12051130263E+04  0.10566000000E+00 0.  1.
         13    1    1    2    0    0 -0.27398089555E+03 -0.42409592164E+03  0.22604647496E+03  0.55319065600E+03  0.10566000000E+00 0. -1.
          4    1    1    2  501    0  0.22130576821E+03 -0.17494633682E+03  0.54316004037E+02  0.28728503633E+03  0.00000000000E+00 0.  1.
</event>
<event>
 5    1  0.4866530E-005  0.1414571E+03  0.7818608E-02  0.1109856E+00
          4   -1    0    0  502    0 -0.00000000000E+00  0.00000000000E+00  0.36397287657E+03  0.36397287657E+03  0.00000000000E+00 0.  1.
         21   -1    0    0  501  502  0.00000000000E+00 -0.00000000000E+00 -0.28070173936E+03  0.28070173936E+03  0.00000000000E+00 0.  1.
        -13    1    1    2    0    0  0.11842316554E+03  0.74528929501E+02  0.29774168160E+03  0.32898134840E+03  0.10566000000E+00 0.  1.
         13    1    1    2    0    0 -0.11954403276E+03 -0.97397607329E+02 -0.69866762853E+02  0.16928805450E+03  0.10566000000E+00 0. -1.
          4    1    1    2  501    0  0.11208672162E+01  0.22868677829E+02 -0.14460378153E+03  0.14640521303E+03  0.00000000000E+00 0.  1.
</event>
<event>
 5    1  0.4866530E-005  0.4896656E+03  0.7818608E-02  0.9818819E-01
         21   -1    0    0  501  502  0.00000000000E+00  0.00000000000E+00  0.12440747470E+04  0.12440747470E+04  0.00000000000E+00 0. -1.
         -4   -1    0    0    0  501 -0.00000000000E+00 -0.00000000000E+00 -0.30149570368E+03  0.30149570368E+03  0.00000000000E+00 0. -1.
        -13    1    1    2    0    0  0.14424333543E+03  0.69765055212E+02 -0.11425153075E+01  0.16023301548E+03  0.10566000000E+00 0.  1.
         13    1    1    2    0    0  0.41680337934E+03  0.95831093819E+02  0.43625149336E+03  0.61092064312E+03  0.10566000000E+00 0. -1.
         -4    1    1    2    0  502 -0.56104671477E+03 -0.16559614903E+03  0.50747006527E+03  0.77441679209E+03  0.00000000000E+00 0. -1.
</event>
<event>
 5    1  0.4866530E-005  0.3717347E+03  0.7818608E-02  0.9932500E-01
         21   -1    0    0  501  502  0.00000000000E+00  0.00000000000E+00  0.36719895904E+03  0.36719895904E+03  0.00000000000E+00 0. -1.
         -4   -1    0    0    0  501 -0.00000000000E+00 -0.00000000000E+00 -0.12191709596E+04  0.12191709596E+04  0.00000000000E+00 0. -1.
        -13    1    1    2    0    0 -0.19413934713E+03 -0.15733877670E+03 -0.38213227177E+03  0.45658587478E+03  0.10566000000E+00 0.  1.
         13    1    1    2    0    0  0.52474563787E+03  0.21101844674E+03 -0.54618201758E+03  0.78625795819E+03  0.10566000000E+00 0. -1.
         -4    1    1    2    0  502 -0.33060629074E+03 -0.53679670040E+02  0.76342288813E+02  0.34352608564E+03  0.00000000000E+00 0. -1.
</event>
<event>
 5    1  0.4866530E-005  0.1904606E+03  0.7818608E-02  0.1066880E+00
         -4   -1    0    0    0  501 -0.00000000000E+00  0.00000000000E+00  0.11911438135E+03  0.11911438135E+03  0.00000000000E+00 0. -1.
         21   -1    0    0  501  502  0.00000000000E+00 -0.00000000000E+00 -0.62517822721E+03  0.62517822721E+03  0.00000000000E+00 0.  1.
        -13    1    1    2    0    0 -0.71435592936E+02 -0.15097232938E+03 -0.22342877547E+03  0.27895540334E+03  0.10566000000E+00 0.  1.
         13    1    1    2    0    0 -0.18543131007E+02  0.21238916822E+03 -0.66548510129E+02  0.22334216317E+03  0.10566000000E+00 0. -1.
         -4    1    1    2    0  502  0.89978723943E+02 -0.61416838835E+02 -0.21608656026E+03  0.24199504205E+03  0.00000000000E+00 0. -1.
</event>
<event>
 5    1  0.4866530E-005  0.1004042E+04  0.7818608E-02  0.8770803E-01
         21   -1    0    0  501  502  0.00000000000E+00  0.00000000000E+00  0.98050333783E+03  0.98050333783E+03  0.00000000000E+00 0.  1.
          4   -1    0    0  502    0 -0.00000000000E+00 -0.00000000000E+00 -0.29026520677E+04  0.29026520677E+04  0.00000000000E+00 0.  1.
        -13    1    1    2    0    0  0.82116985517E+03  0.51424579461E+03 -0.42274011021E+03  0.10571082633E+04  0.10566000000E+00 0.  1.
         13    1    1    2    0    0 -0.98572458185E+03 -0.29178805305E+03 -0.20030242826E+04  0.22514216636E+04  0.10566000000E+00 0. -1.
          4    1    1    2  501    0  0.16455472668E+03 -0.22245774156E+03  0.50361566295E+03  0.57462547874E+03  0.00000000000E+00 0.  1.
</event>
<event>
 5    1  0.4866530E-005  0.1031035E+03  0.7818608E-02  0.1159520E+00
          4   -1    0    0  502    0 -0.00000000000E+00  0.00000000000E+00  0.32346791949E+03  0.32346791949E+03  0.00000000000E+00 0.  1.
         21   -1    0    0  501  502  0.00000000000E+00 -0.00000000000E+00 -0.24237894363E+03  0.24237894363E+03  0.00000000000E+00 0. -1.
        -13    1    1    2    0    0 -0.10147392984E+03  0.82595033370E+01  0.27958119246E+03  0.29754131171E+03  0.10566000000E+00 0.  1.
         13    1    1    2    0    0  0.11697316226E+03 -0.12123068447E+02 -0.66000911923E+02  0.13485481459E+03  0.10566000000E+00 0. -1.
          4    1    1    2  501    0 -0.15499232423E+02  0.38635651103E+01 -0.13249130468E+03  0.13345073682E+03  0.00000000000E+00 0.  1.
</event>
<event>
 5    1  0.4866530E-005  0.7111929E+02  0.7818608E-02  0.1237784E+00
         -4   -1    0    0    0  501 -0.00000000000E+00  0.00000000000E+00  0.34959848961E+03  0.34959848961E+03  0.00000000000E+00 0. -1.
         21   -1    0    0  501  502  0.00000000000E+00 -0.00000000000E+00 -0.63859848692E+02  0.63859848692E+02  0.00000000000E+00 0. -1.
        -13    1    1    2    0    0 -0.30019021104E+02  0.43163158615E+02  0.17097112001E+03  0.17887239846E+03  0.10566000000E+00 0.  1.
         13    1    1    2    0    0 -0.21316918481E+02 -0.90165103362E+02  0.13350539356E+03  0.16250494808E+03  0.10566000000E+00 0. -1.
         -4    1    1    2    0  502  0.51335939585E+02  0.47001944747E+02 -0.18737872642E+02  0.72080991768E+02  0.00000000000E+00 0. -1.
</event>
<event>
 5    1  0.4866530E-005  0.2268255E+02  0.7818608E-02  0.1501619E+00
          4   -1    0    0  502    0 -0.00000000000E+00  0.00000000000E+00  0.20200202500E+02  0.20200202500E+02  0.00000000000E+00 0.  1.
         21   -1    0    0  501  502  0.00000000000E+00 -0.00000000000E+00 -0.84967044476E+02  0.84967044476E+02  0.00000000000E+00 0.  1.
        -13    1    1    2    0    0  0.10071602205E+01  0.12489873805E+02  0.11438003397E+02  0.16966154695E+02  0.10566000000E+00 0.  1.
         13    1    1    2    0    0 -0.89724643619E+01  0.12569901548E+02 -0.43958725947E+02  0.46592792281E+02  0.10566000000E+00 0. -1.
          4    1    1    2  501    0  0.79653041414E+01 -0.25059775354E+02 -0.32246119426E+02  0.41608300000E+02  0.00000000000E+00 0.  1.
</event>
<event>
 5    1  0.4866530E-005  0.4831627E+03  0.7818608E-02  0.9756396E-01
         21   -1    0    0  501  502  0.00000000000E+00  0.00000000000E+00  0.17032223218E+04  0.17032223218E+04  0.00000000000E+00 0.  1.
          4   -1    0    0  502    0 -0.00000000000E+00 -0.00000000000E+00 -0.22803298887E+03  0.22803298887E+03  0.00000000000E+00 0.  1.
        -13    1    1    2    0    0 -0.52388297285E+03 -0.96353404941E+02  0.10516521187E+04  0.11788594224E+04  0.10566000000E+00 0.  1.
         13    1    1    2    0    0  0.11549475190E+03  0.17119435566E+03  0.14889016500E+03  0.25458758321E+03  0.10566000000E+00 0. -1.
          4    1    1    2  501    0  0.40838822095E+03 -0.74840950716E+02  0.27464704920E+03  0.49780830502E+03  0.00000000000E+00 0.  1.
</event>
<event>
 5    1  0.4866530E-005  0.4989093E+03  0.7818608E-02  0.9848531E-01
         21   -1    0    0  501  502  0.00000000000E+00  0.00000000000E+00  0.27192779062E+03  0.27192779062E+03  0.00000000000E+00 0. -1.
         -4   -1    0    0    0  501 -0.00000000000E+00 -0.00000000000E+00 -0.15922851403E+04  0.15922851403E+04  0.00000000000E+00 0. -1.
        -13    1    1    2    0    0  0.38792459428E+02 -0.13136016920E+03 -0.61775423247E+03  0.63275639219E+03  0.10566000000E+00 0.  1.
         13    1    1    2    0    0 -0.48962715671E+03  0.24334329988E+03 -0.38622789237E+03  0.66941968165E+03  0.10566000000E+00 0. -1.
         -4    1    1    2    0  502  0.45083469728E+03 -0.11198313067E+03 -0.31637522485E+03  0.56203685709E+03  0.00000000000E+00 0. -1.
</event>
<event>
 5    1  0.4866530E-005  0.4950589E+03  0.7818608E-02  0.9575464E-01
         21   -1    0    0  501  502  0.00000000000E+00  0.00000000000E+00  0.31398074041E+03  0.31398074041E+03  0.00000000000E+00 0. -1.
         -4   -1    0    0    0  501 -0.00000000000E+00 -0.00000000000E+00 -0.16303776344E+04  0.16303776344E+04  0.00000000000E+00 0. -1.
        -13    1    1    2    0    0 -0.26025891144E+03 -0.25188681121E+03 -0.22729014680E+03  0.42760085201E+03  0.10566000000E+00 0.  1.
         13    1    1    2    0    0  0.17528264402E+03 -0.37317839850E+03 -0.54720308169E+03  0.68514038428E+03  0.10566000000E+00 0. -1.
         -4    1    1    2    0  502  0.84976267415E+02  0.62506520971E+03 -0.54190366553E+03  0.83161713855E+03  0.00000000000E+00 0. -1.
</event>
<event>
 5    1  0.4866530E-005  0.3079972E+03  0.7818608E-02  0.1006773E+00
          4   -1    0    0  502    0 -0.00000000000E+00  0.00000000000E+00  0.26424838011E+04  0.26424838011E+04  0.00000000000E+00 0.  1.
         21   -1    0    0  501  502  0.00000000000E+00 -0.00000000000E+00 -0.17434822200E+03  0.17434822200E+03  0.00000000000E+00 0. -1.
        -13    1    1    2    0    0  0.36565223092E+03  0.24058657416E+03  0.20306455453E+04  0.20772830321E+04  0.10566000000E+00 0.  1.
         13    1    1    2    0    0 -0.64635243585E+02 -0.27453784590E+03  0.28282789844E+03  0.39942505536E+03  0.10566000000E+00 0. -1.
          4    1    1    2  501    0 -0.30101698733E+03  0.33951271741E+02  0.15466213543E+03  0.34012393572E+03  0.00000000000E+00 0.  1.
</event>
<event>
 5    1  0.4866530E-005  0.1665821E+03  0.7818608E-02  0.1094744E+00
         21   -1    0    0  501  502  0.00000000000E+00  0.00000000000E+00  0.18102994031E+04  0.18102994031E+04  0.00000000000E+00 0. -1.
         -4   -1    0    0    0  501 -0.00000000000E+00 -0.00000000000E+00 -0.40852746404E+03  0.40852746404E+03  0.00000000000E+00 0. -1.
        -13    1    1    2    0    0 -0.18135543735E+02 -0.12895577956E+03 -0.22639867113E+03  0.26117974746E+03  0.10566000000E+00 0.  1.
         13    1    1    2    0    0  0.18427364496E+03  0.12637593082E+03 -0.83048993708E+02  0.23837952647E+03  0.10566000000E+00 0. -1.
         -4    1    1    2    0  502 -0.16613810123E+03  0.25798487467E+01  0.17112196039E+04  0.17192675932E+04  0.00000000000E+00 0. -1.
</event>
<event>
 5    1  0.9059373E-005  0.1928859E+03  0.7818608E-02  0.1098785E+00
          4   -1    0    0  502    0 -0.00000000000E+00  0.00000000000E+00  0.23497535377E+03  0.23497535377E+03  0.00000000000E+00 0.  1.
         21   -1    0    0  501  502  0.00000000000E+00 -0.00000000000E+00 -0.14168981351E+04  0.14168981351E+04  0.00000000000E+00 0.  1.
        -13    1    1    2    0    0  0.56242141312E+01 -0.25394633272E+03  0.82879357746E+02  0.26718789417E+03  0.10566000000E+00 0.  1.
         13    1    1    2    0    0  0.33292137654E+02  0.67357058630E+02  0.26288152629E+02  0.79601620019E+02  0.10566000000E+00 0. -1.
          4    1    1    2  501    0 -0.38916351785E+02  0.18658927409E+03 -0.12910902917E+04  0.13050839747E+04  0.00000000000E+00 0.  1.
</event>
<event>
 5    1  0.4866530E-005  0.9226251E+02  0.7818608E-02  0.1178034E+00
         21   -1    0    0  501  502  0.00000000000E+00  0.00000000000E+00  0.42430304616E+02  0.42430304616E+02  0.00000000000E+00 0.  1.
         -4   -1    0    0    0  501 -0.00000000000E+00 -0.00000000000E+00 -0.25094076732E+03  0.25094076732E+03  0.00000000000E+00 0. -1.
        -13    1    1    2    0    0  0.94057870288E+02  0.31839716660E+02 -0.98910473336E+02  0.14015685292E+03  0.10566000000E+00 0.  1.
         13    1    1    2    0    0 -0.79513126221E+02 -0.35680483491E+02 -0.10691075877E+03  0.13793243146E+03  0.10566000000E+00 0. -1.
         -4    1    1    2    0  502 -0.14544744067E+02  0.38407668309E+01 -0.26892305997E+01  0.15281787560E+02  0.00000000000E+00 0. -1.
</event>
<event>
 5    1  0.4866530E-005  0.3989695E+03  0.7818608E-02  0.9751476E-01
          4   -1    0    0  502    0 -0.00000000000E+00  0.00000000000E+00  0.61626900009E+03  0.61626900009E+03  0.00000000000E+00 0.  1.
         21   -1    0    0  501  502  0.00000000000E+00 -0.00000000000E+00 -0.10068849569E+04  0.10068849569E+04  0.00000000000E+00 0.  1.
        -13    1    1    2    0    0  0.19978660237E+03  0.15927236049E+03  0.19591465546E+03  0.32197039412E+03  0.10566000000E+00 0.  1.
         13    1    1    2    0    0 -0.22458753473E+03  0.29786837254E+03  0.17545020970E+03  0.41224739582E+03  0.10566000000E+00 0. -1.
          4    1    1    2  501    0  0.24800932367E+02 -0.45714073303E+03 -0.76198082193E+03  0.88893616701E+03  0.00000000000E+00 0.  1.
</event>
<event>
 5    1  0.4866530E-005  0.5568571E+03  0.7818608E-02  0.9361363E-01
          4   -1    0    0  502    0 -0.00000000000E+00  0.00000000000E+00  0.72859052091E+03  0.72859052091E+03  0.00000000000E+00 0.  1.
         21   -1    0    0  501  502  0.00000000000E+00 -0.00000000000E+00 -0.96678829124E+03  0.96678829124E+03  0.00000000000E+00 0. -1.
        -13    1    1    2    0    0 -0.13914361782E+02  0.63052850555E+03  0.16010146203E+03  0.65068601881E+03  0.10566000000E+00 0.  1.
         13    1    1    2    0    0 -0.28734982128E+03 -0.44244330808E+03 -0.23118666591E+02  0.52807242360E+03  0.10566000000E+00 0. -1.
          4    1    1    2  501    0  0.30126418306E+03 -0.18808519747E+03 -0.37518056577E+03  0.51662036975E+03  0.00000000000E+00 0.  1.
</event>
<event>
 5    1  0.4866530E-005  0.4497871E+03  0.7818608E-02  0.9921332E-01
         21   -1    0    0  501  502  0.00000000000E+00  0.00000000000E+00  0.18792687719E+03  0.18792687719E+03  0.00000000000E+00 0.  1.
          4   -1    0    0  502    0 -0.00000000000E+00 -0.00000000000E+00 -0.20322642862E+04  0.20322642862E+04  0.00000000000E+00 0.  1.
        -13    1    1    2    0    0  0.32026810819E+03 -0.33149068335E+03 -0.27058974655E+03  0.53448719009E+03  0.10566000000E+00 0.  1.
         13    1    1    2    0    0 -0.13164908016E+03 -0.64062155758E+02 -0.60476560947E+03  0.62223540053E+03  0.10566000000E+00 0. -1.
          4    1    1    2  501    0 -0.18861902803E+03  0.39555283910E+03 -0.96898205300E+03  0.10634685728E+04  0.00000000000E+00 0.  1.
</event>
<event>
 5    1  0.4866530E-005  0.4874944E+03  0.7818608E-02  0.9505811E-01
         -4   -1    0    0    0  501 -0.00000000000E+00  0.00000000000E+00  0.22661647860E+03  0.22661647860E+03  0.00000000000E+00 0. -1.
         21   -1    0    0  501  502  0.00000000000E+00 -0.00000000000E+00 -0.14179860066E+04  0.14179860066E+04  0.00000000000E+00 0.  1.
        -13    1    1    2    0    0 -0.75502955262E+01  0.48593677567E+03 -0.86520623137E+03  0.99235749147E+03  0.10566000000E+00 0.  1.
         13    1    1    2    0    0  0.55113128285E+02 -0.48565597846E+03 -0.22017770289E+03  0.53607594456E+03  0.10566000000E+00 0. -1.
         -4    1    1    2    0  502 -0.47562832759E+02 -0.28079720478E+00 -0.10598559376E+03  0.11616904920E+03  0.00000000000E+00 0. -1.
</event>
<event>
 5    1  0.4866530E-005  0.3074244E+03  0.7818608E-02  0.1004287E+00
          4   -1    0    0  502    0 -0.00000000000E+00  0.00000000000E+00  0.26064387449E+04  0.26064387449E+04  0.00000000000E+00 0.  1.
         21   -1    0    0  501  502  0.00000000000E+00 -0.00000000000E+00 -0.20253321076E+03  0.20253321076E+03  0.00000000000E+00 0.  1.
        -13    1    1    2    0    0 -0.26328552849E+03 -0.41019998476E+03  0.17189657934E+03  0.51684789075E+03  0.10566000000E+00 0.  1.
         13    1    1    2    0    0  0.21206403600E+03  0.19487126699E+03  0.10112573170E+04  0.10514691334E+04  0.10566000000E+00 0. -1.
          4    1    1    2  501    0  0.51221492491E+02  0.21532871777E+03  0.12207516377E+04  0.12406549315E+04  0.00000000000E+00 0.  1.
</event>
<event>
 5    1  0.4866530E-005  0.4747206E+03  0.7818608E-02  0.9636436E-01
         21   -1    0    0  501  502  0.00000000000E+00  0.00000000000E+00  0.92513740429E+03  0.92513740429E+03  0.00000000000E+00 0. -1.
         -4   -1    0    0    0  501 -0.00000000000E+00 -0.00000000000E+00 -0.56894405146E+03  0.56894405146E+03  0.00000000000E+00 0. -1.
        -13    1    1    2    0    0  0.27389984892E+03 -0.18542157502E+03 -0.10221884372E+03  0.34619501859E+03  0.10566000000E+00 0.  1.
         13    1    1    2    0    0 -0.55001729642E+03 -0.69218073293E+02  0.52836414826E+03  0.76581907287E+03  0.10566000000E+00 0. -1.
         -4    1    1    2    0  502  0.27611744751E+03  0.25463964831E+03 -0.69951951706E+02  0.38206736429E+03  0.00000000000E+00 0. -1.
</event>
<event>
 5    1  0.4866530E-005  0.4045584E+03  0.7818608E-02  0.9717455E-01
         -4   -1    0    0    0  501 -0.00000000000E+00  0.00000000000E+00  0.22988574495E+04  0.22988574495E+04  0.00000000000E+00 0. -1.
         21   -1    0    0  501  502  0.00000000000E+00 -0.00000000000E+00 -0.29610130763E+03  0.29610130763E+03  0.00000000000E+00 0.  1.
        -13    1    1    2    0    0  0.20272075852E+03  0.35130640456E+03  0.11384242352E+03  0.42127426265E+03  0.10566000000E+00 0.  1.
         13    1    1    2    0    0  0.35693593268E+03 -0.11619721710E+02  0.34433685231E+03  0.49609087574E+03  0.10566000000E+00 0. -1.
         -4    1    1    2    0  502 -0.55965669120E+03 -0.33968668285E+03  0.15445768661E+04  0.16775936187E+04  0.00000000000E+00 0. -1.
</event>
<event>
 5    1  0.4866530E-005  0.3634225E+03  0.7818608E-02  0.1021661E+00
          4   -1    0    0  502    0 -0.00000000000E+00  0.00000000000E+00  0.25277350919E+04  0.25277350919E+04  0.00000000000E+00 0.  1.
         21   -1    0    0  501  502  0.00000000000E+00 -0.00000000000E+00 -0.12848309640E+03  0.12848309640E+03  0.00000000000E+00 0.  1.
        -13    1    1    2    0    0  0.34310354798E+03 -0.12054710571E+03  0.22168173749E+03  0.42590427708E+03  0.10566000000E+00 0.  1.
         13    1    1    2    0    0  0.31606506421E+02  0.10203175009E+03  0.45720704691E+03  0.46951863028E+03  0.10566000000E+00 0. -1.
          4    1    1    2  501    0 -0.37471005440E+03  0.18515355623E+02  0.17203632111E+04  0.17607952809E+04  0.00000000000E+00 0.  1.
</event>
<event>
 5    1  0.4866530E-005  0.2574023E+03  0.7818608E-02  0.1026627E+00
         21   -1    0    0  501  502  0.00000000000E+00  0.00000000000E+00  0.13586082338E+04  0.13586082338E+04  0.00000000000E+00 0.  1.
         -4   -1    0    0    0  501 -0.00000000000E+00 -0.00000000000E+00 -0.65693445330E+02  0.65693445330E+02  0.00000000000E+00 0. -1.
        -13    1    1    2    0    0  0.17797188717E+03  0.21546151518E+03  0.69829228785E+03  0.75213681440E+03  0.10566000000E+00 0.  1.
         13    1    1    2    0    0 -0.15573525859E+03 -0.18941028205E+03  0.36324205731E+03  0.43826308203E+03  0.10566000000E+00 0. -1.
         -4    1    1    2    0  502 -0.22236628585E+02 -0.26051233133E+02  0.23138044330E+03  0.23390178268E+03  0.00000000000E+00 0. -1.
</event>
<event>
 5    1  0.4866530E-005  0.1765486E+03  0.7818608E-02  0.1077522E+00
         21   -1    0    0  501  502  0.00000000000E+00  0.00000000000E+00  0.28004573744E+03  0.28004573744E+03  0.00000000000E+00 0.  1.
         -4   -1    0    0    0  501 -0.00000000000E+00 -0.00000000000E+00 -0.22835815014E+03  0.22835815014E+03  0.00000000000E+00 0. -1.
        -13    1    1    2    0    0 -0.13985282440E+03  0.84823694281E+02  0.16746440771E+03  0.23409017625E+03  0.10566000000E+00 0.  1.
         13    1    1    2    0    0  0.15431791299E+03 -0.91167017695E+02 -0.15186385576E+03  0.23492144482E+03  0.10566000000E+00 0. -1.
         -4    1    1    2    0  502 -0.14465088594E+02  0.63433234136E+01  0.36087035351E+02  0.39392266504E+02  0.00000000000E+00 0. -1.
</event>
<event>
 5    1  0.4866530E-005  0.4992864E+03  0.7818608E-02  0.9868874E-01
         21   -1    0    0  501  502  0.00000000000E+00  0.00000000000E+00  0.25654690020E+03  0.25654690020E+03  0.00000000000E+00 0. -1.
         -4   -1    0    0    0  501 -0.00000000000E+00 -0.00000000000E+00 -0.12821275022E+04  0.12821275022E+04  0.00000000000E+00 0. -1.
        -13    1    1    2    0    0 -0.12465006272E+03 -0.27251308414E+02 -0.19527375246E+03  0.23326405962E+03  0.10566000000E+00 0.  1.
         13    1    1    2    0    0  0.30474523531E+03 -0.42210631633E+03 -0.38337889126E+03  0.64654681668E+03  0.10566000000E+00 0. -1.
         -4    1    1    2    0  502 -0.18009517259E+03  0.44935762475E+03 -0.44692795825E+03  0.65886352606E+03  0.00000000000E+00 0. -1.
</event>
<event>
 5    1  0.4866530E-005  0.5660590E+02  0.7818608E-02  0.1267005E+00
         21   -1    0    0  501  502  0.00000000000E+00  0.00000000000E+00  0.22646719226E+03  0.22646719226E+03  0.00000000000E+00 0. -1.
          4   -1    0    0  502    0 -0.00000000000E+00 -0.00000000000E+00 -0.19154045814E+02  0.19154045814E+02  0.00000000000E+00 0.  1.
        -13    1    1    2    0    0  0.64374338052E+02 -0.52794689646E+01  0.85213432075E+02  0.10692646240E+03  0.10566000000E+00 0.  1.
         13    1    1    2    0    0 -0.49227251709E+02  0.27202710361E+01  0.81081889611E+02  0.94894710981E+02  0.10566000000E+00 0. -1.
          4    1    1    2  501    0 -0.15147086343E+02  0.25591979285E+01  0.41017824761E+02  0.43800064690E+02  0.00000000000E+00 0.  1.
</event>
<event>
 5    1  0.4866530E-005  0.4858311E+03  0.7818608E-02  0.9509580E-01
          4   -1    0    0  502    0 -0.00000000000E+00  0.00000000000E+00  0.29779103199E+04  0.29779103199E+04  0.00000000000E+00 0.  1.
         21   -1    0    0  501  502  0.00000000000E+00 -0.00000000000E+00 -0.18952152138E+03  0.18952152138E+03  0.00000000000E+00 0.  1.
        -13    1    1    2    0    0  0.66391207173E+03  0.25784080736E+03  0.14014004261E+04  0.15720000911E+04  0.10566000000E+00 0.  1.
         13    1    1    2    0    0 -0.39012394759E+03  0.29227472370E+00  0.89261277352E+03  0.97414288198E+03  0.10566000000E+00 0. -1.
          4    1    1    2  501    0 -0.27378812414E+03 -0.25813308209E+03  0.49437559892E+03  0.62128886824E+03  0.00000000000E+00 0.  1.
</event>
<event>
 5    1  0.4866530E-005  0.1838654E+03  0.7818608E-02  0.1117838E+00
         21   -1    0    0  501  502  0.00000000000E+00  0.00000000000E+00  0.30850320220E+03  0.30850320220E+03  0.00000000000E+00 0.  1.
          4   -1    0    0  502    0 -0.00000000000E+00 -0.00000000000E+00 -0.17877148796E+04  0.17877148796E+04  0.00000000000E+00 0.  1.
        -13    1    1    2    0    0 -0.95381565502E+02  0.19962351582E+02  0.22536011202E+03  0.24552663760E+03  0.10566000000E+00 0.  1.
         13    1    1    2    0    0 -0.11389358334E+03 -0.32583983586E+03 -0.71398583457E+03  0.79304421698E+03  0.10566000000E+00 0. -1.
          4    1    1    2  501    0  0.20927514885E+03  0.30587748427E+03 -0.99058595480E+03  0.10576472272E+04  0.00000000000E+00 0.  1.
</event>
<event>
 5    1  0.4866530E-005  0.9344563E+02  0.7818608E-02  0.1175880E+00
         21   -1    0    0  501  502  0.00000000000E+00  0.00000000000E+00  0.16084566460E+03  0.16084566460E+03  0.00000000000E+00 0.  1.
         -4   -1    0    0    0  501 -0.00000000000E+00 -0.00000000000E+00 -0.67219393778E+02  0.67219393778E+02  0.00000000000E+00 0. -1.
        -13    1    1    2    0    0 -0.96887052061E+02 -0.13385172352E+01  0.35457445279E+02  0.10318010504E+03  0.10566000000E+00 0.  1.
         13    1    1    2    0    0  0.89808099812E+02  0.11520943712E+02  0.32186535934E+02  0.96094803165E+02  0.10566000000E+00 0. -1.
         -4    1    1    2    0  502  0.70789522490E+01 -0.10182426477E+02  0.25982289606E+02  0.28790150175E+02  0.00000000000E+00 0. -1.
</event>
<event>
 5    1  0.4866530E-005  0.8477306E+02  0.7818608E-02  0.1192549E+00
         21   -1    0    0  501  502  0.00000000000E+00  0.00000000000E+00  0.54321714291E+02  0.54321714291E+02  0.00000000000E+00 0.  1.
         -4   -1    0    0    0  501 -0.00000000000E+00 -0.00000000000E+00 -0.45966429445E+03  0.45966429445E+03  0.00000000000E+00 0. -1.
        -13    1    1    2    0    0  0.52537161931E+02  0.34960945938E+02  0.28494248618E+01  0.63170812174E+02  0.10566000000E+00 0.  1.
         13    1    1    2    0    0 -0.53250274015E+02 -0.70510085731E+02 -0.40565717700E+03  0.41516866487E+03  0.10566000000E+00 0. -1.
         -4    1    1    2    0  502  0.71311208463E+00  0.35549139794E+02 -0.25348280171E+01  0.35646531696E+02  0.00000000000E+00 0. -1.
</event>
<event>
 5    1  0.4866530E-005  0.1996541E+03  0.7818608E-02  0.1060373E+00
         21   -1    0    0  501  502  0.00000000000E+00  0.00000000000E+00  0.55510675115E+03  0.55510675115E+03  0.00000000000E+00 0. -1.
          4   -1    0    0  502    0 -0.00000000000E+00 -0.00000000000E+00 -0.14467922176E+03  0.14467922176E+03  0.00000000000E+00 0.  1.
        -13    1    1    2    0    0  0.12773422327E+03 -0.15229269792E+03  0.18383318433E+03  0.27074664995E+03  0.10566000000E+00 0.  1.
         13    1    1    2    0    0 -0.13930384998E+03  0.14378038907E+03 -0.17898976512E+01  0.20020384062E+03  0.10566000000E+00 0. -1.
          4    1    1    2  501    0  0.11569626707E+02  0.85123088439E+01  0.22838424271E+03  0.22883548235E+03  0.00000000000E+00 0.  1.
</event>
<event>
 5    1  0.4866530E-005  0.4547070E+03  0.7818608E-02  0.9795153E-01
          4   -1    0    0  502    0 -0.00000000000E+00  0.00000000000E+00  0.82314395218E+03  0.82314395218E+03  0.00000000000E+00 0.  1.
         21   -1    0    0  501  502  0.00000000000E+00 -0.00000000000E+00 -0.55435790213E+03  0.55435790213E+03  0.00000000000E+00 0.  1.
        -13    1    1    2    0    0  0.27765209502E+03  0.18725373802E+03  0.25775235740E+03  0.42260020963E+03  0.10566000000E+00 0.  1.
         13    1    1    2    0    0  0.43833066277E+02  0.21243753345E+03  0.29688986672E+03  0.36768824762E+03  0.10566000000E+00 0. -1.
          4    1    1    2  501    0 -0.32148516130E+03 -0.39969127147E+03 -0.28585617406E+03  0.58721339705E+03  0.00000000000E+00 0.  1.
</event>
<event>
 5    1  0.4866530E-005  0.9385926E+02  0.7818608E-02  0.1175136E+00
         21   -1    0    0  501  502  0.00000000000E+00  0.00000000000E+00  0.71963411492E+03  0.71963411492E+03  0.00000000000E+00 0.  1.
          4   -1    0    0  502    0 -0.00000000000E+00 -0.00000000000E+00 -0.29460814732E+02  0.29460814732E+02  0.00000000000E+00 0.  1.
        -13    1    1    2    0    0  0.10321490116E+03 -0.27383677694E+02  0.98576052040E+02  0.14532869925E+03  0.10566000000E+00 0.  1.
         13    1    1    2    0    0 -0.56906406433E+02  0.37941085622E+02  0.26271595540E+03  0.27147292582E+03  0.10566000000E+00 0. -1.
          4    1    1    2  501    0 -0.46308494728E+02 -0.10557407928E+02  0.32888129275E+03  0.33229330458E+03  0.00000000000E+00 0.  1.
</event>
<event>
 5    1  0.4866530E-005  0.5402553E+03  0.7818608E-02  0.9532193E-01
          4   -1    0    0  502    0 -0.00000000000E+00  0.00000000000E+00  0.20285623589E+04  0.20285623589E+04  0.00000000000E+00 0.  1.
         21   -1    0    0  501  502  0.00000000000E+00 -0.00000000000E+00 -0.26908260119E+03  0.26908260119E+03  0.00000000000E+00 0.  1.
        -13    1    1    2    0    0  0.16046346689E+02 -0.58122640575E+03  0.63103295672E+03  0.85807005751E+03  0.10566000000E+00 0.  1.
         13    1    1    2    0    0 -0.30180660065E+03  0.12204951692E+03  0.26063793453E+03  0.41703171684E+03  0.10566000000E+00 0. -1.
          4    1    1    2  501    0  0.28576025396E+03  0.45917688883E+03  0.86780886646E+03  0.10225431857E+04  0.00000000000E+00 0.  1.
</event>
<event>
 5    1  0.4866530E-005  0.4219751E+03  0.7818608E-02  0.1001112E+00
          4   -1    0    0  502    0 -0.00000000000E+00  0.00000000000E+00  0.33750248652E+04  0.33750248652E+04  0.00000000000E+00 0.  1.
         21   -1    0    0  501  502  0.00000000000E+00 -0.00000000000E+00 -0.96368592453E+02  0.96368592453E+02  0.00000000000E+00 0.  1.
        -13    1    1    2    0    0 -0.29709435937E+03 -0.27109171511E+03  0.61094508457E+03  0.73144356166E+03  0.10566000000E+00 0.  1.
         13    1    1    2    0    0  0.11947591905E+02 -0.13129230494E+03  0.55865843954E+03  0.57400320340E+03  0.10566000000E+00 0. -1.
          4    1    1    2  501    0  0.28514676747E+03  0.40238402004E+03  0.21090527487E+04  0.21659466926E+04  0.00000000000E+00 0.  1.
</event>
<event>
 5    1  0.4866530E-005  0.4541737E+03  0.7818608E-02  0.9777356E-01
         21   -1    0    0  501  502  0.00000000000E+00  0.00000000000E+00  0.50012344842E+03  0.50012344842E+03  0.00000000000E+00 0. -1.
         -4   -1    0    0    0  501 -0.00000000000E+00 -0.00000000000E+00 -0.13428548826E+04  0.13428548826E+04  0.00000000000E+00 0. -1.
        -13    1    1    2    0    0  0.16814706690E+03  0.15890347430E+03 -0.79083541784E+03  0.82398083687E+03  0.10566000000E+00 0.  1.
         13    1    1    2    0    0  0.21918211887E+01 -0.54928813824E+03 -0.17351257094E+03  0.57604590645E+03  0.10566000000E+00 0. -1.
         -4    1    1    2    0  502 -0.17033888809E+03  0.39038466395E+03  0.12161655466E+03  0.44295158766E+03  0.00000000000E+00 0. -1.
</event>
<event>
 5    1  0.4866530E-005  0.4255917E+03  0.7818608E-02  0.9936333E-01
         21   -1    0    0  501  502  0.00000000000E+00  0.00000000000E+00  0.14324561796E+04  0.14324561796E+04  0.00000000000E+00 0. -1.
         -4   -1    0    0    0  501 -0.00000000000E+00 -0.00000000000E+00 -0.28458208986E+03  0.28458208986E+03  0.00000000000E+00 0. -1.
        -13    1    1    2    0    0 -0.15698921711E+03  0.48851750734E+02 -0.25351747217E+02  0.16635753692E+03  0.10566000000E+00 0.  1.
         13    1    1    2    0    0 -0.17979537629E+03 -0.37768240304E+03  0.93245628123E+03  0.10219809697E+04  0.10566000000E+00 0. -1.
         -4    1    1    2    0  502  0.33678459340E+03  0.32883065230E+03  0.24076955575E+03  0.52869976283E+03  0.00000000000E+00 0. -1.
</event>
<event>
 5    1  0.4866530E-005  0.7040649E+03  0.7818608E-02  0.9117102E-01
         21   -1    0    0  501  502  0.00000000000E+00  0.00000000000E+00  0.37161185911E+03  0.37161185911E+03  0.00000000000E+00 0. -1.
          4   -1    0    0  502    0 -0.00000000000E+00 -0.00000000000E+00 -0.17095080175E+04  0.17095080175E+04  0.00000000000E+00 0.  1.
        -13    1    1    2    0    0 -0.73005723047E+02  0.71193555527E+03 -0.64698755599E+03  0.96476680044E+03  0.10566000000E+00 0.  1.
         13    1    1    2    0    0  0.14469267312E+03 -0.68072842280E+03 -0.74637510145E+03  0.10204915279E+04  0.10566000000E+00 0. -1.
          4    1    1    2  501    0 -0.71686950076E+02 -0.31207132470E+02  0.55466499030E+02  0.95861548302E+02  0.00000000000E+00 0.  1.
</event>
<event>
 5    1  0.4866530E-005  0.2478942E+03  0.7818608E-02  0.1031490E+00
         21   -1    0    0  501  502  0.00000000000E+00  0.00000000000E+00  0.20029918506E+03  0.20029918506E+03  0.00000000000E+00 0.  1.
         -4   -1    0    0    0  501 -0.00000000000E+00 -0.00000000000E+00 -0.11947342899E+04  0.11947342899E+04  0.00000000000E+00 0. -1.
        -13    1    1    2    0    0 -0.59027000311E+02 -0.22948951574E+03 -0.89586051069E+03  0.92666913749E+03  0.10566000000E+00 0.  1.
         13    1    1    2    0    0  0.94801843216E+02  0.33411100659E+03 -0.75628887105E+02  0.35543957845E+03  0.10566000000E+00 0. -1.
         -4    1    1    2    0  502 -0.35774842905E+02 -0.10462149085E+03 -0.22945707063E+02  0.11292475904E+03  0.00000000000E+00 0. -1.
</event>
<event>
 5    1  0.4866530E-005  0.6275195E+03  0.7818608E-02  0.9235325E-01
         21   -1    0    0  501  502  0.00000000000E+00  0.00000000000E+00  0.23046390957E+03  0.23046390957E+03  0.00000000000E+00 0. -1.
         -4   -1    0    0    0  501 -0.00000000000E+00 -0.00000000000E+00 -0.32849579159E+04  0.32849579159E+04  0.00000000000E+00 0. -1.
        -13    1    1    2    0    0  0.15304564264E+02 -0.50820658300E+03 -0.43616125615E+03  0.66988417896E+03  0.10566000000E+00 0.  1.
         13    1    1    2    0    0 -0.12370050952E+03  0.72497437726E+03 -0.12059913701E+04  0.14125526042E+04  0.10566000000E+00 0. -1.
         -4    1    1    2    0  502  0.10839594526E+03 -0.21676779426E+03 -0.14123413800E+04  0.14329850423E+04  0.00000000000E+00 0. -1.
</event>
<event>
 5    1  0.4866530E-005  0.3719333E+03  0.7818608E-02  0.1042844E+00
         21   -1    0    0  501  502  0.00000000000E+00  0.00000000000E+00  0.10529864673E+03  0.10529864673E+03  0.00000000000E+00 0. -1.
         -4   -1    0    0    0  501 -0.00000000000E+00 -0.00000000000E+00 -0.15323295809E+04  0.15323295809E+04  0.00000000000E+00 0. -1.
        -13    1    1    2    0    0  0.24738884275E+02 -0.45659964254E+02 -0.12626244160E+03  0.13652494297E+03  0.10566000000E+00 0.  1.
         13    1    1    2    0    0  0.10715230397E+03  0.37322212266E+03 -0.57277032520E+03  0.69198426693E+03  0.10566000000E+00 0. -1.
         -4    1    1    2    0  502 -0.13189118824E+03 -0.32756215841E+03 -0.72799816737E+03  0.80911901772E+03  0.00000000000E+00 0. -1.
</event>
<event>
 5    1  0.4866530E-005  0.4800876E+03  0.7818608E-02  0.1000301E+00
         21   -1    0    0  501  502  0.00000000000E+00  0.00000000000E+00  0.44234432349E+03  0.44234432349E+03  0.00000000000E+00 0.  1.
          4   -1    0    0  502    0 -0.00000000000E+00 -0.00000000000E+00 -0.68518470181E+03  0.68518470181E+03  0.00000000000E+00 0.  1.
        -13    1    1    2    0    0 -0.48064183847E+03  0.70051552496E+02 -0.23218531844E+03  0.53836217378E+03  0.10566000000E+00 0.  1.
         13    1    1    2    0    0  0.10827870528E+01 -0.91924310672E+02 -0.54897702371E+02  0.10707483462E+03  0.10566000000E+00 0. -1.
          4    1    1    2  501    0  0.47955905141E+03  0.21872758175E+02  0.44242642498E+02  0.48209201690E+03  0.00000000000E+00 0.  1.
</event>
<event>
 5    1  0.4866530E-005  0.6573194E+03  0.7818608E-02  0.9187303E-01
          4   -1    0    0  502    0 -0.00000000000E+00  0.00000000000E+00  0.25117526199E+04  0.25117526199E+04  0.00000000000E+00 0.  1.
         21   -1    0    0  501  502  0.00000000000E+00 -0.00000000000E+00 -0.39063419041E+03  0.39063419041E+03  0.00000000000E+00 0.  1.
        -13    1    1    2    0    0 -0.18398635917E+03 -0.75057430610E+03  0.65112075664E+03  0.10105300689E+04  0.10566000000E+00 0.  1.
         13    1    1    2    0    0  0.37201427243E+03  0.50860534148E+03  0.14543801510E+04  0.15850222860E+04  0.10566000000E+00 0. -1.
          4    1    1    2  501    0 -0.18802791326E+03  0.24196896462E+03  0.15617521813E+02  0.30683445535E+03  0.00000000000E+00 0.  1.
</event>
<event>
 5    1  0.4866530E-005  0.9007095E+03  0.7818608E-02  0.8873932E-01
         21   -1    0    0  501  502  0.00000000000E+00  0.00000000000E+00  0.37461645616E+03  0.37461645616E+03  0.00000000000E+00 0. -1.
         -4   -1    0    0    0  501 -0.00000000000E+00 -0.00000000000E+00 -0.32748446912E+04  0.32748446912E+04  0.00000000000E+00 0. -1.
        -13    1    1    2    0    0  0.79178655937E+03 -0.38186475053E+03 -0.12665060791E+04  0.15416822964E+04  0.10566000000E+00 0.  1.
         13    1    1    2    0    0 -0.68027687774E+03  0.65514486040E+03 -0.15239359898E+04  0.17928670700E+04  0.10566000000E+00 0. -1.
         -4    1    1    2    0  502 -0.11150968163E+03 -0.27328010986E+03 -0.10978616611E+03  0.31491178100E+03  0.00000000000E+00 0. -1.
</event>
<event>
 5    1  0.4866530E-005  0.2104855E+03  0.7818608E-02  0.1053176E+00
          4   -1    0    0  502    0 -0.00000000000E+00  0.00000000000E+00  0.42151752358E+03  0.42151752358E+03  0.00000000000E+00 0.  1.
         21   -1    0    0  501  502  0.00000000000E+00 -0.00000000000E+00 -0.18474311688E+03  0.18474311688E+03  0.00000000000E+00 0. -1.
        -13    1    1    2    0    0  0.13037681617E+03 -0.17181460709E+03  0.22839073122E+03  0.31413486064E+03  0.10566000000E+00 0.  1.
         13    1    1    2    0    0 -0.12128725199E+03  0.16179507827E+03  0.81318357443E+02  0.21794708364E+03  0.10566000000E+00 0. -1.
          4    1    1    2  501    0 -0.90895641829E+01  0.10019528816E+02 -0.72934681956E+02  0.74178696179E+02  0.00000000000E+00 0.  1.
</event>
<event>
 5    1  0.4866530E-005  0.3932288E+03  0.7818608E-02  0.9790739E-01
         -4   -1    0    0    0  501 -0.00000000000E+00  0.00000000000E+00  0.23538101893E+04  0.23538101893E+04  0.00000000000E+00 0. -1.
         21   -1    0    0  501  502  0.00000000000E+00 -0.00000000000E+00 -0.16417941224E+03  0.16417941224E+03  0.00000000000E+00 0. -1.
        -13    1    1    2    0    0 -0.29165866385E+03  0.17568326270E+03  0.62729112829E+03  0.71373913707E+03  0.10566000000E+00 0.  1.
         13    1    1    2    0    0  0.28364999564E+03  0.28771076507E+03  0.48358025219E+03  0.63014655108E+03  0.10566000000E+00 0. -1.
         -4    1    1    2    0  502  0.80086682138E+01 -0.46339402777E+03  0.10787593966E+04  0.11741039134E+04  0.00000000000E+00 0. -1.
</event>
<event>
 5    1  0.4866530E-005  0.1306690E+03  0.7818608E-02  0.1121912E+00
          4   -1    0    0  502    0 -0.00000000000E+00  0.00000000000E+00  0.51082948550E+02  0.51082948550E+02  0.00000000000E+00 0.  1.
         21   -1    0    0  501  502  0.00000000000E+00 -0.00000000000E+00 -0.58986235357E+03  0.58986235357E+03  0.00000000000E+00 0. -1.
        -13    1    1    2    0    0 -0.23149079942E+02  0.12841298203E+03 -0.17662297086E+03  0.21959384977E+03  0.10566000000E+00 0.  1.
         13    1    1    2    0    0  0.47185039360E+02 -0.12306859373E+03 -0.12094171683E+03  0.17888324890E+03  0.10566000000E+00 0. -1.
          4    1    1    2  501    0 -0.24035959417E+02 -0.53443882944E+01 -0.24121471733E+03  0.24246820346E+03  0.00000000000E+00 0.  1.
</event>
<event>
 5    1  0.4866530E-005  0.5630837E+03  0.7818608E-02  0.9349482E-01
         21   -1    0    0  501  502  0.00000000000E+00  0.00000000000E+00  0.32612026546E+03  0.32612026546E+03  0.00000000000E+00 0.  1.
          4   -1    0    0  502    0 -0.00000000000E+00 -0.00000000000E+00 -0.26485570031E+04  0.26485570031E+04  0.00000000000E+00 0.  1.
        -13    1    1    2    0    0  0.93304682931E+02 -0.54562084238E+03 -0.17447986363E+04  0.18304999754E+04  0.10566000000E+00 0.  1.
         13    1    1    2    0    0 -0.48499746884E+02  0.58500441626E+03 -0.75540353799E+03  0.95666969685E+03  0.10566000000E+00 0. -1.
          4    1    1    2  501    0 -0.44804936047E+02 -0.39383573879E+02  0.17776543669E+03  0.18750759629E+03  0.00000000000E+00 0.  1.
</event>
<event>
 5    1  0.4866530E-005  0.4871281E+03  0.7818608E-02  0.9659914E-01
          4   -1    0    0  502    0 -0.00000000000E+00  0.00000000000E+00  0.10944823306E+04  0.10944823306E+04  0.00000000000E+00 0.  1.
         21   -1    0    0  501  502  0.00000000000E+00 -0.00000000000E+00 -0.50399587879E+03  0.50399587879E+03  0.00000000000E+00 0.  1.
        -13    1    1    2    0    0  0.42099387429E+03  0.22835520075E+03  0.18155650880E+03  0.51219597514E+03  0.10566000000E+00 0.  1.
         13    1    1    2    0    0  0.10130393036E+03 -0.26300088484E+03  0.48141051140E+03  0.55784231050E+03  0.10566000000E+00 0. -1.
          4    1    1    2  501    0 -0.52229780466E+03  0.34645684095E+02 -0.72480568417E+02  0.52843992371E+03  0.00000000000E+00 0.  1.
</event>
<event>
 5    1  0.4866530E-005  0.1846973E+03  0.7818608E-02  0.1071165E+00
         21   -1    0    0  501  502  0.00000000000E+00  0.00000000000E+00  0.72120960391E+03  0.72120960391E+03  0.00000000000E+00 0.  1.
         -4   -1    0    0    0  501 -0.00000000000E+00 -0.00000000000E+00 -0.95449304602E+02  0.95449304602E+02  0.00000000000E+00 0. -1.
        -13    1    1    2    0    0  0.14061311107E+03  0.11181482448E+03  0.13873423071E+03  0.22698414022E+03  0.10566000000E+00 0.  1.
         13    1    1    2    0    0 -0.14420277434E+03 -0.12308876715E+03  0.12419055484E+03  0.22664639817E+03  0.10566000000E+00 0. -1.
         -4    1    1    2    0  502  0.35896632771E+01  0.11273942669E+02  0.36283551377E+03  0.36302837013E+03  0.00000000000E+00 0. -1.
</event>
<event>
 5    1  0.4866530E-005  0.4505861E+03  0.7818608E-02  0.9862819E-01
         21   -1    0    0  501  502  0.00000000000E+00  0.00000000000E+00  0.54259635585E+03  0.54259635585E+03  0.00000000000E+00 0.  1.
          4   -1    0    0  502    0 -0.00000000000E+00 -0.00000000000E+00 -0.65919442582E+03  0.65919442582E+03  0.00000000000E+00 0.  1.
        -13    1    1    2    0    0 -0.41827522771E+03 -0.30954991519E+03 -0.25141650749E+03  0.57791486182E+03  0.10566000000E+00 0.  1.
         13    1    1    2    0    0  0.90208713841E+01  0.17694593533E+03  0.17947184660E+02  0.17808243246E+03  0.10566000000E+00 0. -1.
          4    1    1    2  501    0  0.40925435633E+03  0.13260397986E+03  0.11687125286E+03  0.44579348738E+03  0.00000000000E+00 0.  1.
</event>
<event>
 5    1  0.4866530E-005  0.2563214E+03  0.7818608E-02  0.1027168E+00
         -4   -1    0    0    0  501 -0.00000000000E+00  0.00000000000E+00  0.19284940513E+04  0.19284940513E+04  0.00000000000E+00 0. -1.
         21   -1    0    0  501  502  0.00000000000E+00 -0.00000000000E+00 -0.55331659849E+02  0.55331659849E+02  0.00000000000E+00 0.  1.
        -13    1    1    2    0    0  0.20699049922E+03 -0.58164533828E+02  0.42702383889E+03  0.47809784553E+03  0.10566000000E+00 0.  1.
         13    1    1    2    0    0 -0.27631278113E+03  0.42571261023E+02  0.13820396472E+04  0.14100335680E+04  0.10566000000E+00 0. -1.
         -4    1    1    2    0  502  0.69322281910E+02  0.15593272805E+02  0.64098905330E+02  0.95694297586E+02  0.00000000000E+00 0. -1.
</event>
<event>
 5    1  0.4866530E-005  0.4314261E+03  0.7818608E-02  0.9642443E-01
         21   -1    0    0  501  502  0.00000000000E+00  0.00000000000E+00  0.10731216434E+04  0.10731216434E+04  0.00000000000E+00 0.  1.
          4   -1    0    0  502    0 -0.00000000000E+00 -0.00000000000E+00 -0.41139797410E+03  0.41139797410E+03  0.00000000000E+00 0.  1.
        -13    1    1    2    0    0  0.47520428503E+03  0.90521907394E+02 -0.11536879490E+03  0.49731609488E+03  0.10566000000E+00 0.  1.
         13    1    1    2    0    0 -0.34139191030E+03 -0.59300932188E+02  0.21326567250E+03  0.40687503635E+03  0.10566000000E+00 0. -1.
          4    1    1    2  501    0 -0.13381237473E+03 -0.31220975206E+02  0.56382679167E+03  0.58032848623E+03  0.00000000000E+00 0.  1.
</event>
<event>
 5    1  0.4866530E-005  0.4328541E+03  0.7818608E-02  0.9638695E-01
          4   -1    0    0  502    0 -0.00000000000E+00  0.00000000000E+00  0.37647940762E+04  0.37647940762E+04  0.00000000000E+00 0.  1.
         21   -1    0    0  501  502  0.00000000000E+00 -0.00000000000E+00 -0.29272108550E+03  0.29272108550E+03  0.00000000000E+00 0.  1.
        -13    1    1    2    0    0  0.21849871841E+03 -0.25884752471E+03  0.13589423845E+04  0.14005242399E+04  0.10566000000E+00 0.  1.
         13    1    1    2    0    0 -0.57136642184E+03  0.38531293836E+03  0.21709548054E+04  0.22777116645E+04  0.10566000000E+00 0. -1.
          4    1    1    2  501    0  0.35286770344E+03 -0.12646541365E+03 -0.57824199198E+02  0.37927925727E+03  0.00000000000E+00 0.  1.
</event>
<event>
 5    1  0.4866530E-005  0.4687209E+03  0.7818608E-02  0.9829610E-01
         21   -1    0    0  501  502  0.00000000000E+00  0.00000000000E+00  0.18630091918E+04  0.18630091918E+04  0.00000000000E+00 0. -1.
         -4   -1    0    0    0  501 -0.00000000000E+00 -0.00000000000E+00 -0.20289025951E+03  0.20289025951E+03  0.00000000000E+00 0. -1.
        -13    1    1    2    0    0  0.13104161258E+03  0.11765046177E+03  0.27905136226E+03  0.32997455861E+03  0.10566000000E+00 0.  1.
         13    1    1    2    0    0  0.16948533985E+03  0.30402072704E+03  0.11258641403E+03  0.36582727438E+03  0.10566000000E+00 0. -1.
         -4    1    1    2    0  502 -0.30052695243E+03 -0.42167118881E+03  0.12684811560E+04  0.13700976183E+04  0.00000000000E+00 0. -1.
</event>
<event>
 5    1  0.4866530E-005  0.4158610E+03  0.7818608E-02  0.9842802E-01
         21   -1    0    0  501  502  0.00000000000E+00  0.00000000000E+00  0.30060690150E+03  0.30060690150E+03  0.00000000000E+00 0. -1.
         -4   -1    0    0    0  501 -0.00000000000E+00 -0.00000000000E+00 -0.21770178012E+04  0.21770178012E+04  0.00000000000E+00 0. -1.
        -13    1    1    2    0    0 -0.18292184852E+03 -0.15711413662E+03 -0.12256714604E+04  0.12491660396E+04  0.10566000000E+00 0.  1.
         13    1    1    2    0    0 -0.19157023907E+03  0.36944169328E+03 -0.67970894668E+03  0.79698844696E+03  0.10566000000E+00 0. -1.
         -4    1    1    2    0  502  0.37449208759E+03 -0.21232755666E+03  0.28969507420E+02  0.43147021605E+03  0.00000000000E+00 0. -1.
</event>
<event>
 5    1  0.4866530E-005  0.4397847E+03  0.7818608E-02  0.9841630E-01
         21   -1    0    0  501  502  0.00000000000E+00  0.00000000000E+00  0.30830556684E+03  0.30830556684E+03  0.00000000000E+00 0. -1.
          4   -1    0    0  502    0 -0.00000000000E+00 -0.00000000000E+00 -0.25341004386E+04  0.25341004386E+04  0.00000000000E+00 0.  1.
        -13    1    1    2    0    0 -0.87481605896E+02  0.16857384145E+03 -0.97953285100E+03  0.99777491888E+03  0.10566000000E+00 0.  1.
         13    1    1    2    0    0  0.47541609413E+03  0.38591282278E+02 -0.13156150772E+04  0.13994115878E+04  0.10566000000E+00 0. -1.
          4    1    1    2  501    0 -0.38793448823E+03 -0.20716512373E+03  0.69353056405E+02  0.44521949877E+03  0.00000000000E+00 0.  1.
</event>
<event>
 5    1  0.4866530E-005  0.5036439E+03  0.7818608E-02  0.9470021E-01
         21   -1    0    0  501  502  0.00000000000E+00  0.00000000000E+00  0.81616709359E+03  0.81616709359E+03  0.00000000000E+00 0. -1.
         -4   -1    0    0    0  501 -0.00000000000E+00 -0.00000000000E+00 -0.63589310256E+03  0.63589310256E+03  0.00000000000E+00 0. -1.
        -13    1    1    2    0    0 -0.31336567531E+03 -0.15001289444E+03  0.19657621581E+03  0.39917932656E+03  0.10566000000E+00 0.  1.
         13    1    1    2    0    0  0.49439591347E+03  0.35268123474E+03 -0.28488929586E+03  0.67080048796E+03  0.10566000000E+00 0. -1.
         -4    1    1    2    0  502 -0.18103023815E+03 -0.20266834030E+03  0.26858707107E+03  0.38208038164E+03  0.00000000000E+00 0. -1.
</event>
<event>
 5    1  0.4866530E-005  0.2252496E+03  0.7818608E-02  0.1044081E+00
          4   -1    0    0  502    0 -0.00000000000E+00  0.00000000000E+00  0.12219883313E+04  0.12219883313E+04  0.00000000000E+00 0.  1.
         21   -1    0    0  501  502  0.00000000000E+00 -0.00000000000E+00 -0.78531589921E+02  0.78531589921E+02  0.00000000000E+00 0. -1.
        -13    1    1    2    0    0 -0.89257805503E+02 -0.20936597966E+03  0.99603725762E+03  0.10217099877E+04  0.10566000000E+00 0.  1.
         13    1    1    2    0    0  0.91271791543E+02  0.19484490251E+03  0.15201583448E+03  0.26344620145E+03  0.10566000000E+00 0. -1.
          4    1    1    2  501    0 -0.20139860400E+01  0.14521077157E+02 -0.45963507388E+01  0.15363732023E+02  0.00000000000E+00 0.  1.
</event>
<event>
 5    1  0.4866530E-005  0.4251758E+03  0.7818608E-02  0.9761290E-01
          4   -1    0    0  502    0 -0.00000000000E+00  0.00000000000E+00  0.84349323752E+03  0.84349323752E+03  0.00000000000E+00 0.  1.
         21   -1    0    0  501  502  0.00000000000E+00 -0.00000000000E+00 -0.57523999245E+03  0.57523999245E+03  0.00000000000E+00 0.  1.
        -13    1    1    2    0    0 -0.27717980175E+03 -0.34981966458E+03 -0.25978028121E+03  0.51641867306E+03  0.10566000000E+00 0.  1.
         13    1    1    2    0    0 -0.14694377777E+03  0.25923927445E+03  0.21535491568E+03  0.36766183663E+03  0.10566000000E+00 0. -1.
          4    1    1    2  501    0  0.42412357951E+03  0.90580390124E+02  0.31267861060E+03  0.53465272028E+03  0.00000000000E+00 0.  1.
</event>
<event>
 5    1  0.4866530E-005  0.4748362E+03  0.7818608E-02  0.9534899E-01
         21   -1    0    0  501  502  0.00000000000E+00  0.00000000000E+00  0.42393987637E+03  0.42393987637E+03  0.00000000000E+00 0. -1.
          4   -1    0    0  502    0 -0.00000000000E+00 -0.00000000000E+00 -0.11980337513E+04  0.11980337513E+04  0.00000000000E+00 0.  1.
        -13    1    1    2    0    0 -0.35895864365E+03  0.44581937742E+03 -0.76791501132E+03  0.95775764205E+03  0.10566000000E+00 0.  1.
         13    1    1    2    0    0  0.83304429546E+02 -0.34306289828E+03 -0.77658197463E+02  0.36147280251E+03  0.10566000000E+00 0. -1.
          4    1    1    2  501    0  0.27565421411E+03 -0.10275647915E+03  0.71479333834E+02  0.30274318312E+03  0.00000000000E+00 0.  1.
</event>
<event>
 5    1  0.4866530E-005  0.4825412E+03  0.7818608E-02  0.9963106E-01
         21   -1    0    0  501  502  0.00000000000E+00  0.00000000000E+00  0.21336851823E+03  0.21336851823E+03  0.00000000000E+00 0. -1.
         -4   -1    0    0    0  501 -0.00000000000E+00 -0.00000000000E+00 -0.18273606416E+04  0.18273606416E+04  0.00000000000E+00 0. -1.
        -13    1    1    2    0    0  0.86042930166E+02 -0.57038303649E+02 -0.59375752112E+03  0.60266471521E+03  0.10566000000E+00 0.  1.
         13    1    1    2    0    0  0.32994484017E+03  0.34100479084E+03 -0.30786115553E+03  0.56562033837E+03  0.10566000000E+00 0. -1.
         -4    1    1    2    0  502 -0.41598777033E+03 -0.28396648720E+03 -0.71237344673E+03  0.87244410625E+03  0.00000000000E+00 0. -1.
</event>
<event>
 5    1  0.4866530E-005  0.9994293E+02  0.7818608E-02  0.1164650E+00
         21   -1    0    0  501  502  0.00000000000E+00  0.00000000000E+00  0.45528553625E+03  0.45528553625E+03  0.00000000000E+00 0. -1.
         -4   -1    0    0    0  501 -0.00000000000E+00 -0.00000000000E+00 -0.60196238717E+02  0.60196238717E+02  0.00000000000E+00 0. -1.
        -13    1    1    2    0    0 -0.68940350948E+02 -0.39488191543E+02  0.93740791657E+02  0.12287976418E+03  0.10566000000E+00 0.  1.
         13    1    1    2    0    0  0.68998364600E+02  0.98054337074E+02  0.42494638714E+02  0.12720547480E+03  0.10566000000E+00 0. -1.
         -4    1    1    2    0  502 -0.58013652335E-01 -0.58566145531E+02  0.25885386716E+03  0.26539653599E+03  0.00000000000E+00 0. -1.
</event>
<event>
 5    1  0.4866530E-005  0.2678654E+03  0.7818608E-02  0.1021529E+00
         21   -1    0    0  501  502  0.00000000000E+00  0.00000000000E+00  0.19957558432E+03  0.19957558432E+03  0.00000000000E+00 0.  1.
          4   -1    0    0  502    0 -0.00000000000E+00 -0.00000000000E+00 -0.22262228396E+04  0.22262228396E+04  0.00000000000E+00 0.  1.
        -13    1    1    2    0    0  0.19559009822E+03  0.32540095558E+03 -0.12490645119E+04  0.13054897298E+04  0.10566000000E+00 0.  1.
         13    1    1    2    0    0 -0.19988742401E+03 -0.10463537799E+03 -0.85658029490E+03  0.88579532477E+03  0.10566000000E+00 0. -1.
          4    1    1    2  501    0  0.42973257849E+01 -0.22076557759E+03  0.78997551568E+02  0.23451336937E+03  0.00000000000E+00 0.  1.
</event>
<event>
 5    1  0.4866530E-005  0.7336862E+03  0.7818608E-02  0.9075493E-01
         21   -1    0    0  501  502  0.00000000000E+00  0.00000000000E+00  0.68958735759E+03  0.68958735759E+03  0.00000000000E+00 0.  1.
         -4   -1    0    0    0  501 -0.00000000000E+00 -0.00000000000E+00 -0.11888093451E+04  0.11888093451E+04  0.00000000000E+00 0. -1.
        -13    1    1    2    0    0 -0.44673843955E+03 -0.57294654273E+03 -0.41188064373E+03  0.83515785936E+03  0.10566000000E+00 0.  1.
         13    1    1    2    0    0  0.40253793170E+03  0.62527834170E+03 -0.31343102628E+03  0.80699988257E+03  0.10566000000E+00 0. -1.
         -4    1    1    2    0  502  0.44200507844E+02 -0.52331798969E+02  0.22608968247E+03  0.23623896080E+03  0.00000000000E+00 0. -1.
</event>
<event>
 5    1  0.4866530E-005  0.1678681E+03  0.7818608E-02  0.1084713E+00
         21   -1    0    0  501  502  0.00000000000E+00  0.00000000000E+00  0.12557185601E+03  0.12557185601E+03  0.00000000000E+00 0. -1.
         -4   -1    0    0    0  501 -0.00000000000E+00 -0.00000000000E+00 -0.64828266793E+03  0.64828266793E+03  0.00000000000E+00 0. -1.
        -13    1    1    2    0    0 -0.28278113149E+01  0.12923965870E+03 -0.51009510558E+02  0.13897074235E+03  0.10566000000E+00 0.  1.
         13    1    1    2    0    0 -0.10176322136E+03 -0.16113052341E+03 -0.48840603590E+03  0.52427022218E+03  0.10566000000E+00 0. -1.
         -4    1    1    2    0  502  0.10459103268E+03  0.31890864705E+02  0.16704734546E+02  0.11061355941E+03  0.00000000000E+00 0. -1.
</event>
<event>
 5    1  0.4866530E-005  0.3901939E+03  0.7818608E-02  0.9757801E-01
         -4   -1    0    0    0  501 -0.00000000000E+00  0.00000000000E+00  0.21951919836E+04  0.21951919836E+04  0.00000000000E+00 0. -1.
         21   -1    0    0  501  502  0.00000000000E+00 -0.00000000000E+00 -0.32734448924E+03  0.32734448924E+03  0.00000000000E+00 0. -1.
        -13    1    1    2    0    0  0.58881828378E+02  0.39360631313E+03  0.12499250821E+04  0.13117567311E+04  0.10566000000E+00 0.  1.
         13    1    1    2    0    0 -0.35174548238E+02 -0.37891749894E+03  0.87396584053E+03  0.95322191614E+03  0.10566000000E+00 0. -1.
         -4    1    1    2    0  502 -0.23707280140E+02 -0.14688814187E+02 -0.25604342827E+03  0.25755782565E+03  0.00000000000E+00 0. -1.
</event>
<event>
 5    1  0.4866530E-005  0.3928253E+03  0.7818608E-02  0.9779579E-01
         -4   -1    0    0    0  501 -0.00000000000E+00  0.00000000000E+00  0.20025431526E+04  0.20025431526E+04  0.00000000000E+00 0. -1.
         21   -1    0    0  501  502  0.00000000000E+00 -0.00000000000E+00 -0.26669038118E+03  0.26669038118E+03  0.00000000000E+00 0. -1.
        -13    1    1    2    0    0 -0.28162495055E+03  0.21586425288E+03  0.52099070814E+03  0.63035015474E+03  0.10566000000E+00 0.  1.
         13    1    1    2    0    0  0.58549252726E+03 -0.49353778075E+01  0.11090924956E+04  0.12541578977E+04  0.10566000000E+00 0. -1.
         -4    1    1    2    0  502 -0.30386757672E+03 -0.21092887508E+03  0.10576956764E+03  0.38472548130E+03  0.00000000000E+00 0. -1.
</event>
<event>
 5    1  0.4866530E-005  0.4516595E+03  0.7818608E-02  0.1007896E+00
          4   -1    0    0  502    0 -0.00000000000E+00  0.00000000000E+00  0.24179369087E+04  0.24179369087E+04  0.00000000000E+00 0.  1.
         21   -1    0    0  501  502  0.00000000000E+00 -0.00000000000E+00 -0.12929300332E+03  0.12929300332E+03  0.00000000000E+00 0.  1.
        -13    1    1    2    0    0 -0.97099610744E+02  0.45211468840E+03  0.14103695627E+04  0.14842433562E+04  0.10566000000E+00 0.  1.
         13    1    1    2    0    0  0.86215390352E+02 -0.25855926125E+01  0.38908546931E+03  0.39853141961E+03  0.10566000000E+00 0. -1.
          4    1    1    2  501    0  0.10884220392E+02 -0.44952909578E+03  0.48918887342E+03  0.66445513625E+03  0.00000000000E+00 0.  1.
</event>
<event>
 5    1  0.4866530E-005  0.1826753E+03  0.7818608E-02  0.1072709E+00
          4   -1    0    0  502    0 -0.00000000000E+00  0.00000000000E+00  0.79344388845E+03  0.79344388845E+03  0.00000000000E+00 0.  1.
         21   -1    0    0  501  502  0.00000000000E+00 -0.00000000000E+00 -0.24064927445E+03  0.24064927445E+03  0.00000000000E+00 0.  1.
        -13    1    1    2    0    0  0.72841648718E+02 -0.16948478236E+03  0.64202523327E+03  0.66800255131E+03  0.10566000000E+00 0.  1.
         13    1    1    2    0    0 -0.51939388238E+02  0.16786698410E+03  0.81767825308E+02  0.19381179743E+03  0.10566000000E+00 0. -1.
          4    1    1    2  501    0 -0.20902260480E+02  0.16177982582E+01 -0.17099844457E+03  0.17227881417E+03  0.00000000000E+00 0.  1.
</event>
<event>
 5    1  0.4866530E-005  0.5021097E+03  0.7818608E-02  0.9839981E-01
         21   -1    0    0  501  502  0.00000000000E+00  0.00000000000E+00  0.19547370732E+03  0.19547370732E+03  0.00000000000E+00 0. -1.
         -4   -1    0    0    0  501 -0.00000000000E+00 -0.00000000000E+00 -0.18035131161E+04  0.18035131161E+04  0.00000000000E+00 0. -1.
        -13    1    1    2    0    0  0.12346545675E+02 -0.13775758841E+03 -0.39068282014E+03  0.41444259853E+03  0.10566000000E+00 0.  1.
         13    1    1    2    0    0  0.48937376159E+03 -0.15759932778E+02 -0.58728176374E+03  0.76461423947E+03  0.10566000000E+00 0. -1.
         -4    1    1    2    0  502 -0.50172030727E+03  0.15351752119E+03 -0.63007482491E+03  0.81992998544E+03  0.00000000000E+00 0. -1.
</event>
<event>
 5    1  0.4866530E-005  0.2082939E+03  0.7818608E-02  0.1054594E+00
         21   -1    0    0  501  502  0.00000000000E+00  0.00000000000E+00  0.68345112646E+02  0.68345112646E+02  0.00000000000E+00 0. -1.
          4   -1    0    0  502    0 -0.00000000000E+00 -0.00000000000E+00 -0.76805484350E+03  0.76805484350E+03  0.00000000000E+00 0.  1.
        -13    1    1    2    0    0  0.19680621309E+03  0.59748020850E+02 -0.43193482591E+03  0.47840382158E+03  0.10566000000E+00 0.  1.
         13    1    1    2    0    0 -0.20694410346E+03 -0.49142120658E+02 -0.26938829193E+03  0.34323588532E+03  0.10566000000E+00 0. -1.
          4    1    1    2  501    0  0.10137890374E+02 -0.10605900191E+02  0.16133869830E+01  0.14760249241E+02  0.00000000000E+00 0.  1.
</event>
<event>
 5    1  0.4866530E-005  0.3865233E+02  0.7818608E-02  0.1346417E+00
          4   -1    0    0  502    0 -0.00000000000E+00  0.00000000000E+00  0.32919167342E+02  0.32919167342E+02  0.00000000000E+00 0.  1.
         21   -1    0    0  501  502  0.00000000000E+00 -0.00000000000E+00 -0.14832257459E+03  0.14832257459E+03  0.00000000000E+00 0.  1.
        -13    1    1    2    0    0  0.37952998972E+02  0.34879232699E+01  0.11944004530E+02  0.39940783016E+02  0.10566000000E+00 0.  1.
         13    1    1    2    0    0 -0.39883273705E+02 -0.15097114165E+02 -0.64244944232E+02  0.77110455847E+02  0.10566000000E+00 0. -1.
          4    1    1    2  501    0  0.19302747333E+01  0.11609190896E+02 -0.63102467544E+02  0.64190503067E+02  0.00000000000E+00 0.  1.
</event>
<event>
 5    1  0.4866530E-005  0.1488247E+03  0.7818608E-02  0.1102276E+00
         21   -1    0    0  501  502  0.00000000000E+00  0.00000000000E+00  0.35552676522E+03  0.35552676522E+03  0.00000000000E+00 0.  1.
         -4   -1    0    0    0  501 -0.00000000000E+00 -0.00000000000E+00 -0.98950046350E+02  0.98950046350E+02  0.00000000000E+00 0. -1.
        -13    1    1    2    0    0 -0.11249679891E+03 -0.81581607375E+02  0.16028137118E+03  0.21213490410E+03  0.10566000000E+00 0.  1.
         13    1    1    2    0    0  0.13127342554E+03  0.79175485315E+02  0.95981619118E+01  0.15360210156E+03  0.10566000000E+00 0. -1.
         -4    1    1    2    0  502 -0.18776626634E+02  0.24061220605E+01  0.86697185775E+02  0.88739805907E+02  0.00000000000E+00 0. -1.
</event>
<event>
 5    1  0.4866530E-005  0.2623445E+03  0.7818608E-02  0.1024187E+00
         21   -1    0    0  501  502  0.00000000000E+00  0.00000000000E+00  0.58632365502E+03  0.58632365502E+03  0.00000000000E+00 0.  1.
         -4   -1    0    0    0  501 -0.00000000000E+00 -0.00000000000E+00 -0.51231388809E+03  0.51231388809E+03  0.00000000000E+00 0. -1.
        -13    1    1    2    0    0 -0.22247917842E+03 -0.10806604211E+03 -0.10322269012E+03  0.26801154678E+03  0.10566000000E+00 0.  1.
         13    1    1    2    0    0  0.23526439503E+03  0.13869106961E+03 -0.26889781386E+03  0.38326308695E+03  0.10566000000E+00 0. -1.
         -4    1    1    2    0  502 -0.12785216606E+02 -0.30625027502E+02  0.44613027091E+03  0.44736290938E+03  0.00000000000E+00 0. -1.
</event>
<event>
 5    1  0.4866530E-005  0.2725385E+03  0.7818608E-02  0.1039899E+00
         21   -1    0    0  501  502  0.00000000000E+00  0.00000000000E+00  0.82045010217E+03  0.82045010217E+03  0.00000000000E+00 0. -1.
         -4   -1    0    0    0  501 -0.00000000000E+00 -0.00000000000E+00 -0.46664286134E+03  0.46664286134E+03  0.00000000000E+00 0. -1.
        -13    1    1    2    0    0  0.13225245806E+01  0.14427136154E+03 -0.99874655527E+02  0.17547345330E+03  0.10566000000E+00 0.  1.
         13    1    1    2    0    0 -0.27285659105E+03 -0.15484084409E+03 -0.22134250947E+03  0.38395172084E+03  0.10566000000E+00 0. -1.
         -4    1    1    2    0  502  0.27153406647E+03  0.10569482553E+02  0.67502440583E+03  0.72766778936E+03  0.00000000000E+00 0. -1.
</event>
<event>
 5    1  0.4866530E-005  0.5564948E+02  0.7818608E-02  0.1270353E+00
         -4   -1    0    0    0  501 -0.00000000000E+00  0.00000000000E+00  0.29092239971E+03  0.29092239971E+03  0.00000000000E+00 0. -1.
         21   -1    0    0  501  502  0.00000000000E+00 -0.00000000000E+00 -0.18859924964E+02  0.18859924964E+02  0.00000000000E+00 0.  1.
        -13    1    1    2    0    0  0.19598320671E+02 -0.39154650105E+02  0.59974409986E+02  0.74257133093E+02  0.10566000000E+00 0.  1.
         13    1    1    2    0    0 -0.36798240335E+02  0.52569589979E+02  0.20112254003E+03  0.21111124923E+03  0.10566000000E+00 0. -1.
         -4    1    1    2    0  502  0.17199919665E+02 -0.13414939874E+02  0.10965524736E+02  0.24413942349E+02  0.00000000000E+00 0. -1.
</event>
<event>
 5    1  0.4866530E-005  0.3215620E+03  0.7818608E-02  0.1012029E+00
         -4   -1    0    0    0  501 -0.00000000000E+00  0.00000000000E+00  0.25331465730E+03  0.25331465730E+03  0.00000000000E+00 0. -1.
         21   -1    0    0  501  502  0.00000000000E+00 -0.00000000000E+00 -0.15092003279E+04  0.15092003279E+04  0.00000000000E+00 0. -1.
        -13    1    1    2    0    0  0.20840218791E+03 -0.19129268698E+02 -0.23709070797E+03  0.31624265338E+03  0.10566000000E+00 0.  1.
         13    1    1    2    0    0  0.27207100755E+03 -0.12295119639E+03 -0.87570231542E+03  0.92519953860E+03  0.10566000000E+00 0. -1.
         -4    1    1    2    0  502 -0.48047319547E+03  0.14208046509E+03 -0.14309264718E+03  0.52107279318E+03  0.00000000000E+00 0. -1.
</event>
<event>
 5    1  0.4866530E-005  0.1326178E+03  0.7818608E-02  0.1119643E+00
         -4   -1    0    0    0  501 -0.00000000000E+00  0.00000000000E+00  0.73442407661E+02  0.73442407661E+02  0.00000000000E+00 0. -1.
         21   -1    0    0  501  502  0.00000000000E+00 -0.00000000000E+00 -0.57698260806E+03  0.57698260806E+03  0.00000000000E+00 0.  1.
        -13    1    1    2    0    0  0.12892831248E+03 -0.23978134742E+02 -0.36551736227E+03  0.38833028982E+03  0.10566000000E+00 0.  1.
         13    1    1    2    0    0 -0.13146035806E+03 -0.30217878535E+02 -0.25644358079E+02  0.13730473477E+03  0.10566000000E+00 0. -1.
         -4    1    1    2    0  502  0.25320455761E+01  0.54196013277E+02 -0.11237848004E+03  0.12478999113E+03  0.00000000000E+00 0. -1.
</event>
<event>
 5    1  0.4866530E-005  0.1186193E+03  0.7818608E-02  0.1136967E+00
          4   -1    0    0  502    0 -0.00000000000E+00  0.00000000000E+00  0.73782551739E+03  0.73782551739E+03  0.00000000000E+00 0.  1.
         21   -1    0    0  501  502  0.00000000000E+00 -0.00000000000E+00 -0.56245660750E+02  0.56245660750E+02  0.00000000000E+00 0. -1.
        -13    1    1    2    0    0  0.11438400928E+03  0.28790026145E+02  0.62441444880E+03  0.63545730165E+03  0.10566000000E+00 0.  1.
         13    1    1    2    0    0 -0.12383832271E+03 -0.12327243666E+02  0.61977384525E+02  0.13902912811E+03  0.10566000000E+00 0. -1.
          4    1    1    2  501    0  0.94543134307E+01 -0.16462782479E+02 -0.48119766868E+01  0.19584748378E+02  0.00000000000E+00 0.  1.
</event>
<event>
 5    1  0.4866530E-005  0.4423683E+03  0.7818608E-02  0.9770921E-01
         -4   -1    0    0    0  501 -0.00000000000E+00  0.00000000000E+00  0.53255632533E+03  0.53255632533E+03  0.00000000000E+00 0. -1.
         21   -1    0    0  501  502  0.00000000000E+00 -0.00000000000E+00 -0.77983948301E+03  0.77983948301E+03  0.00000000000E+00 0. -1.
        -13    1    1    2    0    0  0.11611859203E+03 -0.22810866372E+03 -0.48103202824E+02  0.26044388871E+03  0.10566000000E+00 0.  1.
         13    1    1    2    0    0 -0.13187717514E+03  0.60724663577E+03  0.42095151061E+01  0.62141596146E+03  0.10566000000E+00 0. -1.
         -4    1    1    2    0  502  0.15758583104E+02 -0.37913797204E+03 -0.20338946996E+03  0.43053595817E+03  0.00000000000E+00 0. -1.
</event>
<event>
 5    1  0.4866530E-005  0.5202579E+03  0.7818608E-02  0.9434643E-01
         -4   -1    0    0    0  501 -0.00000000000E+00  0.00000000000E+00  0.99701202274E+03  0.99701202274E+03  0.00000000000E+00 0. -1.
         21   -1    0    0  501  502  0.00000000000E+00 -0.00000000000E+00 -0.91131802407E+03  0.91131802407E+03  0.00000000000E+00 0. -1.
        -13    1    1    2    0    0  0.43727090307E+03  0.32316154322E+03  0.45409327073E+03  0.70840661726E+03  0.10566000000E+00 0.  1.
         13    1    1    2    0    0 -0.58340151953E+03  0.14870465873E+03 -0.36863514869E+03  0.70594779731E+03  0.10566000000E+00 0. -1.
         -4    1    1    2    0  502  0.14613061645E+03 -0.47186620195E+03  0.23587662446E+00  0.49397563224E+03  0.00000000000E+00 0. -1.
</event>
<event>
 5    1  0.4866530E-005  0.3713925E+03  0.7818608E-02  0.9816266E-01
         -4   -1    0    0    0  501 -0.00000000000E+00  0.00000000000E+00  0.98624631491E+03  0.98624631491E+03  0.00000000000E+00 0. -1.
         21   -1    0    0  501  502  0.00000000000E+00 -0.00000000000E+00 -0.10096936055E+04  0.10096936055E+04  0.00000000000E+00 0. -1.
        -13    1    1    2    0    0 -0.63495561227E+02 -0.36641104876E+03  0.63530428488E+03  0.73613876986E+03  0.10566000000E+00 0.  1.
         13    1    1    2    0    0  0.31872463156E+03  0.48143348213E+02  0.14881658007E+03  0.35503458762E+03  0.10566000000E+00 0. -1.
         -4    1    1    2    0  502 -0.25522907033E+03  0.31826770055E+03 -0.80756815554E+03  0.90476656293E+03  0.00000000000E+00 0. -1.
</event>
<event>
 5    1  0.4866530E-005  0.4969481E+02  0.7818608E-02  0.1293036E+00
         -4   -1    0    0    0  501 -0.00000000000E+00  0.00000000000E+00  0.13204939109E+03  0.13204939109E+03  0.00000000000E+00 0. -1.
         21   -1    0    0  501  502  0.00000000000E+00 -0.00000000000E+00 -0.73966065876E+02  0.73966065876E+02  0.00000000000E+00 0.  1.
        -13    1    1    2    0    0  0.74510455360E+01 -0.59491448274E+02 -0.21943797719E+02  0.63845844968E+02  0.10566000000E+00 0.  1.
         13    1    1    2    0    0  0.31320987815E+02  0.39636075259E+02  0.84427879559E+02  0.98387503020E+02  0.10566000000E+00 0. -1.
         -4    1    1    2    0  502 -0.38772033351E+02  0.19855373015E+02 -0.44007566253E+01  0.43782108979E+02  0.00000000000E+00 0. -1.
</event>
<event>
 5    1  0.4866530E-005  0.3247071E+03  0.7818608E-02  0.9975987E-01
         21   -1    0    0  501  502  0.00000000000E+00  0.00000000000E+00  0.27800860778E+03  0.27800860778E+03  0.00000000000E+00 0.  1.
          4   -1    0    0  502    0 -0.00000000000E+00 -0.00000000000E+00 -0.14433715256E+04  0.14433715256E+04  0.00000000000E+00 0.  1.
        -13    1    1    2    0    0 -0.15939075829E+03 -0.28916590492E+03 -0.11407430147E+04  0.11875676702E+04  0.10566000000E+00 0.  1.
         13    1    1    2    0    0  0.14727659092E+03  0.26724055708E+03 -0.19465827709E+03  0.36193889758E+03  0.10566000000E+00 0. -1.
          4    1    1    2  501    0  0.12114167365E+02  0.21925347841E+02  0.17003837401E+03  0.17187356563E+03  0.00000000000E+00 0.  1.
</event>
<event>
 5    1  0.4866530E-005  0.3490190E+03  0.7818608E-02  0.1011437E+00
          4   -1    0    0  502    0 -0.00000000000E+00  0.00000000000E+00  0.15865067916E+04  0.15865067916E+04  0.00000000000E+00 0.  1.
         21   -1    0    0  501  502  0.00000000000E+00 -0.00000000000E+00 -0.14548368661E+03  0.14548368661E+03  0.00000000000E+00 0.  1.
        -13    1    1    2    0    0 -0.19501721810E+03  0.34156559101E+03  0.24887083787E+03  0.46544116000E+03  0.10566000000E+00 0.  1.
         13    1    1    2    0    0  0.12933847686E+03 -0.10533438241E+03  0.32373256703E+03  0.36417929628E+03  0.10566000000E+00 0. -1.
          4    1    1    2  501    0  0.65678741236E+02 -0.23623120861E+03  0.86841970007E+03  0.90237002191E+03  0.00000000000E+00 0.  1.
</event>
<event>
 5    1  0.4866530E-005  0.3842134E+03  0.7818608E-02  0.1006362E+00
         21   -1    0    0  501  502  0.00000000000E+00  0.00000000000E+00  0.10555704647E+04  0.10555704647E+04  0.00000000000E+00 0. -1.
         -4   -1    0    0    0  501 -0.00000000000E+00 -0.00000000000E+00 -0.32870866525E+03  0.32870866525E+03  0.00000000000E+00 0. -1.
        -13    1    1    2    0    0 -0.28015243777E+02 -0.14454792147E+03  0.44668954244E+02  0.15386449272E+03  0.10566000000E+00 0.  1.
         13    1    1    2    0    0 -0.35853755868E+03 -0.99541510305E+02  0.67780517916E+03  0.77322542982E+03  0.10566000000E+00 0. -1.
         -4    1    1    2    0  502  0.38655280246E+03  0.24408943177E+03  0.43876660954E+01  0.45718920745E+03  0.00000000000E+00 0. -1.
</event>
<event>
 5    1  0.4866530E-005  0.3260658E+03  0.7818608E-02  0.1016010E+00
          4   -1    0    0  502    0 -0.00000000000E+00  0.00000000000E+00  0.38785606320E+03  0.38785606320E+03  0.00000000000E+00 0.  1.
         21   -1    0    0  501  502  0.00000000000E+00 -0.00000000000E+00 -0.80900813745E+03  0.80900813745E+03  0.00000000000E+00 0.  1.
        -13    1    1    2    0    0  0.15632788038E+03  0.28179266428E+03 -0.53399012898E+03  0.62369141476E+03  0.10566000000E+00 0.  1.
         13    1    1    2    0    0 -0.14781584405E+03  0.96991320127E+02  0.76225155121E+02  0.19252824564E+03  0.10566000000E+00 0. -1.
          4    1    1    2  501    0 -0.85120363279E+01 -0.37878398441E+03  0.36612899612E+02  0.38064454025E+03  0.00000000000E+00 0.  1.
</event>
<event>
 5    1  0.4866530E-005  0.2042550E+03  0.7818608E-02  0.1057257E+00
          4   -1    0    0  502    0 -0.00000000000E+00  0.00000000000E+00  0.17858950685E+04  0.17858950685E+04  0.00000000000E+00 0.  1.
         21   -1    0    0  501  502  0.00000000000E+00 -0.00000000000E+00 -0.22262485563E+03  0.22262485563E+03  0.00000000000E+00 0.  1.
        -13    1    1    2    0    0 -0.16604674207E+03  0.14576996599E+03  0.12044320918E+04  0.12245313710E+04  0.10566000000E+00 0.  1.
         13    1    1    2    0    0  0.22996611298E+02 -0.20769065803E+03  0.51961304070E+03  0.56005533368E+03  0.10566000000E+00 0. -1.
          4    1    1    2  501    0  0.14305013077E+03  0.61920692040E+02 -0.16077491962E+03  0.22393321950E+03  0.00000000000E+00 0.  1.
</event>
<event>
 5    1  0.4866530E-005  0.1964258E+03  0.7818608E-02  0.1099034E+00
         -4   -1    0    0    0  501 -0.00000000000E+00  0.00000000000E+00  0.16178661907E+04  0.16178661907E+04  0.00000000000E+00 0. -1.
         21   -1    0    0  501  502  0.00000000000E+00 -0.00000000000E+00 -0.11101850516E+03  0.11101850516E+03  0.00000000000E+00 0. -1.
        -13    1    1    2    0    0  0.15311948565E+02  0.68987947560E+02  0.35555003703E+03  0.36250466573E+03  0.10566000000E+00 0.  1.
         13    1    1    2    0    0 -0.20409506813E+03 -0.11352353607E+03  0.11489036408E+04  0.11724000926E+04  0.10566000000E+00 0. -1.
         -4    1    1    2    0  502  0.18878311957E+03  0.44535588515E+02  0.23940076492E+01  0.19397993750E+03  0.00000000000E+00 0. -1.
</event>
<event>
 5    1  0.4866530E-005  0.4054940E+03  0.7818608E-02  0.9722936E-01
         21   -1    0    0  501  502  0.00000000000E+00  0.00000000000E+00  0.40849845587E+03  0.40849845587E+03  0.00000000000E+00 0. -1.
         -4   -1    0    0    0  501 -0.00000000000E+00 -0.00000000000E+00 -0.19482284989E+04  0.19482284989E+04  0.00000000000E+00 0. -1.
        -13    1    1    2    0    0 -0.14555930570E+03 -0.36416145181E+03 -0.11522694843E+04  0.12171795472E+04  0.10566000000E+00 0.  1.
         13    1    1    2    0    0 -0.28833647372E+03  0.32846283763E+03 -0.52486727674E+03  0.68301641791E+03  0.10566000000E+00 0. -1.
         -4    1    1    2    0  502  0.43389577941E+03  0.35698614177E+02  0.13740671796E+03  0.45653098973E+03  0.00000000000E+00 0. -1.
</event>
<event>
 5    1  0.4866530E-005  0.3422999E+03  0.7818608E-02  0.1027398E+00
         -4   -1    0    0    0  501 -0.00000000000E+00  0.00000000000E+00  0.11735964104E+04  0.11735964104E+04  0.00000000000E+00 0. -1.
         21   -1    0    0  501  502  0.00000000000E+00 -0.00000000000E+00 -0.38201059333E+03  0.38201059333E+03  0.00000000000E+00 0. -1.
        -13    1    1    2    0    0 -0.10626779666E+03  0.11233239502E+02  0.46162478694E+03  0.47383170573E+03  0.10566000000E+00 0.  1.
         13    1    1    2    0    0  0.43809583104E+02 -0.34240151703E+03 -0.23944760728E+03  0.42011099275E+03  0.10566000000E+00 0. -1.
         -4    1    1    2    0  502  0.62458213554E+02  0.33116827753E+03  0.56940863744E+03  0.66166430528E+03  0.00000000000E+00 0. -1.
</event>
<event>
 5    1  0.4866530E-005  0.5027658E+03  0.7818608E-02  0.9652761E-01
          4   -1    0    0  502    0 -0.00000000000E+00  0.00000000000E+00  0.17294179519E+04  0.17294179519E+04  0.00000000000E+00 0.  1.
         21   -1    0    0  501  502  0.00000000000E+00 -0.00000000000E+00 -0.35447961295E+03  0.35447961295E+03  0.00000000000E+00 0.  1.
        -13    1    1    2    0    0 -0.51204375301E+03  0.33161451847E+03  0.15966932530E+03  0.63059598672E+03  0.10566000000E+00 0.  1.
         13    1    1    2    0    0  0.26259242987E+03 -0.12168433508E+02  0.90631996921E+03  0.94367301157E+03  0.10566000000E+00 0. -1.
          4    1    1    2  501    0  0.24945132313E+03 -0.31944608497E+03  0.30894904448E+03  0.50962856660E+03  0.00000000000E+00 0.  1.
</event>
<event>
 5    1  0.4866530E-005  0.4406510E+02  0.7818608E-02  0.1318040E+00
          4   -1    0    0  502    0 -0.00000000000E+00  0.00000000000E+00  0.57801726544E+02  0.57801726544E+02  0.00000000000E+00 0.  1.
         21   -1    0    0  501  502  0.00000000000E+00 -0.00000000000E+00 -0.12259635013E+03  0.12259635013E+03  0.00000000000E+00 0. -1.
        -13    1    1    2    0    0  0.13780414074E+02 -0.40469575683E+02  0.36329791160E+02  0.56103041430E+02  0.10566000000E+00 0.  1.
         13    1    1    2    0    0 -0.23658909159E+02  0.51674958006E+02 -0.85613687597E+02  0.10276069256E+03  0.10566000000E+00 0. -1.
          4    1    1    2  501    0  0.98784950846E+01 -0.11205382323E+02 -0.15510727151E+02  0.21534342685E+02  0.00000000000E+00 0.  1.
</event>
<event>
 5    1  0.4866530E-005  0.2108738E+03  0.7818608E-02  0.1052927E+00
         -4   -1    0    0    0  501 -0.00000000000E+00  0.00000000000E+00  0.70712068010E+03  0.70712068010E+03  0.00000000000E+00 0. -1.
         21   -1    0    0  501  502  0.00000000000E+00 -0.00000000000E+00 -0.89308728980E+02  0.89308728980E+02  0.00000000000E+00 0. -1.
        -13    1    1    2    0    0  0.20593296216E+03 -0.13413980834E+02  0.32490808807E+03  0.38490725720E+03  0.10566000000E+00 0.  1.
         13    1    1    2    0    0 -0.21565526719E+03  0.97743219933E+01  0.31800641843E+03  0.38435767842E+03  0.10566000000E+00 0. -1.
         -4    1    1    2    0  502  0.97223050313E+01  0.36396588407E+01 -0.25102555381E+02  0.27164473458E+02  0.00000000000E+00 0. -1.
</event>
<event>
 5    1  0.4866530E-005  0.1430247E+03  0.7818608E-02  0.1108202E+00
         -4   -1    0    0    0  501 -0.00000000000E+00  0.00000000000E+00  0.46044287467E+03  0.46044287467E+03  0.00000000000E+00 0. -1.
         21   -1    0    0  501  502  0.00000000000E+00 -0.00000000000E+00 -0.12075594350E+03  0.12075594350E+03  0.00000000000E+00 0.  1.
        -13    1    1    2    0    0 -0.58756489572E+02 -0.92489832418E+02 -0.65455044839E+02  0.12763646903E+03  0.10566000000E+00 0.  1.
         13    1    1    2    0    0  0.11215453638E+03  0.98994981894E+02  0.31180253702E+03  0.34583157711E+03  0.10566000000E+00 0. -1.
         -4    1    1    2    0  502 -0.53398046808E+02 -0.65051494755E+01  0.93339438989E+02  0.10773077204E+03  0.00000000000E+00 0. -1.
</event>
<event>
 5    1  0.4866530E-005  0.4524858E+03  0.7818608E-02  0.9703722E-01
          4   -1    0    0  502    0 -0.00000000000E+00  0.00000000000E+00  0.14844807412E+04  0.14844807412E+04  0.00000000000E+00 0.  1.
         21   -1    0    0  501  502  0.00000000000E+00 -0.00000000000E+00 -0.31212688744E+03  0.31212688744E+03  0.00000000000E+00 0.  1.
        -13    1    1    2    0    0  0.36713555555E+03 -0.12394751705E+03  0.19156807164E+03  0.43226131028E+03  0.10566000000E+00 0.  1.
         13    1    1    2    0    0  0.27793530787E+03  0.11741395174E+03  0.27625001943E+03  0.40908208935E+03  0.10566000000E+00 0. -1.
          4    1    1    2  501    0 -0.64507086342E+03  0.65335653046E+01  0.70453576264E+03  0.95526422897E+03  0.00000000000E+00 0.  1.
</event>
<event>
 5    1  0.4866530E-005  0.3531507E+03  0.7818608E-02  0.9875060E-01
          4   -1    0    0  502    0 -0.00000000000E+00  0.00000000000E+00  0.25063712855E+04  0.25063712855E+04  0.00000000000E+00 0.  1.
         21   -1    0    0  501  502  0.00000000000E+00 -0.00000000000E+00 -0.12511155374E+03  0.12511155374E+03  0.00000000000E+00 0.  1.
        -13    1    1    2    0    0 -0.29675543896E+03 -0.25443270520E+03  0.20928607695E+04  0.21290528419E+04  0.10566000000E+00 0.  1.
         13    1    1    2    0    0  0.13623270540E+03  0.15680541527E+03  0.81981348845E+02  0.22331198132E+03  0.10566000000E+00 0. -1.
          4    1    1    2  501    0  0.16052273356E+03  0.97627289923E+02  0.20641761346E+03  0.27911801603E+03  0.00000000000E+00 0.  1.
</event>
<event>
 5    1  0.4866530E-005  0.1278599E+03  0.7818608E-02  0.1125259E+00
         -4   -1    0    0    0  501 -0.00000000000E+00  0.00000000000E+00  0.14487009245E+03  0.14487009245E+03  0.00000000000E+00 0. -1.
         21   -1    0    0  501  502  0.00000000000E+00 -0.00000000000E+00 -0.39694153740E+03  0.39694153740E+03  0.00000000000E+00 0.  1.
        -13    1    1    2    0    0 -0.12914600801E+03 -0.56776098988E+02 -0.24393899330E+03  0.28179506812E+03  0.10566000000E+00 0.  1.
         13    1    1    2    0    0  0.12764953989E+03 -0.10927264247E+02  0.78349860178E+02  0.15017497092E+03  0.10566000000E+00 0. -1.
         -4    1    1    2    0  502  0.14964681215E+01  0.67703363235E+02 -0.86482311829E+02  0.10984159080E+03  0.00000000000E+00 0. -1.
</event>
<event>
 5    1  0.4866530E-005  0.2643591E+03  0.7818608E-02  0.1023209E+00
         21   -1    0    0  501  502  0.00000000000E+00  0.00000000000E+00  0.15628024775E+03  0.15628024775E+03  0.00000000000E+00 0. -1.
         -4   -1    0    0    0  501 -0.00000000000E+00 -0.00000000000E+00 -0.14085375836E+04  0.14085375836E+04  0.00000000000E+00 0. -1.
        -13    1    1    2    0    0 -0.30683641847E+01  0.19360043284E+03 -0.35843450398E+03  0.40738906130E+03  0.10566000000E+00 0.  1.
         13    1    1    2    0    0  0.72748119867E+00 -0.36721334116E+03 -0.91170706059E+03  0.98288144893E+03  0.10566000000E+00 0. -1.
         -4    1    1    2    0  502  0.23408829861E+01  0.17361290832E+03  0.17884228729E+02  0.17454732111E+03  0.00000000000E+00 0. -1.
</event>
<event>
 5    1  0.4866530E-005  0.4990500E+02  0.7818608E-02  0.1292176E+00
         21   -1    0    0  501  502  0.00000000000E+00  0.00000000000E+00  0.11865201659E+03  0.11865201659E+03  0.00000000000E+00 0.  1.
         -4   -1    0    0    0  501 -0.00000000000E+00 -0.00000000000E+00 -0.27121914787E+03  0.27121914787E+03  0.00000000000E+00 0. -1.
        -13    1    1    2    0    0 -0.39177174012E+02 -0.33700314712E+02  0.95932605600E+02  0.10896622484E+03  0.10566000000E+00 0.  1.
         13    1    1    2    0    0  0.20310981274E+02  0.45664978377E+02 -0.25319173396E+03  0.25807729757E+03  0.10566000000E+00 0. -1.
         -4    1    1    2    0  502  0.18866192738E+02 -0.11964663665E+02  0.46919970846E+01  0.22827642052E+02  0.00000000000E+00 0. -1.
</event>
<event>
 5    1  0.4866530E-005  0.4126642E+03  0.7818608E-02  0.9693166E-01
         -4   -1    0    0    0  501 -0.00000000000E+00  0.00000000000E+00  0.22826585879E+04  0.22826585879E+04  0.00000000000E+00 0. -1.
         21   -1    0    0  501  502  0.00000000000E+00 -0.00000000000E+00 -0.23071042548E+03  0.23071042548E+03  0.00000000000E+00 0. -1.
        -13    1    1    2    0    0 -0.31061054740E+03 -0.17604901993E+03  0.77908611159E+03  0.85699903734E+03  0.10566000000E+00 0.  1.
         13    1    1    2    0    0  0.64683588532E+03  0.11638797466E+03  0.55032995333E+03  0.85720819635E+03  0.10566000000E+00 0. -1.
         -4    1    1    2    0  502 -0.33622533793E+03  0.59661045263E+02  0.72253209748E+03  0.79916177966E+03  0.00000000000E+00 0. -1.
</event>
<event>
 5    1  0.4866530E-005  0.7936669E+02  0.7818608E-02  0.1235094E+00
          4   -1    0    0  502    0 -0.00000000000E+00  0.00000000000E+00  0.44209483880E+02  0.44209483880E+02  0.00000000000E+00 0.  1.
         21   -1    0    0  501  502  0.00000000000E+00 -0.00000000000E+00 -0.38887774356E+03  0.38887774356E+03  0.00000000000E+00 0.  1.
        -13    1    1    2    0    0  0.23358025159E+02 -0.81784255750E+02 -0.23741279539E+02  0.88305839819E+02  0.10566000000E+00 0.  1.
         13    1    1    2    0    0  0.31954968129E+02  0.24186035280E+02 -0.62044195853E+02  0.73861882549E+02  0.10566000000E+00 0. -1.
          4    1    1    2  501    0 -0.55312993288E+02  0.57598220470E+02 -0.25888278429E+03  0.27091950507E+03  0.00000000000E+00 0.  1.
</event>
<event>
 5    1  0.4866530E-005  0.6263957E+03  0.7818608E-02  0.9237190E-01
         -4   -1    0    0    0  501 -0.00000000000E+00  0.00000000000E+00  0.24012136208E+04  0.24012136208E+04  0.00000000000E+00 0. -1.
         21   -1    0    0  501  502  0.00000000000E+00 -0.00000000000E+00 -0.31437284679E+03  0.31437284679E+03  0.00000000000E+00 0.  1.
        -13    1    1    2    0    0  0.47104269253E+03  0.45459165163E+03  0.63160157969E+03  0.90964573024E+03  0.10566000000E+00 0.  1.
         13    1    1    2    0    0 -0.44375470984E+03 -0.42523992799E+03  0.15691296077E+04  0.16852047281E+04  0.10566000000E+00 0. -1.
         -4    1    1    2    0  502 -0.27287982694E+02 -0.29351723637E+02 -0.11389041333E+03  0.12073600924E+03  0.00000000000E+00 0. -1.
</event>
<event>
 5    1  0.4866530E-005  0.2346186E+02  0.7818608E-02  0.1466717E+00
          4   -1    0    0  502    0 -0.00000000000E+00  0.00000000000E+00  0.22968526718E+02  0.22968526718E+02  0.00000000000E+00 0.  1.
         21   -1    0    0  501  502  0.00000000000E+00 -0.00000000000E+00 -0.78656601628E+02  0.78656601628E+02  0.00000000000E+00 0. -1.
        -13    1    1    2    0    0 -0.97715633503E+01  0.22757725707E+02  0.10609476988E+02  0.26943824815E+02  0.10566000000E+00 0.  1.
         13    1    1    2    0    0 -0.23329254098E+01 -0.20327594026E+02 -0.29769279994E+02  0.36123051023E+02  0.10566000000E+00 0. -1.
          4    1    1    2  501    0  0.12104488760E+02 -0.24301316804E+01 -0.36528271904E+02  0.38558252508E+02  0.00000000000E+00 0.  1.
</event>
<event>
 5    1  0.4866530E-005  0.4736646E+03  0.7818608E-02  0.9733362E-01
          4   -1    0    0  502    0 -0.00000000000E+00  0.00000000000E+00  0.32583698758E+04  0.32583698758E+04  0.00000000000E+00 0.  1.
         21   -1    0    0  501  502  0.00000000000E+00 -0.00000000000E+00 -0.13042512589E+03  0.13042512589E+03  0.00000000000E+00 0.  1.
        -13    1    1    2    0    0  0.38911532689E+03  0.66168236265E+02  0.14788066297E+04  0.15305744125E+04  0.10566000000E+00 0.  1.
         13    1    1    2    0    0  0.45922501185E+02  0.23283743192E+03  0.96691449014E+03  0.99561327242E+03  0.10566000000E+00 0. -1.
          4    1    1    2  501    0 -0.43503782807E+03 -0.29900566819E+03  0.68222363009E+03  0.86260731675E+03  0.00000000000E+00 0.  1.
</event>
<event>
 5    1  0.4866530E-005  0.4791657E+03  0.7818608E-02  0.9588457E-01
          4   -1    0    0  502    0 -0.00000000000E+00  0.00000000000E+00  0.24926582823E+04  0.24926582823E+04  0.00000000000E+00 0.  1.
         21   -1    0    0  501  502  0.00000000000E+00 -0.00000000000E+00 -0.61815759448E+03  0.61815759448E+03  0.00000000000E+00 0.  1.
        -13    1    1    2    0    0 -0.30623076369E+03  0.17614130493E+03 -0.17038760962E+02  0.35368541173E+03  0.10566000000E+00 0.  1.
         13    1    1    2    0    0 -0.23186124592E+03  0.30274036735E+03  0.19934818393E+04  0.20296258823E+04  0.10566000000E+00 0. -1.
          4    1    1    2  501    0  0.53809200961E+03 -0.47888167229E+03 -0.10194239054E+03  0.72750458270E+03  0.00000000000E+00 0.  1.
</event>
<event>
 5    1  0.4866530E-005  0.4762394E+03  0.7818608E-02  0.9564231E-01
         21   -1    0    0  501  502  0.00000000000E+00  0.00000000000E+00  0.54170481036E+03  0.54170481036E+03  0.00000000000E+00 0. -1.
         -4   -1    0    0    0  501 -0.00000000000E+00 -0.00000000000E+00 -0.18955932534E+04  0.18955932534E+04  0.00000000000E+00 0. -1.
        -13    1    1    2    0    0 -0.30367516666E+03 -0.29524565920E+03 -0.12854083225E+04  0.13533895126E+04  0.10566000000E+00 0.  1.
         13    1    1    2    0    0  0.56003250512E+03 -0.44368284032E+02  0.18153082663E+03  0.59038834982E+03  0.10566000000E+00 0. -1.
         -4    1    1    2    0  502 -0.25635733846E+03  0.33961394323E+03 -0.25001094719E+03  0.49352020134E+03  0.00000000000E+00 0. -1.
</event>
<event>
 5    1  0.4866530E-005  0.4413607E+03  0.7818608E-02  0.9963647E-01
          4   -1    0    0  502    0 -0.00000000000E+00  0.00000000000E+00  0.24108110548E+04  0.24108110548E+04  0.00000000000E+00 0.  1.
         21   -1    0    0  501  502  0.00000000000E+00 -0.00000000000E+00 -0.13197766446E+03  0.13197766446E+03  0.00000000000E+00 0.  1.
        -13    1    1    2    0    0  0.32226371988E+03 -0.39178967984E+03  0.14963960046E+04  0.15800487563E+04  0.10566000000E+00 0.  1.
         13    1    1    2    0    0  0.85155066617E+01  0.13439672093E+03  0.26140868650E+03  0.29405697576E+03  0.10566000000E+00 0. -1.
          4    1    1    2  501    0 -0.33077922654E+03  0.25739295891E+03  0.52102869925E+03  0.66868298726E+03  0.00000000000E+00 0.  1.
</event>
<event>
 5    1  0.4866530E-005  0.4947475E+03  0.7818608E-02  0.9583377E-01
         21   -1    0    0  501  502  0.00000000000E+00  0.00000000000E+00  0.23401374113E+04  0.23401374113E+04  0.00000000000E+00 0.  1.
          4   -1    0    0  502    0 -0.00000000000E+00 -0.00000000000E+00 -0.48769669169E+03  0.48769669169E+03  0.00000000000E+00 0.  1.
        -13    1    1    2    0    0 -0.28351406447E+03  0.37478085566E+03  0.62016017615E+03  0.77809997415E+03  0.10566000000E+00 0.  1.
         13    1    1    2    0    0 -0.25540607480E+03 -0.24332326346E+03 -0.27263650368E+03  0.44583533719E+03  0.10566000000E+00 0. -1.
          4    1    1    2  501    0  0.53892013927E+03 -0.13145759221E+03  0.15049170471E+04  0.16038987916E+04  0.00000000000E+00 0.  1.
</event>
<event>
 5    1  0.4866530E-005  0.1387495E+03  0.7818608E-02  0.1112770E+00
         -4   -1    0    0    0  501 -0.00000000000E+00  0.00000000000E+00  0.38472359064E+03  0.38472359064E+03  0.00000000000E+00 0. -1.
         21   -1    0    0  501  502  0.00000000000E+00 -0.00000000000E+00 -0.12574552277E+03  0.12574552277E+03  0.00000000000E+00 0.  1.
        -13    1    1    2    0    0  0.12561782971E+03  0.79594254660E+02  0.12652056025E+03  0.19524996247E+03  0.10566000000E+00 0.  1.
         13    1    1    2    0    0 -0.12207322090E+03 -0.54030627931E+02  0.20138776889E+03  0.24161586172E+03  0.10566000000E+00 0. -1.
         -4    1    1    2    0  502 -0.35446088118E+01 -0.25563626728E+02 -0.68930261273E+02  0.73603289208E+02  0.00000000000E+00 0. -1.
</event>
<event>
 5    1  0.4866530E-005  0.1094559E+03  0.7818608E-02  0.1149792E+00
         -4   -1    0    0    0  501 -0.00000000000E+00  0.00000000000E+00  0.66151306524E+02  0.66151306524E+02  0.00000000000E+00 0. -1.
         21   -1    0    0  501  502  0.00000000000E+00 -0.00000000000E+00 -0.98661490279E+03  0.98661490279E+03  0.00000000000E+00 0. -1.
        -13    1    1    2    0    0 -0.76618772816E+02 -0.59248059043E+02 -0.13484035641E+03  0.16602018470E+03  0.10566000000E+00 0.  1.
         13    1    1    2    0    0  0.11137471996E+03  0.36144968070E+02 -0.18567875040E+02  0.11855616438E+03  0.10566000000E+00 0. -1.
         -4    1    1    2    0  502 -0.34755947148E+02  0.23103090973E+02 -0.76705536482E+03  0.76818986023E+03  0.00000000000E+00 0. -1.
</event>
<event>
 5    1  0.4866530E-005  0.4550216E+03  0.7818608E-02  0.9744572E-01
         21   -1    0    0  501  502  0.00000000000E+00  0.00000000000E+00  0.61361454194E+03  0.61361454194E+03  0.00000000000E+00 0. -1.
         -4   -1    0    0    0  501 -0.00000000000E+00 -0.00000000000E+00 -0.91353158352E+03  0.91353158352E+03  0.00000000000E+00 0. -1.
        -13    1    1    2    0    0  0.20794638685E+03  0.15192427801E+03 -0.41932067458E+03  0.49208995656E+03  0.10566000000E+00 0.  1.
         13    1    1    2    0    0  0.23540137599E+03 -0.35474105397E+03 -0.18076195828E+03  0.46252558839E+03  0.10566000000E+00 0. -1.
         -4    1    1    2    0  502 -0.44334776284E+03  0.20281677596E+03  0.30016559129E+03  0.57253058051E+03  0.00000000000E+00 0. -1.
</event>
<event>
 5    1  0.4866530E-005  0.2592526E+03  0.7818608E-02  0.1025707E+00
         21   -1    0    0  501  502  0.00000000000E+00  0.00000000000E+00  0.92958338120E+03  0.92958338120E+03  0.00000000000E+00 0.  1.
          4   -1    0    0  502    0 -0.00000000000E+00 -0.00000000000E+00 -0.14121196374E+03  0.14121196374E+03  0.00000000000E+00 0.  1.
        -13    1    1    2    0    0 -0.24514433240E+02 -0.26764091511E+03  0.85122527871E+02  0.28191926645E+03  0.10566000000E+00 0.  1.
         13    1    1    2    0    0  0.40056589263E+02  0.23840348899E+03  0.30468538925E+03  0.38893952164E+03  0.10566000000E+00 0. -1.
          4    1    1    2  501    0 -0.15542156023E+02  0.29237426127E+02  0.39856350034E+03  0.39993655685E+03  0.00000000000E+00 0.  1.
</event>
<event>
 5    1  0.4866530E-005  0.3895637E+03  0.7818608E-02  0.9812454E-01
         21   -1    0    0  501  502  0.00000000000E+00  0.00000000000E+00  0.33165938105E+03  0.33165938105E+03  0.00000000000E+00 0. -1.
          4   -1    0    0  502    0 -0.00000000000E+00 -0.00000000000E+00 -0.29034057057E+04  0.29034057057E+04  0.00000000000E+00 0.  1.
        -13    1    1    2    0    0 -0.19638020471E+03 -0.43760152146E+03 -0.22573505072E+04  0.23077459999E+04  0.10566000000E+00 0.  1.
         13    1    1    2    0    0  0.31856041825E+03  0.65231068293E+02  0.11598861367E+03  0.34523789191E+03  0.10566000000E+00 0. -1.
          4    1    1    2  501    0 -0.12218021354E+03  0.37237045317E+03 -0.43038443112E+03  0.58208119496E+03  0.00000000000E+00 0.  1.
</event>
<event>
 5    1  0.4866530E-005  0.4072192E+03  0.7818608E-02  0.9894071E-01
         -4   -1    0    0    0  501 -0.00000000000E+00  0.00000000000E+00  0.22405040993E+04  0.22405040993E+04  0.00000000000E+00 0. -1.
         21   -1    0    0  501  502  0.00000000000E+00 -0.00000000000E+00 -0.18195194060E+03  0.18195194060E+03  0.00000000000E+00 0. -1.
        -13    1    1    2    0    0  0.91100113321E+02 -0.19595530099E+03  0.65808862276E+03  0.69266034765E+03  0.10566000000E+00 0.  1.
         13    1    1    2    0    0 -0.18310735559E+01 -0.24728229984E+03  0.12169731198E+04  0.12418435788E+04  0.10566000000E+00 0. -1.
         -4    1    1    2    0  502 -0.89269039765E+02  0.44323760083E+03  0.18349041614E+03  0.48795211349E+03  0.00000000000E+00 0. -1.
</event>
<event>
 5    1  0.4866530E-005  0.4999537E+03  0.7818608E-02  0.9767894E-01
         -4   -1    0    0    0  501 -0.00000000000E+00  0.00000000000E+00  0.22801338208E+04  0.22801338208E+04  0.00000000000E+00 0. -1.
         21   -1    0    0  501  502  0.00000000000E+00 -0.00000000000E+00 -0.15685104881E+03  0.15685104881E+03  0.00000000000E+00 0. -1.
        -13    1    1    2    0    0  0.16858263010E+03  0.60665902668E+02  0.34310847328E+03  0.38707091149E+03  0.10566000000E+00 0.  1.
         13    1    1    2    0    0  0.10429507726E+03  0.43042803560E+03  0.94134301366E+03  0.10403232370E+04  0.10566000000E+00 0. -1.
         -4    1    1    2    0  502 -0.27287770736E+03 -0.49109393827E+03  0.83883128508E+03  0.10095907211E+04  0.00000000000E+00 0. -1.
</event>
<event>
 5    1  0.4866530E-005  0.4377314E+03  0.7818608E-02  0.9777760E-01
         21   -1    0    0  501  502  0.00000000000E+00  0.00000000000E+00  0.37770175125E+03  0.37770175125E+03  0.00000000000E+00 0.  1.
          4   -1    0    0  502    0 -0.00000000000E+00 -0.00000000000E+00 -0.13958835617E+04  0.13958835617E+04  0.00000000000E+00 0.  1.
        -13    1    1    2    0    0 -0.19190030258E+03  0.31991993809E+03 -0.17921768826E+02  0.37349122329E+03  0.10566000000E+00 0.  1.
         13    1    1    2    0    0 -0.73862133177E+02  0.24725935355E+03 -0.60940817341E+03  0.66179387699E+03  0.10566000000E+00 0. -1.
          4    1    1    2  501    0  0.26576243576E+03 -0.56717929164E+03 -0.39085186817E+03  0.73830021264E+03  0.00000000000E+00 0.  1.
</event>
<event>
 5    1  0.4866530E-005  0.5288423E+03  0.7818608E-02  0.9416901E-01
         21   -1    0    0  501  502  0.00000000000E+00  0.00000000000E+00  0.29007717418E+03  0.29007717418E+03  0.00000000000E+00 0. -1.
         -4   -1    0    0    0  501 -0.00000000000E+00 -0.00000000000E+00 -0.24704283201E+04  0.24704283201E+04  0.00000000000E+00 0. -1.
        -13    1    1    2    0    0 -0.39538052359E+03 -0.28522723548E+03 -0.11224493449E+04  0.12237536015E+04  0.10566000000E+00 0.  1.
         13    1    1    2    0    0  0.63426679613E+03  0.10121653172E+03 -0.10550713441E+04  0.12351982462E+04  0.10566000000E+00 0. -1.
         -4    1    1    2    0  502 -0.23888627254E+03  0.18401070376E+03 -0.28304569520E+01  0.30155364662E+03  0.00000000000E+00 0. -1.
</event>
<event>
 5    1  0.4866530E-005  0.7313375E+02  0.7818608E-02  0.1284599E+00
          4   -1    0    0  502    0 -0.00000000000E+00  0.00000000000E+00  0.28874633269E+02  0.28874633269E+02  0.00000000000E+00 0.  1.
         21   -1    0    0  501  502  0.00000000000E+00 -0.00000000000E+00 -0.24155388253E+03  0.24155388253E+03  0.00000000000E+00 0.  1.
        -13    1    1    2    0    0  0.62892153413E+02 -0.46970472817E+02 -0.12371428472E+03  0.14651581377E+03  0.10566000000E+00 0.  1.
         13    1    1    2    0    0 -0.18035885430E+02 -0.37260124905E+01 -0.16176152155E+02  0.24512351884E+02  0.10566000000E+00 0. -1.
          4    1    1    2  501    0 -0.44856267983E+02  0.50696485307E+02 -0.72788812386E+02  0.99400350143E+02  0.00000000000E+00 0.  1.
</event>
<event>
 5    1  0.4866530E-005  0.5081188E+03  0.7818608E-02  0.9603383E-01
         21   -1    0    0  501  502  0.00000000000E+00  0.00000000000E+00  0.36866347713E+03  0.36866347713E+03  0.00000000000E+00 0.  1.
          4   -1    0    0  502    0 -0.00000000000E+00 -0.00000000000E+00 -0.19422257840E+04  0.19422257840E+04  0.00000000000E+00 0.  1.
        -13    1    1    2    0    0  0.21696562946E+03  0.56680870618E+03 -0.22568927133E+03  0.64751976968E+03  0.10566000000E+00 0.  1.
         13    1    1    2    0    0 -0.27966877860E+03 -0.11720831478E+03 -0.11103897263E+04  0.11510507245E+04  0.10566000000E+00 0. -1.
          4    1    1    2  501    0  0.62703149144E+02 -0.44960039140E+03 -0.23748330924E+03  0.51231876701E+03  0.00000000000E+00 0.  1.
</event>
<event>
 5    1  0.4866530E-005  0.2917305E+03  0.7818608E-02  0.1010778E+00
         21   -1    0    0  501  502  0.00000000000E+00  0.00000000000E+00  0.12367527077E+03  0.12367527077E+03  0.00000000000E+00 0. -1.
          4   -1    0    0  502    0 -0.00000000000E+00 -0.00000000000E+00 -0.14094977427E+04  0.14094977427E+04  0.00000000000E+00 0.  1.
        -13    1    1    2    0    0 -0.27325706170E+03 -0.10730671248E+03 -0.11750976791E+04  0.12112137379E+04  0.10566000000E+00 0.  1.
         13    1    1    2    0    0  0.26088104592E+03  0.10771501249E+03 -0.11979064286E+03  0.30661254593E+03  0.10566000000E+00 0. -1.
          4    1    1    2  501    0  0.12376015773E+02 -0.40830000583E+00  0.90658499966E+01  0.15346729667E+02  0.00000000000E+00 0.  1.
</event>
<event>
 5    1  0.4866530E-005  0.5614124E+03  0.7818608E-02  0.9421854E-01
          4   -1    0    0  502    0 -0.00000000000E+00  0.00000000000E+00  0.12407811690E+04  0.12407811690E+04  0.00000000000E+00 0.  1.
         21   -1    0    0  501  502  0.00000000000E+00 -0.00000000000E+00 -0.69833100111E+03  0.69833100111E+03  0.00000000000E+00 0.  1.
        -13    1    1    2    0    0 -0.13578723438E+03 -0.33626414288E+03  0.18902020384E+03  0.40895035815E+03  0.10566000000E+00 0.  1.
         13    1    1    2    0    0 -0.62137184890E+03  0.14693749547E+03  0.39112638402E+03  0.74878131762E+03  0.10566000000E+00 0. -1.
          4    1    1    2  501    0  0.75715908328E+03  0.18932664741E+03 -0.37696419992E+02  0.78138049431E+03  0.00000000000E+00 0.  1.
</event>
<event>
 5    1  0.4866530E-005  0.1851684E+03  0.7818608E-02  0.1089800E+00
          4   -1    0    0  502    0 -0.00000000000E+00  0.00000000000E+00  0.11174181861E+04  0.11174181861E+04  0.00000000000E+00 0.  1.
         21   -1    0    0  501  502  0.00000000000E+00 -0.00000000000E+00 -0.26744857385E+03  0.26744857385E+03  0.00000000000E+00 0.  1.
        -13    1    1    2    0    0  0.18453955846E+03  0.16227802617E+02 -0.18983811859E+03  0.26524839801E+03  0.10566000000E+00 0.  1.
         13    1    1    2    0    0 -0.12923090768E+02  0.10784524638E+03  0.75372479561E+02  0.13220675202E+03  0.10566000000E+00 0. -1.
          4    1    1    2  501    0 -0.17161646769E+03 -0.12407304899E+03  0.96443525131E+03  0.98741160994E+03  0.00000000000E+00 0.  1.
</event>
<event>
 5    1  0.4866530E-005  0.5148945E+02  0.7818608E-02  0.1285841E+00
         21   -1    0    0  501  502  0.00000000000E+00  0.00000000000E+00  0.28961843356E+02  0.28961843356E+02  0.00000000000E+00 0.  1.
         -4   -1    0    0    0  501 -0.00000000000E+00 -0.00000000000E+00 -0.34502490421E+03  0.34502490421E+03  0.00000000000E+00 0. -1.
        -13    1    1    2    0    0  0.59759635422E+02 -0.98718940470E+01 -0.65610998536E+02  0.89294359345E+02  0.10566000000E+00 0.  1.
         13    1    1    2    0    0 -0.49268547202E+02  0.66084862258E+01 -0.26320575318E+03  0.26785880890E+03  0.10566000000E+00 0. -1.
         -4    1    1    2    0  502 -0.10491088221E+02  0.32634078212E+01  0.12753690854E+02  0.16833579330E+02  0.00000000000E+00 0. -1.
</event>
<event>
 5    1  0.4866530E-005  0.4637789E+03  0.7818608E-02  0.9653100E-01
         21   -1    0    0  501  502  0.00000000000E+00  0.00000000000E+00  0.26338256846E+03  0.26338256846E+03  0.00000000000E+00 0.  1.
          4   -1    0    0  502    0 -0.00000000000E+00 -0.00000000000E+00 -0.24814762736E+04  0.24814762736E+04  0.00000000000E+00 0.  1.
        -13    1    1    2    0    0 -0.52627576770E+03  0.22960017087E+02 -0.16681136343E+03  0.55255713568E+03  0.10566000000E+00 0.  1.
         13    1    1    2    0    0  0.21071756945E+03 -0.25978347564E+03 -0.13160961234E+04  0.13579390139E+04  0.10566000000E+00 0. -1.
          4    1    1    2  501    0  0.31555819826E+03  0.23682345855E+03 -0.73518621835E+03  0.83436269251E+03  0.00000000000E+00 0.  1.
</event>
<event>
 5    1  0.4866530E-005  0.4190756E+03  0.7818608E-02  0.9740382E-01
         21   -1    0    0  501  502  0.00000000000E+00  0.00000000000E+00  0.35373066888E+03  0.35373066888E+03  0.00000000000E+00 0.  1.
          4   -1    0    0  502    0 -0.00000000000E+00 -0.00000000000E+00 -0.15013921685E+04  0.15013921685E+04  0.00000000000E+00 0.  1.
        -13    1    1    2    0    0 -0.48492414106E+03 -0.18891395494E+03 -0.94193284972E+03  0.10761400511E+04  0.10566000000E+00 0.  1.
         13    1    1    2    0    0  0.90259172383E+02  0.32204269681E+03 -0.79658269415E+02  0.34380760291E+03  0.10566000000E+00 0. -1.
          4    1    1    2  501    0  0.39466496868E+03 -0.13312874188E+03 -0.12607038049E+03  0.43517518341E+03  0.00000000000E+00 0.  1.
</event>
<event>
 5    1  0.4866530E-005  0.5056075E+03  0.7818608E-02  0.9658361E-01
         21   -1    0    0  501  502  0.00000000000E+00  0.00000000000E+00  0.28110991355E+03  0.28110991355E+03  0.00000000000E+00 0.  1.
          4   -1    0    0  502    0 -0.00000000000E+00 -0.00000000000E+00 -0.18491478191E+04  0.18491478191E+04  0.00000000000E+00 0.  1.
        -13    1    1    2    0    0  0.21312126835E+03  0.38607326910E+03 -0.53335583527E+03  0.69205614102E+03  0.10566000000E+00 0.  1.
         13    1    1    2    0    0  0.24892824499E+03 -0.47546581768E+02 -0.76349514470E+03  0.80445683274E+03  0.10566000000E+00 0. -1.
          4    1    1    2  501    0 -0.46204951335E+03 -0.33852668733E+03 -0.27118692558E+03  0.63374475890E+03  0.00000000000E+00 0.  1.
</event>
<event>
 5    1  0.4866530E-005  0.4974555E+03  0.7818608E-02  0.9525993E-01
         -4   -1    0    0    0  501 -0.00000000000E+00  0.00000000000E+00  0.14397572278E+04  0.14397572278E+04  0.00000000000E+00 0. -1.
         21   -1    0    0  501  502  0.00000000000E+00 -0.00000000000E+00 -0.54690843901E+03  0.54690843901E+03  0.00000000000E+00 0. -1.
        -13    1    1    2    0    0 -0.39053046486E+03 -0.17132657944E+03  0.77921925153E+03  0.88828457936E+03  0.10566000000E+00 0.  1.
         13    1    1    2    0    0 -0.10350911585E+03  0.47272849926E+03  0.17901591049E+03  0.51597778872E+03  0.10566000000E+00 0. -1.
         -4    1    1    2    0  502  0.49403958071E+03 -0.30140191982E+03 -0.65386373225E+02  0.58240329874E+03  0.00000000000E+00 0. -1.
</event>
<event>
 5    1  0.4866530E-005  0.2624726E+03  0.7818608E-02  0.1037538E+00
          4   -1    0    0  502    0 -0.00000000000E+00  0.00000000000E+00  0.15719430390E+04  0.15719430390E+04  0.00000000000E+00 0.  1.
         21   -1    0    0  501  502  0.00000000000E+00 -0.00000000000E+00 -0.94177776103E+02  0.94177776103E+02  0.00000000000E+00 0.  1.
        -13    1    1    2    0    0  0.20463405664E+02 -0.25060150901E+03  0.86227945374E+03  0.89819025535E+03  0.10566000000E+00 0.  1.
         13    1    1    2    0    0  0.16923151564E+03  0.38368878608E+02  0.25867009501E+03  0.31148307489E+03  0.10566000000E+00 0. -1.
          4    1    1    2  501    0 -0.18969492130E+03  0.21223263040E+03  0.35681571415E+03  0.45644748487E+03  0.00000000000E+00 0.  1.
</event>
<event>
 5    1  0.4866530E-005  0.3723454E+03  0.7818608E-02  0.1033316E+00
         -4   -1    0    0    0  501 -0.00000000000E+00  0.00000000000E+00  0.16859667587E+04  0.16859667587E+04  0.00000000000E+00 0. -1.
         21   -1    0    0  501  502  0.00000000000E+00 -0.00000000000E+00 -0.19590183697E+03  0.19590183697E+03  0.00000000000E+00 0. -1.
        -13    1    1    2    0    0  0.55242445468E+02  0.41605355085E+02 -0.14972699912E+02  0.70759637221E+02  0.10566000000E+00 0.  1.
         13    1    1    2    0    0  0.36232750268E+03  0.19701499902E+02  0.15136190147E+03  0.39316638295E+03  0.10566000000E+00 0. -1.
         -4    1    1    2    0  502 -0.41756994815E+03 -0.61306854987E+02  0.13536757202E+04  0.14179425755E+04  0.00000000000E+00 0. -1.
</event>
<event>
 5    1  0.4866530E-005  0.1866963E+02  0.7818608E-02  0.1529245E+00
         21   -1    0    0  501  502  0.00000000000E+00  0.00000000000E+00  0.27130133513E+02  0.27130133513E+02  0.00000000000E+00 0.  1.
          4   -1    0    0  502    0 -0.00000000000E+00 -0.00000000000E+00 -0.36088083502E+02  0.36088083502E+02  0.00000000000E+00 0.  1.
        -13    1    1    2    0    0 -0.14773541709E+02 -0.14966286824E+02 -0.23389680825E+02  0.31453705808E+02  0.10566000000E+00 0.  1.
         13    1    1    2    0    0  0.14654448185E+02  0.37685852091E+01  0.23877960636E+01  0.15318871374E+02  0.10566000000E+00 0. -1.
          4    1    1    2  501    0  0.11909352345E+00  0.11197701615E+02  0.12043934772E+02  0.16445639833E+02  0.00000000000E+00 0.  1.
</event>
<event>
 5    1  0.4866530E-005  0.4997880E+03  0.7818608E-02  0.9656158E-01
          4   -1    0    0  502    0 -0.00000000000E+00  0.00000000000E+00  0.92887727872E+03  0.92887727872E+03  0.00000000000E+00 0.  1.
         21   -1    0    0  501  502  0.00000000000E+00 -0.00000000000E+00 -0.45517491735E+03  0.45517491735E+03  0.00000000000E+00 0.  1.
        -13    1    1    2    0    0 -0.19155530492E+03 -0.50628341361E+03  0.13293611898E+03  0.55739425242E+03  0.10566000000E+00 0.  1.
         13    1    1    2    0    0 -0.18231497662E+03  0.19152323010E+03  0.11821282429E+03  0.28964492290E+03  0.10566000000E+00 0. -1.
          4    1    1    2  501    0  0.37387028154E+03  0.31476018351E+03  0.22255341810E+03  0.53701302074E+03  0.00000000000E+00 0.  1.
</event>
<event>
 5    1  0.4866530E-005  0.1894441E+03  0.7818608E-02  0.1067624E+00
         21   -1    0    0  501  502  0.00000000000E+00  0.00000000000E+00  0.48371352312E+03  0.48371352312E+03  0.00000000000E+00 0. -1.
         -4   -1    0    0    0  501 -0.00000000000E+00 -0.00000000000E+00 -0.17407256646E+03  0.17407256646E+03  0.00000000000E+00 0. -1.
        -13    1    1    2    0    0 -0.11549662996E+03  0.89169459988E+02  0.66075058485E+02  0.16017674189E+03  0.10566000000E+00 0.  1.
         13    1    1    2    0    0  0.16401168992E+03 -0.16881088220E+03 -0.15314492792E+01  0.23537056928E+03  0.10566000000E+00 0. -1.
         -4    1    1    2    0  502 -0.48515059965E+02  0.79641422212E+02  0.24509734745E+03  0.26223877841E+03  0.00000000000E+00 0. -1.
</event>
<event>
 5    1  0.4866530E-005  0.4302841E+03  0.7818608E-02  0.9982571E-01
         21   -1    0    0  501  502  0.00000000000E+00  0.00000000000E+00  0.15824588119E+03  0.15824588119E+03  0.00000000000E+00 0.  1.
          4   -1    0    0  502    0 -0.00000000000E+00 -0.00000000000E+00 -0.20184948696E+04  0.20184948696E+04  0.00000000000E+00 0.  1.
        -13    1    1    2    0    0  0.27630817347E+03  0.44253611146E+03 -0.13001378368E+04  0.14009078566E+04  0.10566000000E+00 0.  1.
         13    1    1    2    0    0 -0.22351886766E+02 -0.13470750455E+03 -0.16623454340E+03  0.21512706294E+03  0.10566000000E+00 0. -1.
          4    1    1    2  501    0 -0.25395628671E+03 -0.30782860691E+03 -0.39387660823E+03  0.56070583134E+03  0.00000000000E+00 0.  1.
</event>
<event>
 5    1  0.4866530E-005  0.5138632E+02  0.7818608E-02  0.1286245E+00
         -4   -1    0    0    0  501 -0.00000000000E+00  0.00000000000E+00  0.18233083132E+03  0.18233083132E+03  0.00000000000E+00 0. -1.
         21   -1    0    0  501  502  0.00000000000E+00 -0.00000000000E+00 -0.99882527517E+02  0.99882527517E+02  0.00000000000E+00 0. -1.
        -13    1    1    2    0    0  0.32771159492E+02 -0.38341630238E+02  0.63050176394E+02  0.80742587345E+02  0.10566000000E+00 0.  1.
         13    1    1    2    0    0 -0.90177433789E+01  0.54885150679E+02  0.10077125938E+03  0.11510237765E+03  0.10566000000E+00 0. -1.
         -4    1    1    2    0  502 -0.23753416113E+02 -0.16543520441E+02 -0.81373131976E+02  0.86368393833E+02  0.00000000000E+00 0. -1.
</event>
<event>
 5    1  0.4866530E-005  0.5178228E+03  0.7818608E-02  0.9439741E-01
          4   -1    0    0  502    0 -0.00000000000E+00  0.00000000000E+00  0.21563292473E+04  0.21563292473E+04  0.00000000000E+00 0.  1.
         21   -1    0    0  501  502  0.00000000000E+00 -0.00000000000E+00 -0.71004134683E+03  0.71004134683E+03  0.00000000000E+00 0.  1.
        -13    1    1    2    0    0 -0.62009449718E+03  0.15537261950E+03  0.64681750882E+02  0.64252749076E+03  0.10566000000E+00 0.  1.
         13    1    1    2    0    0  0.45892921223E+03  0.24678551076E+03  0.16390439930E+04  0.17198791621E+04  0.10566000000E+00 0. -1.
          4    1    1    2  501    0  0.16116528495E+03 -0.40215813026E+03 -0.25743784344E+03  0.50396394121E+03  0.00000000000E+00 0.  1.
</event>
<event>
 5    1  0.4866530E-005  0.5006250E+03  0.7818608E-02  0.9487977E-01
         21   -1    0    0  501  502  0.00000000000E+00  0.00000000000E+00  0.22267165162E+03  0.22267165162E+03  0.00000000000E+00 0.  1.
          4   -1    0    0  502    0 -0.00000000000E+00 -0.00000000000E+00 -0.30189756682E+04  0.30189756682E+04  0.00000000000E+00 0.  1.
        -13    1    1    2    0    0  0.16607546441E+03  0.32490552572E+03 -0.11487890944E+04  0.12053468609E+04  0.10566000000E+00 0.  1.
         13    1    1    2    0    0 -0.39601572619E+03  0.27174532762E+03 -0.10774792230E+04  0.11796760003E+04  0.10566000000E+00 0. -1.
          4    1    1    2  501    0  0.22994026178E+03 -0.59665085334E+03 -0.57003569918E+03  0.85662445863E+03  0.00000000000E+00 0.  1.
</event>
<event>
 5    1  0.4866530E-005  0.9031741E+02  0.7818608E-02  0.1181653E+00
         21   -1    0    0  501  502  0.00000000000E+00  0.00000000000E+00  0.49243842965E+03  0.49243842965E+03  0.00000000000E+00 0. -1.
         -4   -1    0    0    0  501 -0.00000000000E+00 -0.00000000000E+00 -0.53775704042E+02  0.53775704042E+02  0.00000000000E+00 0. -1.
        -13    1    1    2    0    0 -0.81237185068E+02  0.31160659118E+02  0.13728358712E+03  0.16253387761E+03  0.10566000000E+00 0.  1.
         13    1    1    2    0    0  0.81641757541E+02 -0.41456186089E+02  0.99883761785E+01  0.92107387120E+02  0.10566000000E+00 0. -1.
         -4    1    1    2    0  502 -0.40457247261E+00  0.10295526971E+02  0.29139076231E+03  0.29157286896E+03  0.00000000000E+00 0. -1.
</event>
<event>
 5    1  0.4866530E-005  0.3625486E+02  0.7818608E-02  0.1362804E+00
          4   -1    0    0  502    0 -0.00000000000E+00  0.00000000000E+00  0.32476486273E+03  0.32476486273E+03  0.00000000000E+00 0.  1.
         21   -1    0    0  501  502  0.00000000000E+00 -0.00000000000E+00 -0.12897222887E+03  0.12897222887E+03  0.00000000000E+00 0. -1.
        -13    1    1    2    0    0  0.46269849368E+02 -0.50339279704E+02  0.30982679570E+03  0.31728157296E+03  0.10566000000E+00 0.  1.
         13    1    1    2    0    0 -0.16638328271E+02  0.30738797352E+02 -0.79794816111E+02  0.87114473381E+02  0.10566000000E+00 0. -1.
          4    1    1    2  501    0 -0.29631521098E+02  0.19600482352E+02 -0.34239345735E+02  0.49341045260E+02  0.00000000000E+00 0.  1.
</event>
<event>
 5    1  0.4866530E-005  0.4597361E+03  0.7818608E-02  0.1017108E+00
         21   -1    0    0  501  502  0.00000000000E+00  0.00000000000E+00  0.12417357227E+03  0.12417357227E+03  0.00000000000E+00 0.  1.
          4   -1    0    0  502    0 -0.00000000000E+00 -0.00000000000E+00 -0.22651448594E+04  0.22651448594E+04  0.00000000000E+00 0.  1.
        -13    1    1    2    0    0 -0.22625321101E+03 -0.41220257010E+03 -0.12576055278E+04  0.13426366407E+04  0.10566000000E+00 0.  1.
         13    1    1    2    0    0 -0.42174306326E+02  0.43957412049E+02 -0.30159569505E+03  0.30768636730E+03  0.10566000000E+00 0. -1.
          4    1    1    2  501    0  0.26842751733E+03  0.36824515805E+03 -0.58177006433E+03  0.73899542369E+03  0.00000000000E+00 0.  1.
</event>
<event>
 5    1  0.4866530E-005  0.6330318E+03  0.7818608E-02  0.9226234E-01
         21   -1    0    0  501  502  0.00000000000E+00  0.00000000000E+00  0.75388566934E+03  0.75388566934E+03  0.00000000000E+00 0. -1.
         -4   -1    0    0    0  501 -0.00000000000E+00 -0.00000000000E+00 -0.95323490129E+03  0.95323490129E+03  0.00000000000E+00 0. -1.
        -13    1    1    2    0    0 -0.27516947401E+03  0.46939580217E+03 -0.11848548361E+03  0.55685678546E+03  0.10566000000E+00 0.  1.
         13    1    1    2    0    0  0.20047065074E+03 -0.71819926580E+03 -0.30648957213E+03  0.80618517487E+03  0.10566000000E+00 0. -1.
         -4    1    1    2    0  502  0.74698823265E+02  0.24880346362E+03  0.22562582378E+03  0.34407861030E+03  0.00000000000E+00 0. -1.
</event>
<event>
 5    1  0.4866530E-005  0.2949177E+03  0.7818608E-02  0.1021648E+00
          4   -1    0    0  502    0 -0.00000000000E+00  0.00000000000E+00  0.23642254123E+04  0.23642254123E+04  0.00000000000E+00 0.  1.
         21   -1    0    0  501  502  0.00000000000E+00 -0.00000000000E+00 -0.21736040294E+03  0.21736040294E+03  0.00000000000E+00 0.  1.
        -13    1    1    2    0    0 -0.26062487487E+03  0.36564049776E+03  0.10651241312E+04  0.11559012609E+04  0.10566000000E+00 0.  1.
         13    1    1    2    0    0  0.37374697102E+02 -0.19643835671E+03  0.11246534875E+04  0.11422917202E+04  0.10566000000E+00 0. -1.
          4    1    1    2  501    0  0.22325017777E+03 -0.16920214105E+03 -0.42912609279E+02  0.28339283415E+03  0.00000000000E+00 0.  1.
</event>
<event>
 5    1  0.4866530E-005  0.4677160E+02  0.7818608E-02  0.1305522E+00
          4   -1    0    0  502    0 -0.00000000000E+00  0.00000000000E+00  0.43540947572E+02  0.43540947572E+02  0.00000000000E+00 0.  1.
         21   -1    0    0  501  502  0.00000000000E+00 -0.00000000000E+00 -0.44843923038E+03  0.44843923038E+03  0.00000000000E+00 0.  1.
        -13    1    1    2    0    0 -0.48744859613E+02 -0.75393974096E+01  0.15875578565E+02  0.51816493617E+02  0.10566000000E+00 0.  1.
         13    1    1    2    0    0  0.36945271475E+02  0.20029429429E+02 -0.36961487924E+02  0.55966899871E+02  0.10566000000E+00 0. -1.
          4    1    1    2  501    0  0.11799588138E+02 -0.12490032019E+02 -0.38381237345E+03  0.38419678447E+03  0.00000000000E+00 0.  1.
</event>
<event>
 5    1  0.4866530E-005  0.4183094E+02  0.7818608E-02  0.1329163E+00
         21   -1    0    0  501  502  0.00000000000E+00  0.00000000000E+00  0.81927841285E+02  0.81927841285E+02  0.00000000000E+00 0. -1.
          4   -1    0    0  502    0 -0.00000000000E+00 -0.00000000000E+00 -0.11891345748E+03  0.11891345748E+03  0.00000000000E+00 0.  1.
        -13    1    1    2    0    0  0.10776224458E+02 -0.40739263692E+02 -0.10653881476E+03  0.11457026156E+03  0.10566000000E+00 0.  1.
         13    1    1    2    0    0 -0.58937164141E+00  0.37540675835E+02  0.64088842029E+02  0.74276783302E+02  0.10566000000E+00 0. -1.
          4    1    1    2  501    0 -0.10186852816E+02  0.31985878569E+01  0.54643565282E+01  0.11994253910E+02  0.00000000000E+00 0.  1.
</event>
<event>
 5    1  0.4866530E-005  0.2252041E+03  0.7818608E-02  0.1045685E+00
         21   -1    0    0  501  502  0.00000000000E+00  0.00000000000E+00  0.67048085568E+02  0.67048085568E+02  0.00000000000E+00 0.  1.
         -4   -1    0    0    0  501 -0.00000000000E+00 -0.00000000000E+00 -0.24272402790E+04  0.24272402790E+04  0.00000000000E+00 0. -1.
        -13    1    1    2    0    0  0.11257794637E+03  0.18291917696E+03 -0.40718948393E+03  0.46036562241E+03  0.10566000000E+00 0.  1.
         13    1    1    2    0    0 -0.29544420840E+03 -0.57592546898E+02 -0.14960705210E+04  0.15260508499E+04  0.10566000000E+00 0. -1.
         -4    1    1    2    0  502  0.18286626203E+03 -0.12532663006E+03 -0.45693218859E+03  0.50787189227E+03  0.00000000000E+00 0. -1.
</event>
<event>
 5    1  0.4866530E-005  0.5118010E+03  0.7818608E-02  0.9452475E-01
         -4   -1    0    0    0  501 -0.00000000000E+00  0.00000000000E+00  0.78090849697E+03  0.78090849697E+03  0.00000000000E+00 0. -1.
         21   -1    0    0  501  502  0.00000000000E+00 -0.00000000000E+00 -0.92301879134E+03  0.92301879134E+03  0.00000000000E+00 0. -1.
        -13    1    1    2    0    0 -0.47631617565E+03 -0.86232169946E+02  0.24537056657E+03  0.54269679603E+03  0.10566000000E+00 0.  1.
         13    1    1    2    0    0  0.47195982292E+03  0.37842835931E+03  0.79712268283E+02  0.61017059455E+03  0.10566000000E+00 0. -1.
         -4    1    1    2    0  502  0.43563527341E+01 -0.29219618936E+03 -0.46719312922E+03  0.55105989772E+03  0.00000000000E+00 0. -1.
</event>
<event>
 5    1  0.4866530E-005  0.6279502E+03  0.7818608E-02  0.9650807E-01
         21   -1    0    0  501  502  0.00000000000E+00  0.00000000000E+00  0.62363970259E+03  0.62363970259E+03  0.00000000000E+00 0.  1.
          4   -1    0    0  502    0 -0.00000000000E+00 -0.00000000000E+00 -0.80249101028E+03  0.80249101028E+03  0.00000000000E+00 0.  1.
        -13    1    1    2    0    0  0.12223622430E+03 -0.58327706202E+03 -0.16565871012E+03  0.61854397177E+03  0.10566000000E+00 0.  1.
         13    1    1    2    0    0 -0.11341644239E+03 -0.74776586570E+02 -0.58515503821E+02  0.14791518737E+03  0.10566000000E+00 0. -1.
          4    1    1    2  501    0 -0.88197819029E+01  0.65805364859E+03  0.45322906255E+02  0.65967155373E+03  0.00000000000E+00 0.  1.
</event>
<event>
 5    1  0.4866530E-005  0.3433842E+03  0.7818608E-02  0.9908536E-01
          4   -1    0    0  502    0 -0.00000000000E+00  0.00000000000E+00  0.21177569401E+04  0.21177569401E+04  0.00000000000E+00 0.  1.
         21   -1    0    0  501  502  0.00000000000E+00 -0.00000000000E+00 -0.12473197580E+03  0.12473197580E+03  0.00000000000E+00 0.  1.
        -13    1    1    2    0    0  0.15379658924E+03 -0.32049607650E+03  0.36594141048E+03  0.51018060820E+03  0.10566000000E+00 0.  1.
         13    1    1    2    0    0  0.53377290945E+02  0.35113783032E+03  0.12660879964E+04  0.13149622568E+04  0.10566000000E+00 0. -1.
          4    1    1    2  501    0 -0.20717388019E+03 -0.30641753819E+02  0.36099555746E+03  0.41734605092E+03  0.00000000000E+00 0.  1.
</event>
<event>
 5    1  0.5439534E-005  0.4184550E+03  0.7818608E-02  0.1019799E+00
          4   -1    0    0  502    0 -0.00000000000E+00  0.00000000000E+00  0.10648188713E+04  0.10648188713E+04  0.00000000000E+00 0.  1.
         21   -1    0    0  501  502  0.00000000000E+00 -0.00000000000E+00 -0.31120230624E+03  0.31120230624E+03  0.00000000000E+00 0.  1.
        -13    1    1    2    0    0 -0.10291373430E+03 -0.43437797636E+03  0.56765659985E+03  0.72215613933E+03  0.10566000000E+00 0.  1.
         13    1    1    2    0    0  0.70160430046E+02  0.24129374483E+02  0.22838113689E+03  0.24013052181E+03  0.10566000000E+00 0. -1.
          4    1    1    2  501    0  0.32753304250E+02  0.41024860188E+03 -0.42421171634E+02  0.41373451643E+03  0.00000000000E+00 0.  1.
</event>
<event>
 5    1  0.4866530E-005  0.4801667E+03  0.7818608E-02  0.9903495E-01
         21   -1    0    0  501  502  0.00000000000E+00  0.00000000000E+00  0.72903436665E+03  0.72903436665E+03  0.00000000000E+00 0.  1.
          4   -1    0    0  502    0 -0.00000000000E+00 -0.00000000000E+00 -0.55947660391E+03  0.55947660391E+03  0.00000000000E+00 0.  1.
        -13    1    1    2    0    0  0.36068222400E+03 -0.38092805756E+03  0.59609643395E+02  0.52796891243E+03  0.10566000000E+00 0.  1.
         13    1    1    2    0    0 -0.12676332411E+03 -0.15605951843E+02 -0.17683706431E+03  0.21813721496E+03  0.10566000000E+00 0. -1.
          4    1    1    2  501    0 -0.23391889989E+03  0.39653400940E+03  0.28678518365E+03  0.54240484317E+03  0.00000000000E+00 0.  1.
</event>
<event>
 5    1  0.4866530E-005  0.5012736E+03  0.7818608E-02  0.9892761E-01
         21   -1    0    0  501  502  0.00000000000E+00  0.00000000000E+00  0.40259908803E+03  0.40259908803E+03  0.00000000000E+00 0.  1.
          4   -1    0    0  502    0 -0.00000000000E+00 -0.00000000000E+00 -0.12520308600E+04  0.12520308600E+04  0.00000000000E+00 0.  1.
        -13    1    1    2    0    0  0.49535715855E+03 -0.11439939363E+03 -0.21729807560E+03  0.55288733085E+03  0.10566000000E+00 0.  1.
         13    1    1    2    0    0  0.64192942924E+01  0.11618544848E+03 -0.58645544605E+03  0.59788817277E+03  0.10566000000E+00 0. -1.
          4    1    1    2  501    0 -0.50177645284E+03 -0.17860548494E+01 -0.45678250360E+02  0.50385444444E+03  0.00000000000E+00 0.  1.
</event>
<event>
 5    1  0.4866530E-005  0.5021601E+03  0.7818608E-02  0.9549904E-01
         21   -1    0    0  501  502  0.00000000000E+00  0.00000000000E+00  0.13823491393E+04  0.13823491393E+04  0.00000000000E+00 0.  1.
          4   -1    0    0  502    0 -0.00000000000E+00 -0.00000000000E+00 -0.43562910197E+03  0.43562910197E+03  0.00000000000E+00 0.  1.
        -13    1    1    2    0    0 -0.18223810688E+03 -0.51628600526E+03  0.17942139891E+03  0.57615450738E+03  0.10566000000E+00 0.  1.
         13    1    1    2    0    0 -0.27809313104E+03  0.25947952201E+03  0.55662502567E+03  0.67416380965E+03  0.10566000000E+00 0. -1.
          4    1    1    2  501    0  0.46033123792E+03  0.25680648325E+03  0.21067361271E+03  0.56765992419E+03  0.00000000000E+00 0.  1.
</event>
<event>
 5    1  0.4866530E-005  0.6392205E+03  0.7818608E-02  0.9216142E-01
         21   -1    0    0  501  502  0.00000000000E+00  0.00000000000E+00  0.24652802189E+03  0.24652802189E+03  0.00000000000E+00 0. -1.
         -4   -1    0    0    0  501 -0.00000000000E+00 -0.00000000000E+00 -0.41409370116E+04  0.41409370116E+04  0.00000000000E+00 0. -1.
        -13    1    1    2    0    0 -0.56680742572E+03  0.21350159811E+03 -0.24615107764E+04  0.25349337080E+04  0.10566000000E+00 0.  1.
         13    1    1    2    0    0  0.67918214974E+03 -0.21164914604E+03 -0.15405682526E+04  0.16968895974E+04  0.10566000000E+00 0. -1.
         -4    1    1    2    0  502 -0.11237472401E+03 -0.18524520703E+01  0.10767003931E+03  0.15564172815E+03  0.00000000000E+00 0. -1.
</event>
<event>
 5    1  0.4866530E-005  0.4902221E+03  0.7818608E-02  0.9561574E-01
         21   -1    0    0  501  502  0.00000000000E+00  0.00000000000E+00  0.49311540958E+03  0.49311540958E+03  0.00000000000E+00 0.  1.
          4   -1    0    0  502    0 -0.00000000000E+00 -0.00000000000E+00 -0.12032790269E+04  0.12032790269E+04  0.00000000000E+00 0.  1.
        -13    1    1    2    0    0 -0.60773673699E+03  0.39017996990E+02 -0.72427552500E+02  0.61327979512E+03  0.10566000000E+00 0.  1.
         13    1    1    2    0    0  0.28960379941E+03  0.26424580702E+03 -0.47153142684E+03  0.61321945894E+03  0.10566000000E+00 0. -1.
          4    1    1    2  501    0  0.31813293758E+03 -0.30326380401E+03 -0.16620463801E+03  0.46989518245E+03  0.00000000000E+00 0.  1.
</event>
<event>
 5    1  0.4866530E-005  0.4221451E+03  0.7818608E-02  0.9791857E-01
          4   -1    0    0  502    0 -0.00000000000E+00  0.00000000000E+00  0.65032743541E+03  0.65032743541E+03  0.00000000000E+00 0.  1.
         21   -1    0    0  501  502  0.00000000000E+00 -0.00000000000E+00 -0.89163082141E+03  0.89163082141E+03  0.00000000000E+00 0.  1.
        -13    1    1    2    0    0  0.17432511447E+03  0.20757810032E+03  0.16996191733E+03  0.31994527309E+03  0.10566000000E+00 0.  1.
         13    1    1    2    0    0  0.27161057923E+03 -0.37222132365E+02  0.27352013763E+03  0.38726098530E+03  0.10566000000E+00 0. -1.
          4    1    1    2  501    0 -0.44593569370E+03 -0.17035596795E+03 -0.68478544096E+03  0.83475199843E+03  0.00000000000E+00 0.  1.
</event>
<event>
 5    1  0.4866530E-005  0.5004067E+03  0.7818608E-02  0.9525740E-01
         21   -1    0    0  501  502  0.00000000000E+00  0.00000000000E+00  0.49970711268E+03  0.49970711268E+03  0.00000000000E+00 0.  1.
         -4   -1    0    0    0  501 -0.00000000000E+00 -0.00000000000E+00 -0.11505743223E+04  0.11505743223E+04  0.00000000000E+00 0. -1.
        -13    1    1    2    0    0  0.41890548079E+03 -0.19096996488E+02 -0.27544724454E+03  0.50171475242E+03  0.10566000000E+00 0.  1.
         13    1    1    2    0    0 -0.40126150022E+03  0.47440197797E+03 -0.14529875242E+03  0.63810639150E+03  0.10566000000E+00 0. -1.
         -4    1    1    2    0  502 -0.17643980572E+02 -0.45530498148E+03 -0.23012121262E+03  0.51046029102E+03  0.00000000000E+00 0. -1.
</event>
<event>
 5    1  0.4866530E-005  0.3239223E+03  0.7818608E-02  0.9978927E-01
         -4   -1    0    0    0  501 -0.00000000000E+00  0.00000000000E+00  0.18223167138E+04  0.18223167138E+04  0.00000000000E+00 0. -1.
         21   -1    0    0  501  502  0.00000000000E+00 -0.00000000000E+00 -0.18911698293E+03  0.18911698293E+03  0.00000000000E+00 0.  1.
        -13    1    1    2    0    0 -0.36006589086E+03  0.10142708313E+03  0.39882315061E+03  0.54680418395E+03  0.10566000000E+00 0.  1.
         13    1    1    2    0    0  0.30258012678E+03 -0.74709913147E+02  0.13210114768E+04  0.13572794986E+04  0.10566000000E+00 0. -1.
         -4    1    1    2    0  502  0.57485764088E+02 -0.26717169987E+02 -0.86634896554E+02  0.10735001419E+03  0.00000000000E+00 0. -1.
</event>
<event>
 5    1  0.4866530E-005  0.4866264E+03  0.7818608E-02  0.9546417E-01
         21   -1    0    0  501  502  0.00000000000E+00  0.00000000000E+00  0.14515776662E+04  0.14515776662E+04  0.00000000000E+00 0. -1.
         -4   -1    0    0    0  501 -0.00000000000E+00 -0.00000000000E+00 -0.87601122944E+03  0.87601122944E+03  0.00000000000E+00 0. -1.
        -13    1    1    2    0    0 -0.42288665707E+03 -0.16865341998E+02 -0.60613639966E+03  0.73926917334E+03  0.10566000000E+00 0.  1.
         13    1    1    2    0    0 -0.15098555422E+03 -0.31641960431E+03  0.20084046994E+03  0.40404815196E+03  0.10566000000E+00 0. -1.
         -4    1    1    2    0  502  0.57387221130E+03  0.33328494630E+03  0.98086236645E+03  0.11842715703E+04  0.00000000000E+00 0. -1.
</event>
<event>
 5    1  0.4866530E-005  0.1151636E+03  0.7818608E-02  0.1141649E+00
          4   -1    0    0  502    0 -0.00000000000E+00  0.00000000000E+00  0.16141767328E+03  0.16141767328E+03  0.00000000000E+00 0.  1.
         21   -1    0    0  501  502  0.00000000000E+00 -0.00000000000E+00 -0.31251046907E+03  0.31251046907E+03  0.00000000000E+00 0. -1.
        -13    1    1    2    0    0 -0.88539082191E+02  0.78296615810E+02  0.12265864995E+03  0.17033697395E+03  0.10566000000E+00 0.  1.
         13    1    1    2    0    0  0.73848943957E+02 -0.59134037842E+02 -0.14880668523E+03  0.17633474328E+03  0.10566000000E+00 0. -1.
          4    1    1    2  501    0  0.14690138235E+02 -0.19162577967E+02 -0.12494476051E+03  0.12725642513E+03  0.00000000000E+00 0.  1.
</event>
<event>
 5    1  0.4866530E-005  0.4575318E+03  0.7818608E-02  0.9576251E-01
         21   -1    0    0  501  502  0.00000000000E+00  0.00000000000E+00  0.26268497575E+03  0.26268497575E+03  0.00000000000E+00 0.  1.
         -4   -1    0    0    0  501 -0.00000000000E+00 -0.00000000000E+00 -0.20843680561E+04  0.20843680561E+04  0.00000000000E+00 0. -1.
        -13    1    1    2    0    0 -0.29832685559E+03 -0.25248262766E+03 -0.39060076555E+03  0.55255348994E+03  0.10566000000E+00 0.  1.
         13    1    1    2    0    0  0.82573639752E+02  0.54303113109E+03 -0.12970887472E+04  0.14085952025E+04  0.10566000000E+00 0. -1.
         -4    1    1    2    0  502  0.21575321583E+03 -0.29054850343E+03 -0.13399356761E+03  0.38590433937E+03  0.00000000000E+00 0. -1.
</event>
<event>
 5    1  0.4866530E-005  0.4506434E+03  0.7818608E-02  0.9716792E-01
         21   -1    0    0  501  502  0.00000000000E+00  0.00000000000E+00  0.67019787990E+03  0.67019787990E+03  0.00000000000E+00 0.  1.
          4   -1    0    0  502    0 -0.00000000000E+00 -0.00000000000E+00 -0.15181905890E+04  0.15181905890E+04  0.00000000000E+00 0.  1.
        -13    1    1    2    0    0 -0.48360695615E+03  0.88347069401E+02 -0.10803374616E+03  0.50334103169E+03  0.10566000000E+00 0.  1.
         13    1    1    2    0    0  0.66987200229E+02 -0.28408018432E+03 -0.10761579852E+04  0.11150358094E+04  0.10566000000E+00 0. -1.
          4    1    1    2  501    0  0.41661975592E+03  0.19573311492E+03  0.33619902220E+03  0.57001162780E+03  0.00000000000E+00 0.  1.
</event>
<event>
 5    1  0.5813628E-005  0.3301355E+03  0.7818608E-02  0.1034683E+00
          4   -1    0    0  502    0 -0.00000000000E+00  0.00000000000E+00  0.10296212949E+04  0.10296212949E+04  0.00000000000E+00 0.  1.
         21   -1    0    0  501  502  0.00000000000E+00 -0.00000000000E+00 -0.42688161379E+03  0.42688161379E+03  0.00000000000E+00 0.  1.
        -13    1    1    2    0    0  0.98535230996E+02  0.29551999949E+03  0.46010345752E+03  0.55564058944E+03  0.10566000000E+00 0.  1.
         13    1    1    2    0    0 -0.86871834557E+02  0.38807896377E+02  0.44188860379E+03  0.45201583798E+03  0.10566000000E+00 0. -1.
          4    1    1    2  501    0 -0.11663396439E+02 -0.33432789586E+03 -0.29925238015E+03  0.44884648132E+03  0.00000000000E+00 0.  1.
</event>
<event>
 5    1  0.4866530E-005  0.1031782E+03  0.7818608E-02  0.1192182E+00
         21   -1    0    0  501  502  0.00000000000E+00  0.00000000000E+00  0.93600018831E+02  0.93600018831E+02  0.00000000000E+00 0.  1.
          4   -1    0    0  502    0 -0.00000000000E+00 -0.00000000000E+00 -0.18458472372E+03  0.18458472372E+03  0.00000000000E+00 0.  1.
        -13    1    1    2    0    0  0.57215992462E+02  0.88722284954E+02 -0.14905630965E+02  0.10661849108E+03  0.10566000000E+00 0.  1.
         13    1    1    2    0    0 -0.44406921069E+02  0.16626419716E+02 -0.27907344921E+02  0.55020392001E+02  0.10566000000E+00 0. -1.
          4    1    1    2  501    0 -0.12809071393E+02 -0.10534870467E+03 -0.48171729005E+02  0.11654585948E+03  0.00000000000E+00 0.  1.
</event>
<event>
 5    1  0.4866530E-005  0.1223695E+03  0.7818608E-02  0.1132079E+00
          4   -1    0    0  502    0 -0.00000000000E+00  0.00000000000E+00  0.13132604782E+03  0.13132604782E+03  0.00000000000E+00 0.  1.
         21   -1    0    0  501  502  0.00000000000E+00 -0.00000000000E+00 -0.30182842695E+03  0.30182842695E+03  0.00000000000E+00 0.  1.
        -13    1    1    2    0    0 -0.65997231250E+02 -0.11557826774E+03  0.31204448412E+02  0.13670295999E+03  0.10566000000E+00 0.  1.
         13    1    1    2    0    0  0.64012229948E+02  0.88937949028E+02 -0.18284363056E+02  0.11109389478E+03  0.10566000000E+00 0. -1.
          4    1    1    2  501    0  0.19850013017E+01  0.26640318708E+02 -0.18342246449E+03  0.18535762000E+03  0.00000000000E+00 0.  1.
</event>
<event>
 5    1  0.4866530E-005  0.5288774E+03  0.7818608E-02  0.9416830E-01
         21   -1    0    0  501  502  0.00000000000E+00  0.00000000000E+00  0.72384448949E+03  0.72384448949E+03  0.00000000000E+00 0. -1.
         -4   -1    0    0    0  501 -0.00000000000E+00 -0.00000000000E+00 -0.17512544693E+04  0.17512544693E+04  0.00000000000E+00 0. -1.
        -13    1    1    2    0    0 -0.22914896079E+03  0.46797016955E+03 -0.11552126544E+04  0.12672890807E+04  0.10566000000E+00 0.  1.
         13    1    1    2    0    0  0.60594634072E+03 -0.36221038130E+03  0.31612269661E+03  0.77349912646E+03  0.10566000000E+00 0. -1.
         -4    1    1    2    0  502 -0.37679737993E+03 -0.10575978825E+03 -0.18832002198E+03  0.43431075167E+03  0.00000000000E+00 0. -1.
</event>
<event>
 5    1  0.4866530E-005  0.5053129E+03  0.7818608E-02  0.9539996E-01
         21   -1    0    0  501  502  0.00000000000E+00  0.00000000000E+00  0.47298862469E+03  0.47298862469E+03  0.00000000000E+00 0. -1.
         -4   -1    0    0    0  501 -0.00000000000E+00 -0.00000000000E+00 -0.13516421102E+04  0.13516421102E+04  0.00000000000E+00 0. -1.
        -13    1    1    2    0    0  0.27471932698E+03 -0.27233016705E+03 -0.58759926993E+03  0.70349651150E+03  0.10566000000E+00 0.  1.
         13    1    1    2    0    0 -0.63788779400E+03  0.13566269421E+03 -0.28800420814E+02  0.65278992007E+03  0.10566000000E+00 0. -1.
         -4    1    1    2    0  502  0.36316846702E+03  0.13666747284E+03 -0.26225379474E+03  0.46834430329E+03  0.00000000000E+00 0. -1.
</event>
<event>
 5    1  0.4866530E-005  0.4577770E+03  0.7818608E-02  0.1034207E+00
         21   -1    0    0  501  502  0.00000000000E+00  0.00000000000E+00  0.16999618733E+04  0.16999618733E+04  0.00000000000E+00 0. -1.
         -4   -1    0    0    0  501 -0.00000000000E+00 -0.00000000000E+00 -0.22349031225E+03  0.22349031225E+03  0.00000000000E+00 0. -1.
        -13    1    1    2    0    0 -0.17839149946E+02 -0.31512126606E+02 -0.71841370857E+02  0.80451495478E+02  0.10566000000E+00 0.  1.
         13    1    1    2    0    0  0.42822421856E+03  0.21369614587E+03  0.45194716633E+03  0.65825396044E+03  0.10566000000E+00 0. -1.
         -4    1    1    2    0  502 -0.41038506861E+03 -0.18218401927E+03  0.10963657656E+04  0.11847467296E+04  0.00000000000E+00 0. -1.
</event>
<event>
 5    1  0.4866530E-005  0.3975905E+03  0.7818608E-02  0.1003233E+00
         21   -1    0    0  501  502  0.00000000000E+00  0.00000000000E+00  0.21945701574E+03  0.21945701574E+03  0.00000000000E+00 0. -1.
         -4   -1    0    0    0  501 -0.00000000000E+00 -0.00000000000E+00 -0.16717822899E+04  0.16717822899E+04  0.00000000000E+00 0. -1.
        -13    1    1    2    0    0 -0.11120993644E+03  0.96241464632E+02 -0.45430922849E+03  0.47752168090E+03  0.10566000000E+00 0.  1.
         13    1    1    2    0    0 -0.24236138846E+03 -0.31599677075E+03 -0.80663427491E+02  0.40632450264E+03  0.10566000000E+00 0. -1.
         -4    1    1    2    0  502  0.35357132490E+03  0.21975530612E+03 -0.91735261818E+03  0.10073931221E+04  0.00000000000E+00 0. -1.
</event>
<event>
 5    1  0.4866530E-005  0.1114666E+03  0.7818608E-02  0.1146862E+00
         21   -1    0    0  501  502  0.00000000000E+00  0.00000000000E+00  0.36327179551E+02  0.36327179551E+02  0.00000000000E+00 0. -1.
         -4   -1    0    0    0  501 -0.00000000000E+00 -0.00000000000E+00 -0.77184950610E+03  0.77184950610E+03  0.00000000000E+00 0. -1.
        -13    1    1    2    0    0  0.10687884813E+03  0.13931263497E+02 -0.16265012517E+03  0.19512109743E+03  0.10566000000E+00 0.  1.
         13    1    1    2    0    0 -0.11278210219E+03 -0.32238106559E+01 -0.58503134990E+03  0.59581195612E+03  0.10566000000E+00 0. -1.
         -4    1    1    2    0  502  0.59032540591E+01 -0.10707452841E+02  0.12159148528E+02  0.17243632093E+02  0.00000000000E+00 0. -1.
</event>
<event>
 5    1  0.4866530E-005  0.1019012E+03  0.7818608E-02  0.1161448E+00
         -4   -1    0    0    0  501 -0.00000000000E+00  0.00000000000E+00  0.17111081442E+03  0.17111081442E+03  0.00000000000E+00 0. -1.
         21   -1    0    0  501  502  0.00000000000E+00 -0.00000000000E+00 -0.20845626400E+03  0.20845626400E+03  0.00000000000E+00 0.  1.
        -13    1    1    2    0    0  0.73942445206E+02  0.51007419674E+02 -0.13773329533E+03  0.16443756831E+03  0.10566000000E+00 0.  1.
         13    1    1    2    0    0 -0.85974928020E+02 -0.57196366331E+02  0.13960412700E+03  0.17364456804E+03  0.10566000000E+00 0. -1.
         -4    1    1    2    0  502  0.12032482814E+02  0.61889466562E+01 -0.39216281250E+02  0.41484942069E+02  0.00000000000E+00 0. -1.
</event>
<event>
 5    1  0.4866530E-005  0.3161022E+03  0.7818608E-02  0.1034917E+00
          4   -1    0    0  502    0 -0.00000000000E+00  0.00000000000E+00  0.36436620210E+04  0.36436620210E+04  0.00000000000E+00 0.  1.
         21   -1    0    0  501  502  0.00000000000E+00 -0.00000000000E+00 -0.83123111766E+02  0.83123111766E+02  0.00000000000E+00 0.  1.
        -13    1    1    2    0    0  0.19391343023E+03 -0.23448311250E+03  0.31534352871E+03  0.43820805645E+03  0.10566000000E+00 0.  1.
         13    1    1    2    0    0  0.37178765420E+02 -0.10099049387E+03  0.39420740594E+03  0.40863287987E+03  0.10566000000E+00 0. -1.
          4    1    1    2  501    0 -0.23109219565E+03  0.33547360636E+03  0.28509879746E+04  0.28799441965E+04  0.00000000000E+00 0.  1.
</event>
<event>
 5    1  0.4866530E-005  0.2077493E+03  0.7818608E-02  0.1054949E+00
         -4   -1    0    0    0  501 -0.00000000000E+00  0.00000000000E+00  0.55270934506E+03  0.55270934506E+03  0.00000000000E+00 0. -1.
         21   -1    0    0  501  502  0.00000000000E+00 -0.00000000000E+00 -0.86450311151E+02  0.86450311151E+02  0.00000000000E+00 0.  1.
        -13    1    1    2    0    0 -0.20187325881E+03 -0.15863211816E+00  0.20714647981E+03  0.28924472865E+03  0.10566000000E+00 0.  1.
         13    1    1    2    0    0  0.21312757450E+03  0.81396205894E+01  0.25976037043E+03  0.33610277840E+03  0.10566000000E+00 0. -1.
         -4    1    1    2    0  502 -0.11254315695E+02 -0.79809884712E+01 -0.64781632841E+00  0.13812149171E+02  0.00000000000E+00 0. -1.
</event>
<event>
 5    1  0.4866530E-005  0.4050523E+03  0.7818608E-02  0.9801477E-01
         21   -1    0    0  501  502  0.00000000000E+00  0.00000000000E+00  0.48541961225E+03  0.48541961225E+03  0.00000000000E+00 0.  1.
          4   -1    0    0  502    0 -0.00000000000E+00 -0.00000000000E+00 -0.10811795480E+04  0.10811795480E+04  0.00000000000E+00 0.  1.
        -13    1    1    2    0    0 -0.22681736187E+03 -0.82632288877E+02 -0.46722324026E+03  0.52590092053E+03  0.10566000000E+00 0.  1.
         13    1    1    2    0    0 -0.27234926927E+02 -0.29906991407E+03 -0.40582508164E+03  0.50485499185E+03  0.10566000000E+00 0. -1.
          4    1    1    2  501    0  0.25405228880E+03  0.38170220295E+03  0.27728838616E+03  0.53584324786E+03  0.00000000000E+00 0.  1.
</event>
<event>
 5    1  0.4866530E-005  0.6681600E+02  0.7818608E-02  0.1263545E+00
          4   -1    0    0  502    0 -0.00000000000E+00  0.00000000000E+00  0.31751791183E+03  0.31751791183E+03  0.00000000000E+00 0.  1.
         21   -1    0    0  501  502  0.00000000000E+00 -0.00000000000E+00 -0.79714549700E+02  0.79714549700E+02  0.00000000000E+00 0.  1.
        -13    1    1    2    0    0 -0.67228815231E+02  0.46786487577E+02  0.27350210090E+03  0.28550323882E+03  0.10566000000E+00 0.  1.
         13    1    1    2    0    0  0.35192159474E+02  0.11249852246E+02 -0.11256525519E+01  0.36963840732E+02  0.10566000000E+00 0. -1.
          4    1    1    2  501    0  0.32036655757E+02 -0.58036339823E+02 -0.34573086214E+02  0.74765381979E+02  0.00000000000E+00 0.  1.
</event>
<event>
 5    1  0.4866530E-005  0.5552455E+02  0.7818608E-02  0.1270796E+00
          4   -1    0    0  502    0 -0.00000000000E+00  0.00000000000E+00  0.28718423887E+03  0.28718423887E+03  0.00000000000E+00 0.  1.
         21   -1    0    0  501  502  0.00000000000E+00 -0.00000000000E+00 -0.20890053803E+02  0.20890053803E+02  0.00000000000E+00 0. -1.
        -13    1    1    2    0    0  0.46077037656E+02  0.13684371306E+02  0.48647083748E+02  0.68387903451E+02  0.10566000000E+00 0.  1.
         13    1    1    2    0    0 -0.57071971529E+02 -0.12548879353E+02  0.22063016652E+03  0.22823752069E+03  0.10566000000E+00 0. -1.
          4    1    1    2  501    0  0.10994933873E+02 -0.11354919530E+01 -0.29830651969E+01  0.11448868539E+02  0.00000000000E+00 0.  1.
</event>
<event>
 5    1  0.4866530E-005  0.5504441E+02  0.7818608E-02  0.1277435E+00
         21   -1    0    0  501  502  0.00000000000E+00  0.00000000000E+00  0.16531347284E+03  0.16531347284E+03  0.00000000000E+00 0. -1.
          4   -1    0    0  502    0 -0.00000000000E+00 -0.00000000000E+00 -0.14008870371E+03  0.14008870371E+03  0.00000000000E+00 0.  1.
        -13    1    1    2    0    0 -0.37002736968E+00 -0.47254128645E+02 -0.94084873687E+02  0.10528563157E+03  0.10566000000E+00 0.  1.
         13    1    1    2    0    0 -0.46212758306E+02  0.76578713343E+02  0.28403083956E+02  0.93843831495E+02  0.10566000000E+00 0. -1.
          4    1    1    2  501    0  0.46582785676E+02 -0.29324584698E+02  0.90906558860E+02  0.10627271349E+03  0.00000000000E+00 0.  1.
</event>
<event>
 5    1  0.4866530E-005  0.1159734E+03  0.7818608E-02  0.1140536E+00
         -4   -1    0    0    0  501 -0.00000000000E+00  0.00000000000E+00  0.13678947864E+03  0.13678947864E+03  0.00000000000E+00 0. -1.
         21   -1    0    0  501  502  0.00000000000E+00 -0.00000000000E+00 -0.12050016620E+03  0.12050016620E+03  0.00000000000E+00 0.  1.
        -13    1    1    2    0    0  0.75066482197E+02 -0.78300450875E+02  0.11575287331E+02  0.10908682687E+03  0.10566000000E+00 0.  1.
         13    1    1    2    0    0 -0.90179379984E+02  0.85404986939E+02  0.19711635207E+02  0.12575727452E+03  0.10566000000E+00 0. -1.
         -4    1    1    2    0  502  0.15112897787E+02 -0.71045360636E+01 -0.14997610099E+02  0.22445543452E+02  0.00000000000E+00 0. -1.
</event>
<event>
 5    1  0.4866530E-005  0.2272209E+03  0.7818608E-02  0.1042923E+00
         -4   -1    0    0    0  501 -0.00000000000E+00  0.00000000000E+00  0.84450835966E+03  0.84450835966E+03  0.00000000000E+00 0. -1.
         21   -1    0    0  501  502  0.00000000000E+00 -0.00000000000E+00 -0.31407306276E+03  0.31407306276E+03  0.00000000000E+00 0.  1.
        -13    1    1    2    0    0 -0.13555526227E+01  0.21942091240E+03  0.64213450915E+03  0.67858979754E+03  0.10566000000E+00 0.  1.
         13    1    1    2    0    0  0.56081034568E+02 -0.32931950474E+03 -0.12460901980E+03  0.35654429966E+03  0.10566000000E+00 0. -1.
         -4    1    1    2    0  502 -0.54725481945E+02  0.10989859234E+03  0.12909807549E+02  0.12344732522E+03  0.00000000000E+00 0. -1.
</event>
<event>
 5    1  0.4866530E-005  0.4277868E+03  0.7818608E-02  0.9772728E-01
         21   -1    0    0  501  502  0.00000000000E+00  0.00000000000E+00  0.20522721250E+03  0.20522721250E+03  0.00000000000E+00 0.  1.
         -4   -1    0    0    0  501 -0.00000000000E+00 -0.00000000000E+00 -0.33655932887E+04  0.33655932887E+04  0.00000000000E+00 0. -1.
        -13    1    1    2    0    0 -0.98292452657E+01  0.52745899374E+03 -0.83306946535E+03  0.98606001308E+03  0.10566000000E+00 0.  1.
         13    1    1    2    0    0 -0.16199213913E+03  0.23098290971E+03 -0.29233429578E+03  0.40626827267E+03  0.10566000000E+00 0. -1.
         -4    1    1    2    0  502  0.17182138439E+03 -0.75844190345E+03 -0.20349623151E+04  0.21784922155E+04  0.00000000000E+00 0. -1.
</event>
<event>
 5    1  0.4866530E-005  0.5780379E+02  0.7818608E-02  0.1286882E+00
         21   -1    0    0  501  502  0.00000000000E+00  0.00000000000E+00  0.12468452117E+03  0.12468452117E+03  0.00000000000E+00 0.  1.
          4   -1    0    0  502    0 -0.00000000000E+00 -0.00000000000E+00 -0.15678276510E+03  0.15678276510E+03  0.00000000000E+00 0.  1.
        -13    1    1    2    0    0  0.33529511945E+02  0.21345156145E+02 -0.75001210835E+02  0.84882487316E+02  0.10566000000E+00 0.  1.
         13    1    1    2    0    0 -0.10461058917E+03 -0.40457357384E+02  0.15794442147E+01  0.11217254094E+03  0.10566000000E+00 0. -1.
          4    1    1    2  501    0  0.71081077221E+02  0.19112201239E+02  0.41323522693E+02  0.84412258013E+02  0.00000000000E+00 0.  1.
</event>
<event>
 5    1  0.4866530E-005  0.1767638E+03  0.7818608E-02  0.1077350E+00
         21   -1    0    0  501  502  0.00000000000E+00  0.00000000000E+00  0.45757911028E+03  0.45757911028E+03  0.00000000000E+00 0. -1.
          4   -1    0    0  502    0 -0.00000000000E+00 -0.00000000000E+00 -0.16954445532E+03  0.16954445532E+03  0.00000000000E+00 0.  1.
        -13    1    1    2    0    0 -0.17532389744E+03  0.10092371613E+02 -0.90374681131E+02  0.19750422561E+03  0.10566000000E+00 0.  1.
         13    1    1    2    0    0  0.18527827008E+03  0.47101569575E+01  0.35076128814E+03  0.39671616474E+03  0.10566000000E+00 0. -1.
          4    1    1    2  501    0 -0.99543726389E+01 -0.14802528570E+02  0.27648047949E+02  0.32903175258E+02  0.00000000000E+00 0.  1.
</event>
<event>
 5    1  0.4866530E-005  0.5025641E+03  0.7818608E-02  0.9735709E-01
          4   -1    0    0  502    0 -0.00000000000E+00  0.00000000000E+00  0.17009003706E+04  0.17009003706E+04  0.00000000000E+00 0.  1.
         21   -1    0    0  501  502  0.00000000000E+00 -0.00000000000E+00 -0.38258627353E+03  0.38258627353E+03  0.00000000000E+00 0.  1.
        -13    1    1    2    0    0  0.39181749173E+03  0.86421416687E+02  0.26172721525E+03  0.47905193294E+03  0.10566000000E+00 0.  1.
         13    1    1    2    0    0  0.17765808099E+03  0.85321422449E+02  0.98593956542E+03  0.10054446661E+04  0.10566000000E+00 0. -1.
          4    1    1    2  501    0 -0.56947557272E+03 -0.17174283914E+03  0.70647316395E+02  0.59899004502E+03  0.00000000000E+00 0.  1.
</event>
<event>
 5    1  0.4866530E-005  0.9999001E+02  0.7818608E-02  0.1164572E+00
         21   -1    0    0  501  502  0.00000000000E+00  0.00000000000E+00  0.71610865514E+03  0.71610865514E+03  0.00000000000E+00 0.  1.
          4   -1    0    0  502    0 -0.00000000000E+00 -0.00000000000E+00 -0.10704894765E+03  0.10704894765E+03  0.00000000000E+00 0.  1.
        -13    1    1    2    0    0 -0.60196224398E+02 -0.10527993894E+03  0.17429496217E+02  0.12252040433E+03  0.10566000000E+00 0.  1.
         13    1    1    2    0    0  0.42269833681E+02  0.78194911190E+02 -0.17539183523E+02  0.90602522581E+02  0.10566000000E+00 0. -1.
          4    1    1    2  501    0  0.17926390717E+02  0.27085027753E+02  0.60916939479E+03  0.61003467587E+03  0.00000000000E+00 0.  1.
</event>
<event>
 5    1  0.4866530E-005  0.2558757E+03  0.7818608E-02  0.1046638E+00
         21   -1    0    0  501  502  0.00000000000E+00  0.00000000000E+00  0.80513199429E+03  0.80513199429E+03  0.00000000000E+00 0.  1.
          4   -1    0    0  502    0 -0.00000000000E+00 -0.00000000000E+00 -0.15154320364E+03  0.15154320364E+03  0.00000000000E+00 0.  1.
        -13    1    1    2    0    0 -0.70634446627E+02  0.28678442222E+03  0.39535792988E+03  0.49350018619E+03  0.10566000000E+00 0.  1.
         13    1    1    2    0    0  0.12758162373E+03 -0.63067563276E+02  0.45934502066E+02  0.14954791171E+03  0.10566000000E+00 0. -1.
          4    1    1    2  501    0 -0.56947177107E+02 -0.22371685895E+03  0.21229635870E+03  0.31362710003E+03  0.00000000000E+00 0.  1.
</event>
<event>
 5    1  0.4866530E-005  0.4830329E+03  0.7818608E-02  0.9668877E-01
         21   -1    0    0  501  502  0.00000000000E+00  0.00000000000E+00  0.13593269695E+04  0.13593269695E+04  0.00000000000E+00 0.  1.
          4   -1    0    0  502    0 -0.00000000000E+00 -0.00000000000E+00 -0.44254670397E+03  0.44254670397E+03  0.00000000000E+00 0.  1.
        -13    1    1    2    0    0  0.39882393871E+03  0.43264720813E+03  0.94093787501E+03  0.11097784628E+04  0.10566000000E+00 0.  1.
         13    1    1    2    0    0 -0.96954251832E+02 -0.26280271462E+03 -0.15701155588E+03  0.32111996762E+03  0.10566000000E+00 0. -1.
          4    1    1    2  501    0 -0.30186968688E+03 -0.16984449351E+03  0.13285394637E+03  0.37097524297E+03  0.00000000000E+00 0.  1.
</event>
<event>
 5    1  0.4866530E-005  0.2081644E+02  0.7818608E-02  0.1498806E+00
         -4   -1    0    0    0  501 -0.00000000000E+00  0.00000000000E+00  0.51570735170E+02  0.51570735170E+02  0.00000000000E+00 0. -1.
         21   -1    0    0  501  502  0.00000000000E+00 -0.00000000000E+00 -0.31300650278E+02  0.31300650278E+02  0.00000000000E+00 0.  1.
        -13    1    1    2    0    0 -0.74789239688E+01 -0.22244930486E+02  0.87474732869E+01  0.25045971513E+02  0.10566000000E+00 0.  1.
         13    1    1    2    0    0  0.15975787756E+02  0.13223690055E+02  0.29457362173E+02  0.36025534324E+02  0.10566000000E+00 0. -1.
         -4    1    1    2    0  502 -0.84968637876E+01  0.90212404315E+01 -0.17934750568E+02  0.21799879612E+02  0.00000000000E+00 0. -1.
</event>
<event>
 5    1  0.4866530E-005  0.7944059E+03  0.7818608E-02  0.8996253E-01
         21   -1    0    0  501  502  0.00000000000E+00  0.00000000000E+00  0.19175656455E+04  0.19175656455E+04  0.00000000000E+00 0.  1.
          4   -1    0    0  502    0 -0.00000000000E+00 -0.00000000000E+00 -0.48241999390E+03  0.48241999390E+03  0.00000000000E+00 0.  1.
        -13    1    1    2    0    0  0.33989565623E+03 -0.80099198488E+03  0.24161412005E+03  0.90304740248E+03  0.10566000000E+00 0.  1.
         13    1    1    2    0    0 -0.26457638055E+03  0.62560692951E+03  0.73787307537E+03  0.10029164362E+04  0.10566000000E+00 0. -1.
          4    1    1    2  501    0 -0.75319275682E+02  0.17538505537E+03  0.45565845622E+03  0.49402180079E+03  0.00000000000E+00 0.  1.
</event>
<event>
 5    1  0.4866530E-005  0.5309466E+03  0.7818608E-02  0.9600230E-01
         21   -1    0    0  501  502  0.00000000000E+00  0.00000000000E+00  0.33660714494E+03  0.33660714494E+03  0.00000000000E+00 0.  1.
          4   -1    0    0  502    0 -0.00000000000E+00 -0.00000000000E+00 -0.15238192080E+04  0.15238192080E+04  0.00000000000E+00 0.  1.
        -13    1    1    2    0    0 -0.42047449997E+03 -0.12370343999E+03 -0.38448006129E+03  0.58303196729E+03  0.10566000000E+00 0.  1.
         13    1    1    2    0    0 -0.22169214791E+03  0.15196826069E+03 -0.49828314615E+03  0.56615180438E+03  0.10566000000E+00 0. -1.
          4    1    1    2  501    0  0.64216664788E+03 -0.28264820691E+02 -0.30444885562E+03  0.71124258128E+03  0.00000000000E+00 0.  1.
</event>
<event>
 5    1  0.4866530E-005  0.4696683E+03  0.7818608E-02  0.1000470E+00
         21   -1    0    0  501  502  0.00000000000E+00  0.00000000000E+00  0.87820876098E+03  0.87820876098E+03  0.00000000000E+00 0.  1.
          4   -1    0    0  502    0 -0.00000000000E+00 -0.00000000000E+00 -0.44811090744E+03  0.44811090744E+03  0.00000000000E+00 0.  1.
        -13    1    1    2    0    0  0.31214741481E+03 -0.34009687925E+03  0.46001201818E+03  0.65170005669E+03  0.10566000000E+00 0.  1.
         13    1    1    2    0    0  0.84676761958E+02  0.48619599712E+02 -0.13942721959E+03  0.17021744981E+03  0.10566000000E+00 0. -1.
          4    1    1    2  501    0 -0.39682417677E+03  0.29147727954E+03  0.10951305495E+03  0.50440216193E+03  0.00000000000E+00 0.  1.
</event>
<event>
 5    1  0.4866530E-005  0.5966017E+03  0.7818608E-02  0.9288201E-01
         21   -1    0    0  501  502  0.00000000000E+00  0.00000000000E+00  0.27505630873E+03  0.27505630873E+03  0.00000000000E+00 0. -1.
         -4   -1    0    0    0  501 -0.00000000000E+00 -0.00000000000E+00 -0.28701998035E+04  0.28701998035E+04  0.00000000000E+00 0. -1.
        -13    1    1    2    0    0  0.17854451236E+03 -0.53654087969E+03 -0.13337000344E+04  0.14486235023E+04  0.10566000000E+00 0.  1.
         13    1    1    2    0    0 -0.45678909595E+03  0.49871074291E+03 -0.12431905797E+04  0.14152354969E+04  0.10566000000E+00 0. -1.
         -4    1    1    2    0  502  0.27824458359E+03  0.37830136780E+02 -0.18252880715E+02  0.28139711300E+03  0.00000000000E+00 0. -1.
</event>
<event>
 5    1  0.4866530E-005  0.4803136E+03  0.7818608E-02  0.9796929E-01
         21   -1    0    0  501  502  0.00000000000E+00  0.00000000000E+00  0.52840261734E+03  0.52840261734E+03  0.00000000000E+00 0.  1.
          4   -1    0    0  502    0 -0.00000000000E+00 -0.00000000000E+00 -0.14600648080E+04  0.14600648080E+04  0.00000000000E+00 0.  1.
        -13    1    1    2    0    0 -0.19722521530E+03  0.36195439269E+03 -0.19290505453E+03  0.45510563517E+03  0.10566000000E+00 0.  1.
         13    1    1    2    0    0 -0.18292320068E+03  0.43790112144E+00 -0.94986353551E+03  0.96731682316E+03  0.10566000000E+00 0. -1.
          4    1    1    2  501    0  0.38014841598E+03 -0.36239229381E+03  0.21110639941E+03  0.56604496699E+03  0.00000000000E+00 0.  1.
</event>
<event>
 5    1  0.4866530E-005  0.3602417E+03  0.7818608E-02  0.1059376E+00
         21   -1    0    0  501  502  0.00000000000E+00  0.00000000000E+00  0.56430404094E+03  0.56430404094E+03  0.00000000000E+00 0.  1.
          4   -1    0    0  502    0 -0.00000000000E+00 -0.00000000000E+00 -0.37985729795E+03  0.37985729795E+03  0.00000000000E+00 0.  1.
        -13    1    1    2    0    0  0.32589199580E+03 -0.86842728539E+02 -0.16556886322E+03  0.37571307145E+03  0.10566000000E+00 0.  1.
         13    1    1    2    0    0  0.22831305571E+02 -0.26517674248E+02 -0.25727708399E+02  0.43432495958E+02  0.10566000000E+00 0. -1.
          4    1    1    2  501    0 -0.34872330137E+03  0.11336040279E+03  0.37574331461E+03  0.52501577149E+03  0.00000000000E+00 0.  1.
</event>
<event>
 5    1  0.4866530E-005  0.5335640E+03  0.7818608E-02  0.9407292E-01
          4   -1    0    0  502    0 -0.00000000000E+00  0.00000000000E+00  0.75589497707E+03  0.75589497707E+03  0.00000000000E+00 0.  1.
         21   -1    0    0  501  502  0.00000000000E+00 -0.00000000000E+00 -0.57491209408E+03  0.57491209408E+03  0.00000000000E+00 0. -1.
        -13    1    1    2    0    0  0.58034447007E+03  0.77327170196E+02  0.17394879896E+03  0.61076786999E+03  0.10566000000E+00 0.  1.
         13    1    1    2    0    0 -0.49012329023E+03 -0.49799623429E+02  0.17878940833E+03  0.52408635339E+03  0.10566000000E+00 0. -1.
          4    1    1    2  501    0 -0.90221179839E+02 -0.27527546767E+02 -0.17175532430E+03  0.19595284776E+03  0.00000000000E+00 0.  1.
</event>
<event>
 5    1  0.4866530E-005  0.4922350E+03  0.7818608E-02  0.9880531E-01
          4   -1    0    0  502    0 -0.00000000000E+00  0.00000000000E+00  0.11212722996E+04  0.11212722996E+04  0.00000000000E+00 0.  1.
         21   -1    0    0  501  502  0.00000000000E+00 -0.00000000000E+00 -0.32258221003E+03  0.32258221003E+03  0.00000000000E+00 0.  1.
        -13    1    1    2    0    0 -0.20874192014E+03  0.48100231687E+03  0.17860126280E+03  0.55392674632E+03  0.10566000000E+00 0.  1.
         13    1    1    2    0    0  0.12499041875E+03 -0.27768147171E+02  0.30729978280E+03  0.33290665726E+03  0.10566000000E+00 0. -1.
          4    1    1    2  501    0  0.83751501399E+02 -0.45323416969E+03  0.31278904402E+03  0.55702110608E+03  0.00000000000E+00 0.  1.
</event>
<event>
 5    1  0.4866530E-005  0.4769650E+03  0.7818608E-02  0.9565272E-01
         -4   -1    0    0    0  501 -0.00000000000E+00  0.00000000000E+00  0.12006331683E+04  0.12006331683E+04  0.00000000000E+00 0. -1.
         21   -1    0    0  501  502  0.00000000000E+00 -0.00000000000E+00 -0.56957678444E+03  0.56957678444E+03  0.00000000000E+00 0. -1.
        -13    1    1    2    0    0 -0.10571465051E+03 -0.49714172578E+03  0.34912179948E+03  0.61661294576E+03  0.10566000000E+00 0.  1.
         13    1    1    2    0    0 -0.41079874633E+03  0.21912948266E+03 -0.68056902081E+02  0.47053702642E+03  0.10566000000E+00 0. -1.
         -4    1    1    2    0  502  0.51651339683E+03  0.27801224312E+03  0.34999148643E+03  0.68305998053E+03  0.00000000000E+00 0. -1.
</event>
<event>
 5    1  0.4866530E-005  0.1780425E+03  0.7818608E-02  0.1076329E+00
         -4   -1    0    0    0  501 -0.00000000000E+00  0.00000000000E+00  0.10904957268E+04  0.10904957268E+04  0.00000000000E+00 0. -1.
         21   -1    0    0  501  502  0.00000000000E+00 -0.00000000000E+00 -0.60457725531E+03  0.60457725531E+03  0.00000000000E+00 0.  1.
        -13    1    1    2    0    0 -0.42046023356E+02 -0.16674196570E+03 -0.31541255905E+03  0.35924343386E+03  0.10566000000E+00 0.  1.
         13    1    1    2    0    0  0.86197803198E+02  0.15607900783E+03  0.10591435636E+04  0.10740464690E+04  0.10566000000E+00 0. -1.
         -4    1    1    2    0  502 -0.44151779842E+02  0.10662957873E+02 -0.25781253313E+03  0.26178307924E+03  0.00000000000E+00 0. -1.
</event>
<event>
 5    1  0.4866530E-005  0.1689316E+03  0.7818608E-02  0.1083807E+00
         -4   -1    0    0    0  501 -0.00000000000E+00  0.00000000000E+00  0.27403444046E+02  0.27403444046E+02  0.00000000000E+00 0. -1.
         21   -1    0    0  501  502  0.00000000000E+00 -0.00000000000E+00 -0.13973976878E+04  0.13973976878E+04  0.00000000000E+00 0.  1.
        -13    1    1    2    0    0 -0.95239030835E+02  0.15088347599E+03 -0.64888181330E+03  0.67296650371E+03  0.10566000000E+00 0.  1.
         13    1    1    2    0    0  0.87614490010E+02 -0.13704854715E+03 -0.42136787288E+03  0.45167410663E+03  0.10566000000E+00 0. -1.
         -4    1    1    2    0  502  0.76245408245E+01 -0.13834928834E+02 -0.29974455758E+03  0.30016052152E+03  0.00000000000E+00 0. -1.
</event>
<event>
 5    1  0.4866530E-005  0.5073119E+03  0.7818608E-02  0.9462089E-01
          4   -1    0    0  502    0 -0.00000000000E+00  0.00000000000E+00  0.73820924300E+03  0.73820924300E+03  0.00000000000E+00 0.  1.
         21   -1    0    0  501  502  0.00000000000E+00 -0.00000000000E+00 -0.48336265754E+03  0.48336265754E+03  0.00000000000E+00 0. -1.
        -13    1    1    2    0    0 -0.50960588109E+03  0.81658702357E+02  0.42378358006E+03  0.66780149117E+03  0.10566000000E+00 0.  1.
         13    1    1    2    0    0  0.47815808177E+03 -0.79365163870E+02 -0.12656161092E+03  0.50095092865E+03  0.10566000000E+00 0. -1.
          4    1    1    2  501    0  0.31447799318E+02 -0.22935384871E+01 -0.42375383693E+02  0.52819480723E+02  0.00000000000E+00 0.  1.
</event>
<event>
 5    1  0.4866530E-005  0.4487949E+03  0.7818608E-02  0.9724146E-01
          4   -1    0    0  502    0 -0.00000000000E+00  0.00000000000E+00  0.21996320302E+04  0.21996320302E+04  0.00000000000E+00 0.  1.
         21   -1    0    0  501  502  0.00000000000E+00 -0.00000000000E+00 -0.19921758703E+03  0.19921758703E+03  0.00000000000E+00 0.  1.
        -13    1    1    2    0    0 -0.33897718998E+03  0.22243523292E+03  0.12224354442E+04  0.12879174642E+04  0.10566000000E+00 0.  1.
         13    1    1    2    0    0 -0.15022774455E+03 -0.24577320333E+03  0.39673389275E+03  0.49027608092E+03  0.10566000000E+00 0. -1.
          4    1    1    2  501    0  0.48920493453E+03  0.23337970406E+02  0.38124510622E+03  0.62065607211E+03  0.00000000000E+00 0.  1.
</event>
<event>
 5    1  0.4866530E-005  0.4491505E+03  0.7818608E-02  0.9596981E-01
         21   -1    0    0  501  502  0.00000000000E+00  0.00000000000E+00  0.17525342362E+03  0.17525342362E+03  0.00000000000E+00 0. -1.
          4   -1    0    0  502    0 -0.00000000000E+00 -0.00000000000E+00 -0.19584559096E+04  0.19584559096E+04  0.00000000000E+00 0.  1.
        -13    1    1    2    0    0  0.23859215295E+03 -0.37023460076E+03 -0.93170359699E+03  0.10305685222E+04  0.10566000000E+00 0.  1.
         13    1    1    2    0    0 -0.25377768626E+03  0.38204512666E+03 -0.92215198793E+03  0.10299154785E+04  0.10566000000E+00 0. -1.
          4    1    1    2  501    0  0.15185533308E+02 -0.11810525894E+02  0.70653098929E+02  0.73225332584E+02  0.00000000000E+00 0.  1.
</event>
<event>
 5    1  0.4866530E-005  0.4894886E+03  0.7818608E-02  0.9880891E-01
         -4   -1    0    0    0  501 -0.00000000000E+00  0.00000000000E+00  0.14713147310E+04  0.14713147310E+04  0.00000000000E+00 0. -1.
         21   -1    0    0  501  502  0.00000000000E+00 -0.00000000000E+00 -0.33120193984E+03  0.33120193984E+03  0.00000000000E+00 0. -1.
        -13    1    1    2    0    0 -0.11030993487E+03 -0.68877348191E+02  0.68453240360E+03  0.69677614308E+03  0.10566000000E+00 0.  1.
         13    1    1    2    0    0 -0.37616083329E+03  0.25094359059E+03  0.35910926486E+03  0.57743322855E+03  0.10566000000E+00 0. -1.
         -4    1    1    2    0  502  0.48647076816E+03 -0.18206624240E+03  0.96471122725E+02  0.52830729922E+03  0.00000000000E+00 0. -1.
</event>
<event>
 5    1  0.4866530E-005  0.3765390E+03  0.7818608E-02  0.9922659E-01
          4   -1    0    0  502    0 -0.00000000000E+00  0.00000000000E+00  0.34938704760E+03  0.34938704760E+03  0.00000000000E+00 0.  1.
         21   -1    0    0  501  502  0.00000000000E+00 -0.00000000000E+00 -0.14262771290E+04  0.14262771290E+04  0.00000000000E+00 0.  1.
        -13    1    1    2    0    0  0.20469073563E+03  0.12644710273E+03  0.61963783399E+02  0.24844856341E+03  0.10566000000E+00 0.  1.
         13    1    1    2    0    0  0.20981820432E+03 -0.13305422786E+03  0.62630119993E+02  0.25622187555E+03  0.10566000000E+00 0. -1.
          4    1    1    2  501    0 -0.41450893996E+03  0.66071251297E+01 -0.12014839848E+04  0.12709937377E+04  0.00000000000E+00 0.  1.
</event>
<event>
 5    1  0.4866530E-005  0.5077334E+02  0.7818608E-02  0.1288672E+00
          4   -1    0    0  502    0 -0.00000000000E+00  0.00000000000E+00  0.11342412876E+03  0.11342412876E+03  0.00000000000E+00 0.  1.
         21   -1    0    0  501  502  0.00000000000E+00 -0.00000000000E+00 -0.20856609855E+03  0.20856609855E+03  0.00000000000E+00 0. -1.
        -13    1    1    2    0    0  0.48195507722E+02  0.91411720797E+01  0.88533637362E+02  0.10121553290E+03  0.10566000000E+00 0.  1.
         13    1    1    2    0    0 -0.67200863277E+02 -0.24292317519E+02 -0.55944681510E+02  0.90751811381E+02  0.10566000000E+00 0. -1.
          4    1    1    2  501    0  0.19005355555E+02  0.15151145439E+02 -0.12773092564E+03  0.13002288303E+03  0.00000000000E+00 0.  1.
</event>
<event>
 5    1  0.4866530E-005  0.3063982E+03  0.7818608E-02  0.1018075E+00
         21   -1    0    0  501  502  0.00000000000E+00  0.00000000000E+00  0.77245695786E+03  0.77245695786E+03  0.00000000000E+00 0.  1.
          4   -1    0    0  502    0 -0.00000000000E+00 -0.00000000000E+00 -0.54488943628E+03  0.54488943628E+03  0.00000000000E+00 0.  1.
        -13    1    1    2    0    0 -0.35865841579E+03  0.14486584885E+03 -0.20339784629E+03  0.43702707973E+03  0.10566000000E+00 0.  1.
         13    1    1    2    0    0  0.17517994952E+03  0.95607609640E+02 -0.13336936972E+03  0.24003380945E+03  0.10566000000E+00 0. -1.
          4    1    1    2  501    0  0.18347846628E+03 -0.24047345849E+03  0.56433473758E+03  0.64028550497E+03  0.00000000000E+00 0.  1.
</event>
<event>
 5    1  0.4866530E-005  0.4592090E+03  0.7818608E-02  0.9781545E-01
         -4   -1    0    0    0  501 -0.00000000000E+00  0.00000000000E+00  0.21453684891E+04  0.21453684891E+04  0.00000000000E+00 0. -1.
         21   -1    0    0  501  502  0.00000000000E+00 -0.00000000000E+00 -0.19877944905E+03  0.19877944905E+03  0.00000000000E+00 0. -1.
        -13    1    1    2    0    0 -0.13928708153E+03  0.17110895918E+03  0.65193216513E+03  0.68825484095E+03  0.10566000000E+00 0.  1.
         13    1    1    2    0    0 -0.29345840709E+03  0.11847470413E+03  0.10184185367E+04  0.10664569467E+04  0.10566000000E+00 0. -1.
         -4    1    1    2    0  502  0.43274548862E+03 -0.28958366331E+03  0.27623833826E+03  0.58943615049E+03  0.00000000000E+00 0. -1.
</event>
<event>
 5    1  0.4866530E-005  0.4695099E+03  0.7818608E-02  0.9578236E-01
         21   -1    0    0  501  502  0.00000000000E+00  0.00000000000E+00  0.88794787180E+03  0.88794787180E+03  0.00000000000E+00 0.  1.
          4   -1    0    0  502    0 -0.00000000000E+00 -0.00000000000E+00 -0.59720806032E+03  0.59720806032E+03  0.00000000000E+00 0.  1.
        -13    1    1    2    0    0  0.12640156227E+03 -0.27202048767E+03 -0.15053846163E+03  0.33561039950E+03  0.10566000000E+00 0.  1.
         13    1    1    2    0    0  0.41721227558E+03 -0.51715811103E+02  0.10631690948E+03  0.43364029381E+03  0.10566000000E+00 0. -1.
          4    1    1    2  501    0 -0.54361383785E+03  0.32373629877E+03  0.33496136362E+03  0.71590523882E+03  0.00000000000E+00 0.  1.
</event>
<event>
 5    1  0.4866530E-005  0.4659663E+03  0.7818608E-02  0.9574786E-01
          4   -1    0    0  502    0 -0.00000000000E+00  0.00000000000E+00  0.76426758949E+03  0.76426758949E+03  0.00000000000E+00 0.  1.
         21   -1    0    0  501  502  0.00000000000E+00 -0.00000000000E+00 -0.92161292687E+03  0.92161292687E+03  0.00000000000E+00 0.  1.
        -13    1    1    2    0    0  0.71840385839E+01 -0.53193026965E+03 -0.47507512082E+03  0.71323054040E+03  0.10566000000E+00 0.  1.
         13    1    1    2    0    0  0.35358793967E+03  0.25407773675E+03  0.27568531673E+03  0.51534680790E+03  0.10566000000E+00 0. -1.
          4    1    1    2  501    0 -0.36077197825E+03  0.27785253290E+03  0.42044466710E+02  0.45730316806E+03  0.00000000000E+00 0.  1.
</event>
<event>
 5    1  0.4866530E-005  0.4826699E+03  0.7818608E-02  0.9550310E-01
         21   -1    0    0  501  502  0.00000000000E+00  0.00000000000E+00  0.77960367078E+03  0.77960367078E+03  0.00000000000E+00 0.  1.
          4   -1    0    0  502    0 -0.00000000000E+00 -0.00000000000E+00 -0.13309032591E+04  0.13309032591E+04  0.00000000000E+00 0.  1.
        -13    1    1    2    0    0  0.21744924299E+03 -0.44680064231E+03 -0.77244373947E+02  0.50287343508E+03  0.10566000000E+00 0.  1.
         13    1    1    2    0    0 -0.51247817239E+03  0.16958048688E+02 -0.83052923545E+03  0.97606366324E+03  0.10566000000E+00 0. -1.
          4    1    1    2  501    0  0.29502892940E+03  0.42984259362E+03  0.35647402105E+03  0.63156983158E+03  0.00000000000E+00 0.  1.
</event>
<event>
 5    1  0.4866530E-005  0.4055554E+03  0.7818608E-02  0.9713138E-01
         -4   -1    0    0    0  501 -0.00000000000E+00  0.00000000000E+00  0.39784722489E+03  0.39784722489E+03  0.00000000000E+00 0. -1.
         21   -1    0    0  501  502  0.00000000000E+00 -0.00000000000E+00 -0.78860247486E+03  0.78860247486E+03  0.00000000000E+00 0.  1.
        -13    1    1    2    0    0 -0.45528461794E+03  0.14307100059E+03 -0.21204625900E+03  0.52222315313E+03  0.10566000000E+00 0.  1.
         13    1    1    2    0    0  0.35895369784E+03 -0.11185016422E+03  0.81761768103E+02  0.38476384227E+03  0.10566000000E+00 0. -1.
         -4    1    1    2    0  502  0.96330920108E+02 -0.31220836369E+02 -0.26047075907E+03  0.27946270435E+03  0.00000000000E+00 0. -1.
</event>
<event>
 5    1  0.4866530E-005  0.1003668E+04  0.7818608E-02  0.8771153E-01
          4   -1    0    0  502    0 -0.00000000000E+00  0.00000000000E+00  0.22243497771E+04  0.22243497771E+04  0.00000000000E+00 0.  1.
         21   -1    0    0  501  502  0.00000000000E+00 -0.00000000000E+00 -0.15026113215E+04  0.15026113215E+04  0.00000000000E+00 0. -1.
        -13    1    1    2    0    0 -0.34482652559E+03  0.78189450289E+03 -0.60260006056E+03  0.10456534754E+04  0.10566000000E+00 0.  1.
         13    1    1    2    0    0  0.16083721037E+03 -0.10197854106E+04  0.18252847823E+04  0.20970206102E+04  0.10566000000E+00 0. -1.
          4    1    1    2  501    0  0.18398931522E+03  0.23789090769E+03 -0.50094626611E+03  0.58428701304E+03  0.00000000000E+00 0.  1.
</event>
<event>
 5    1  0.4866530E-005  0.4721542E+03  0.7818608E-02  0.9822189E-01
         21   -1    0    0  501  502  0.00000000000E+00  0.00000000000E+00  0.93417208413E+03  0.93417208413E+03  0.00000000000E+00 0.  1.
          4   -1    0    0  502    0 -0.00000000000E+00 -0.00000000000E+00 -0.91512931148E+03  0.91512931148E+03  0.00000000000E+00 0.  1.
        -13    1    1    2    0    0 -0.42441743822E+03 -0.97822648882E+02  0.41923504022E+03  0.60453077888E+03  0.10566000000E+00 0.  1.
         13    1    1    2    0    0 -0.70191641394E+02 -0.16214947878E+03 -0.61972588478E+03  0.64442183654E+03  0.10566000000E+00 0. -1.
          4    1    1    2  501    0  0.49460907961E+03  0.25997212766E+03  0.21953361721E+03  0.60034878019E+03  0.00000000000E+00 0.  1.
</event>
<event>
 5    1  0.4866530E-005  0.6970298E+03  0.7818608E-02  0.9127298E-01
         21   -1    0    0  501  502  0.00000000000E+00  0.00000000000E+00  0.32478876741E+03  0.32478876741E+03  0.00000000000E+00 0. -1.
          4   -1    0    0  502    0 -0.00000000000E+00 -0.00000000000E+00 -0.30271386645E+04  0.30271386645E+04  0.00000000000E+00 0.  1.
        -13    1    1    2    0    0  0.70349159590E+03 -0.18786475191E+03 -0.24113647325E+04  0.25189032285E+04  0.10566000000E+00 0.  1.
         13    1    1    2    0    0 -0.59042361688E+03  0.38665219475E+02 -0.24393415566E+03  0.63999916408E+03  0.10566000000E+00 0. -1.
          4    1    1    2  501    0 -0.11306797902E+03  0.14919953243E+03 -0.47051008985E+02  0.19302503932E+03  0.00000000000E+00 0.  1.
</event>
<event>
 5    1  0.4866530E-005  0.3193223E+03  0.7818608E-02  0.1021442E+00
         -4   -1    0    0    0  501 -0.00000000000E+00  0.00000000000E+00  0.17629017478E+04  0.17629017478E+04  0.00000000000E+00 0. -1.
         21   -1    0    0  501  502  0.00000000000E+00 -0.00000000000E+00 -0.20314565019E+03  0.20314565019E+03  0.00000000000E+00 0. -1.
        -13    1    1    2    0    0  0.36925507372E+02  0.15419112393E+03  0.49612109189E+03  0.52084022960E+03  0.10566000000E+00 0.  1.
         13    1    1    2    0    0 -0.11336410981E+02 -0.33852777375E+03 -0.26074919644E+02  0.33971970860E+03  0.10566000000E+00 0. -1.
         -4    1    1    2    0  502 -0.25589096391E+02  0.18433664982E+03  0.10897099253E+04  0.11054874598E+04  0.00000000000E+00 0. -1.
</event>
<event>
 5    1  0.4866530E-005  0.5006667E+03  0.7818608E-02  0.9740142E-01
          4   -1    0    0  502    0 -0.00000000000E+00  0.00000000000E+00  0.10720204098E+04  0.10720204098E+04  0.00000000000E+00 0.  1.
         21   -1    0    0  501  502  0.00000000000E+00 -0.00000000000E+00 -0.48990326770E+03  0.48990326770E+03  0.00000000000E+00 0.  1.
        -13    1    1    2    0    0 -0.46428827232E+03  0.10298785172E+03  0.42405932621E+02  0.47746033521E+03  0.10566000000E+00 0.  1.
         13    1    1    2    0    0 -0.76873531032E+02 -0.18062401239E+03  0.49902780732E+03  0.53624932379E+03  0.10566000000E+00 0. -1.
          4    1    1    2  501    0  0.54116180335E+03  0.77636160669E+02  0.40683402138E+02  0.54821401848E+03  0.00000000000E+00 0.  1.
</event>
<event>
 5    1  0.4866530E-005  0.1566948E+03  0.7818608E-02  0.1094691E+00
         21   -1    0    0  501  502  0.00000000000E+00  0.00000000000E+00  0.39544451392E+03  0.39544451392E+03  0.00000000000E+00 0. -1.
         -4   -1    0    0    0  501 -0.00000000000E+00 -0.00000000000E+00 -0.13105029189E+03  0.13105029189E+03  0.00000000000E+00 0. -1.
        -13    1    1    2    0    0 -0.39873725217E+02  0.12670691390E+03  0.50385228578E+02  0.14206772475E+03  0.10566000000E+00 0.  1.
         13    1    1    2    0    0  0.13841427428E+03 -0.16297478602E+03  0.13303561429E+03  0.25182886656E+03  0.10566000000E+00 0. -1.
         -4    1    1    2    0  502 -0.98540549060E+02  0.36267872119E+02  0.80973379159E+02  0.13259821450E+03  0.00000000000E+00 0. -1.
</event>
<event>
 5    1  0.4866530E-005  0.1289448E+03  0.7818608E-02  0.1123955E+00
          4   -1    0    0  502    0 -0.00000000000E+00  0.00000000000E+00  0.26283663783E+02  0.26283663783E+02  0.00000000000E+00 0.  1.
         21   -1    0    0  501  502  0.00000000000E+00 -0.00000000000E+00 -0.14282182742E+04  0.14282182742E+04  0.00000000000E+00 0. -1.
        -13    1    1    2    0    0  0.68067534160E+02  0.13038668951E+03 -0.40036328776E+03  0.42652626104E+03  0.10566000000E+00 0.  1.
         13    1    1    2    0    0 -0.11403031257E+03 -0.40396282117E+02 -0.68709241216E+03  0.69766092466E+03  0.10566000000E+00 0. -1.
          4    1    1    2  501    0  0.45962778409E+02 -0.89990407398E+02 -0.31447891051E+03  0.33031475228E+03  0.00000000000E+00 0.  1.
</event>
<event>
 5    1  0.4866530E-005  0.5483162E+03  0.7818608E-02  0.9413933E-01
         21   -1    0    0  501  502  0.00000000000E+00  0.00000000000E+00  0.86028749485E+03  0.86028749485E+03  0.00000000000E+00 0.  1.
          4   -1    0    0  502    0 -0.00000000000E+00 -0.00000000000E+00 -0.10460592513E+04  0.10460592513E+04  0.00000000000E+00 0.  1.
        -13    1    1    2    0    0 -0.20226045385E+03 -0.40632503232E+03  0.43989915771E+03  0.63207642196E+03  0.10566000000E+00 0.  1.
         13    1    1    2    0    0 -0.34505124201E+03  0.43949445548E+03 -0.26887172103E+03  0.62008688870E+03  0.10566000000E+00 0. -1.
          4    1    1    2  501    0  0.54731169586E+03 -0.33169423162E+02 -0.35679919315E+03  0.65418343551E+03  0.00000000000E+00 0.  1.
</event>
<event>
 5    1  0.4866530E-005  0.3701332E+03  0.7818608E-02  0.1003987E+00
         -4   -1    0    0    0  501 -0.00000000000E+00  0.00000000000E+00  0.11181886802E+04  0.11181886802E+04  0.00000000000E+00 0. -1.
         21   -1    0    0  501  502  0.00000000000E+00 -0.00000000000E+00 -0.32759847711E+03  0.32759847711E+03  0.00000000000E+00 0. -1.
        -13    1    1    2    0    0 -0.13783606566E+03  0.11243275453E+03  0.25574420255E+03  0.31152048662E+03  0.10566000000E+00 0.  1.
         13    1    1    2    0    0 -0.11229229872E+03 -0.38590404899E+03  0.63396846364E+03  0.75063141383E+03  0.10566000000E+00 0. -1.
         -4    1    1    2    0  502  0.25012836438E+03  0.27347129447E+03 -0.99122463137E+02  0.38363525680E+03  0.00000000000E+00 0. -1.
</event>
<event>
 5    1  0.4866530E-005  0.1725230E+03  0.7818608E-02  0.1171782E+00
          4   -1    0    0  502    0 -0.00000000000E+00  0.00000000000E+00  0.56863740169E+02  0.56863740169E+02  0.00000000000E+00 0.  1.
         21   -1    0    0  501  502  0.00000000000E+00 -0.00000000000E+00 -0.10210933133E+04  0.10210933133E+04  0.00000000000E+00 0.  1.
        -13    1    1    2    0    0 -0.18134761691E+03 -0.34020811510E+02 -0.13689296615E+03  0.22974783812E+03  0.10566000000E+00 0.  1.
         13    1    1    2    0    0  0.15733272095E+02 -0.45204079085E+01 -0.94200627905E+02  0.95612443752E+02  0.10566000000E+00 0. -1.
          4    1    1    2  501    0  0.16561434482E+03  0.38541219418E+02 -0.73313597910E+03  0.75259677162E+03  0.00000000000E+00 0.  1.
</event>
<event>
 5    1  0.4866530E-005  0.5246615E+03  0.7818608E-02  0.9695316E-01
         -4   -1    0    0    0  501 -0.00000000000E+00  0.00000000000E+00  0.71469925982E+03  0.71469925982E+03  0.00000000000E+00 0. -1.
         21   -1    0    0  501  502  0.00000000000E+00 -0.00000000000E+00 -0.11940740302E+04  0.11940740302E+04  0.00000000000E+00 0. -1.
        -13    1    1    2    0    0  0.15199274407E+03  0.55585536103E+03 -0.50144808459E+03  0.76388950073E+03  0.10566000000E+00 0.  1.
         13    1    1    2    0    0 -0.19431601547E+03 -0.32903733112E+02  0.43477416913E+03  0.47735726539E+03  0.10566000000E+00 0. -1.
         -4    1    1    2    0  502  0.42323271394E+02 -0.52295162792E+03 -0.41270085492E+03  0.66752652389E+03  0.00000000000E+00 0. -1.
</event>
<event>
 5    1  0.4866530E-005  0.8563805E+03  0.7818608E-02  0.8922678E-01
         21   -1    0    0  501  502  0.00000000000E+00  0.00000000000E+00  0.96778881264E+03  0.96778881264E+03  0.00000000000E+00 0.  1.
         -4   -1    0    0    0  501 -0.00000000000E+00 -0.00000000000E+00 -0.26648013142E+04  0.26648013142E+04  0.00000000000E+00 0. -1.
        -13    1    1    2    0    0 -0.85836584444E+03  0.11467149153E+03 -0.20025541368E+04  0.21817801346E+04  0.10566000000E+00 0.  1.
         13    1    1    2    0    0  0.81222545871E+03 -0.14488923670E+03 -0.27346136816E+03  0.86918595118E+03  0.10566000000E+00 0. -1.
         -4    1    1    2    0  502  0.46140385724E+02  0.30217745167E+02  0.57900300333E+03  0.58162404110E+03  0.00000000000E+00 0. -1.
</event>
<event>
 5    1  0.4866530E-005  0.1394586E+03  0.7818608E-02  0.1112000E+00
         -4   -1    0    0    0  501 -0.00000000000E+00  0.00000000000E+00  0.74473650527E+02  0.74473650527E+02  0.00000000000E+00 0. -1.
         21   -1    0    0  501  502  0.00000000000E+00 -0.00000000000E+00 -0.81844546416E+03  0.81844546416E+03  0.00000000000E+00 0.  1.
        -13    1    1    2    0    0 -0.72589263813E+02 -0.10806517370E+03 -0.71587235360E+03  0.72761289214E+03  0.10566000000E+00 0.  1.
         13    1    1    2    0    0  0.85860825798E+02  0.11113342707E+03 -0.75351323739E+01  0.14063964378E+03  0.10566000000E+00 0. -1.
         -4    1    1    2    0  502 -0.13271561985E+02 -0.30682533701E+01 -0.20564327653E+02  0.24666578767E+02  0.00000000000E+00 0. -1.
</event>
<event>
 5    1  0.4866530E-005  0.5477819E+03  0.7818608E-02  0.9433699E-01
         21   -1    0    0  501  502  0.00000000000E+00  0.00000000000E+00  0.45774124226E+03  0.45774124226E+03  0.00000000000E+00 0. -1.
         -4   -1    0    0    0  501 -0.00000000000E+00 -0.00000000000E+00 -0.22150159656E+04  0.22150159656E+04  0.00000000000E+00 0. -1.
        -13    1    1    2    0    0  0.54384458693E+03  0.26783622124E+03 -0.12772474862E+04  0.14138119848E+04  0.10566000000E+00 0.  1.
         13    1    1    2    0    0  0.15834582617E+03 -0.40381424828E+03 -0.27996919036E+03  0.51625779073E+03  0.10566000000E+00 0. -1.
         -4    1    1    2    0  502 -0.70219041310E+03  0.13597802704E+03 -0.20005804678E+03  0.74268743235E+03  0.00000000000E+00 0. -1.
</event>
<event>
 5    1  0.4866530E-005  0.5033024E+03  0.7818608E-02  0.9470763E-01
         21   -1    0    0  501  502  0.00000000000E+00  0.00000000000E+00  0.13541735392E+04  0.13541735392E+04  0.00000000000E+00 0. -1.
          4   -1    0    0  502    0 -0.00000000000E+00 -0.00000000000E+00 -0.43337515199E+03  0.43337515199E+03  0.00000000000E+00 0.  1.
        -13    1    1    2    0    0  0.31170253706E+03  0.48408958103E+03  0.13037221261E+02  0.57590899834E+03  0.10566000000E+00 0.  1.
         13    1    1    2    0    0 -0.55011767372E+02 -0.43416575127E+03  0.25047773027E+03  0.50424725943E+03  0.10566000000E+00 0. -1.
          4    1    1    2  501    0 -0.25669076969E+03 -0.49923829760E+02  0.65728343564E+03  0.70739243337E+03  0.00000000000E+00 0.  1.
</event>
<event>
 5    1  0.4866530E-005  0.2059399E+03  0.7818608E-02  0.1061368E+00
          4   -1    0    0  502    0 -0.00000000000E+00  0.00000000000E+00  0.22880431574E+04  0.22880431574E+04  0.00000000000E+00 0.  1.
         21   -1    0    0  501  502  0.00000000000E+00 -0.00000000000E+00 -0.10236086713E+03  0.10236086713E+03  0.00000000000E+00 0.  1.
        -13    1    1    2    0    0  0.30314483660E+03  0.15345306582E+03  0.18751961343E+04  0.19057295686E+04  0.10566000000E+00 0.  1.
         13    1    1    2    0    0 -0.17647860956E+03 -0.93754428716E+01  0.11540988881E+03  0.21107357049E+03  0.10566000000E+00 0. -1.
          4    1    1    2  501    0 -0.12666622705E+03 -0.14407762295E+03  0.19507626718E+03  0.27360088546E+03  0.00000000000E+00 0.  1.
</event>
<event>
 5    1  0.4866530E-005  0.3996194E+03  0.7818608E-02  0.9730146E-01
         21   -1    0    0  501  502  0.00000000000E+00  0.00000000000E+00  0.68943362371E+02  0.68943362371E+02  0.00000000000E+00 0.  1.
         -4   -1    0    0    0  501 -0.00000000000E+00 -0.00000000000E+00 -0.27531816494E+04  0.27531816494E+04  0.00000000000E+00 0. -1.
        -13    1    1    2    0    0 -0.22889607927E+03  0.32249542215E+03 -0.15163473499E+04  0.15670692420E+04  0.10566000000E+00 0.  1.
         13    1    1    2    0    0  0.23080559597E+03 -0.33302846302E+03 -0.11745314937E+04  0.12424586195E+04  0.10566000000E+00 0. -1.
         -4    1    1    2    0  502 -0.19095167016E+01  0.10533040863E+02  0.66405565801E+01  0.12597150294E+02  0.00000000000E+00 0. -1.
</event>
<event>
 5    1  0.4866530E-005  0.5417323E+02  0.7818608E-02  0.1275671E+00
         21   -1    0    0  501  502  0.00000000000E+00  0.00000000000E+00  0.91295761274E+02  0.91295761274E+02  0.00000000000E+00 0.  1.
         -4   -1    0    0    0  501 -0.00000000000E+00 -0.00000000000E+00 -0.10708129165E+03  0.10708129165E+03  0.00000000000E+00 0. -1.
        -13    1    1    2    0    0  0.46138042620E+02  0.30959715976E+02  0.38368370744E+02  0.67523077742E+02  0.10566000000E+00 0.  1.
         13    1    1    2    0    0 -0.55044444958E+02  0.19151967048E+02 -0.54734703640E+02  0.79953659761E+02  0.10566000000E+00 0. -1.
         -4    1    1    2    0  502  0.89064023375E+01 -0.50111683024E+02  0.58080252324E+00  0.50900315418E+02  0.00000000000E+00 0. -1.
</event>
<event>
 5    1  0.4866530E-005  0.4119238E+03  0.7818608E-02  0.9751074E-01
         -4   -1    0    0    0  501 -0.00000000000E+00  0.00000000000E+00  0.30390719885E+04  0.30390719885E+04  0.00000000000E+00 0. -1.
         21   -1    0    0  501  502  0.00000000000E+00 -0.00000000000E+00 -0.17365841483E+03  0.17365841483E+03  0.00000000000E+00 0. -1.
        -13    1    1    2    0    0  0.16657138943E+02 -0.33901025876E+03  0.11220694463E+04  0.11722820775E+04  0.10566000000E+00 0.  1.
         13    1    1    2    0    0  0.15496926741E+03  0.64256108689E+03  0.14136902404E+04  0.15605833304E+04  0.10566000000E+00 0. -1.
         -4    1    1    2    0  502 -0.17162640635E+03 -0.30355082813E+03  0.32965388703E+03  0.47986499544E+03  0.00000000000E+00 0. -1.
</event>
<event>
 5    1  0.4866530E-005  0.4341719E+03  0.7818608E-02  0.9748550E-01
         21   -1    0    0  501  502  0.00000000000E+00  0.00000000000E+00  0.11266427627E+04  0.11266427627E+04  0.00000000000E+00 0.  1.
          4   -1    0    0  502    0 -0.00000000000E+00 -0.00000000000E+00 -0.42623087029E+03  0.42623087029E+03  0.00000000000E+00 0.  1.
        -13    1    1    2    0    0 -0.84661910617E+02 -0.39851415333E+03 -0.11580772238E+03  0.42354764695E+03  0.10566000000E+00 0.  1.
         13    1    1    2    0    0 -0.27661726140E+03  0.94774357298E+02  0.42714079387E+03  0.51763747648E+03  0.10566000000E+00 0. -1.
          4    1    1    2  501    0  0.36127917201E+03  0.30373979603E+03  0.38907882092E+03  0.61168850954E+03  0.00000000000E+00 0.  1.
</event>
<event>
 5    1  0.4866530E-005  0.3530640E+03  0.7818608E-02  0.1022615E+00
         -4   -1    0    0    0  501 -0.00000000000E+00  0.00000000000E+00  0.68403632162E+03  0.68403632162E+03  0.00000000000E+00 0. -1.
         21   -1    0    0  501  502  0.00000000000E+00 -0.00000000000E+00 -0.33061517406E+03  0.33061517406E+03  0.00000000000E+00 0. -1.
        -13    1    1    2    0    0  0.92826322520E+01  0.11267691801E+03  0.68846958663E+02  0.13237133373E+03  0.10566000000E+00 0.  1.
         13    1    1    2    0    0 -0.22644606615E+03  0.24575181472E+03 -0.60260169604E+02  0.33956306413E+03  0.10566000000E+00 0. -1.
         -4    1    1    2    0  502  0.21716343390E+03 -0.35842873273E+03  0.34483435850E+03  0.54271709782E+03  0.00000000000E+00 0. -1.
</event>
<event>
 5    1  0.7873966E-005  0.2852023E+03  0.7818608E-02  0.1049118E+00
         -4   -1    0    0    0  501 -0.00000000000E+00  0.00000000000E+00  0.15750149628E+04  0.15750149628E+04  0.00000000000E+00 0. -1.
         21   -1    0    0  501  502  0.00000000000E+00 -0.00000000000E+00 -0.20522197304E+03  0.20522197304E+03  0.00000000000E+00 0. -1.
        -13    1    1    2    0    0 -0.79102951653E+02  0.53399534953E+02  0.29093871038E+03  0.30619296474E+03  0.10566000000E+00 0.  1.
         13    1    1    2    0    0 -0.14125583388E+03  0.14070428265E+03  0.11538608781E+04  0.11709593687E+04  0.10566000000E+00 0. -1.
         -4    1    1    2    0  502  0.22035878553E+03 -0.19410381761E+03 -0.75006598774E+02  0.30308460243E+03  0.00000000000E+00 0. -1.
</event>
<event>
 5    1  0.4866530E-005  0.1779243E+03  0.7818608E-02  0.1076423E+00
          4   -1    0    0  502    0 -0.00000000000E+00  0.00000000000E+00  0.38812983656E+03  0.38812983656E+03  0.00000000000E+00 0.  1.
         21   -1    0    0  501  502  0.00000000000E+00 -0.00000000000E+00 -0.11637008539E+03  0.11637008539E+03  0.00000000000E+00 0.  1.
        -13    1    1    2    0    0  0.19039771970E+03  0.50746987448E+02  0.20094749775E+03  0.28143641630E+03  0.10566000000E+00 0.  1.
         13    1    1    2    0    0 -0.14679610369E+03 -0.53194738447E+02  0.84191900669E+02  0.17738958132E+03  0.10566000000E+00 0. -1.
          4    1    1    2  501    0 -0.43601616008E+02  0.24477509987E+01 -0.13379647262E+02  0.45673924336E+02  0.00000000000E+00 0.  1.
</event>
<event>
 5    1  0.4866530E-005  0.6786350E+03  0.7818608E-02  0.9154560E-01
          4   -1    0    0  502    0 -0.00000000000E+00  0.00000000000E+00  0.14533350308E+04  0.14533350308E+04  0.00000000000E+00 0.  1.
         21   -1    0    0  501  502  0.00000000000E+00 -0.00000000000E+00 -0.83292191589E+03  0.83292191589E+03  0.00000000000E+00 0.  1.
        -13    1    1    2    0    0 -0.81063278058E+03 -0.16112181166E+03 -0.29026999832E+02  0.82699958950E+03  0.10566000000E+00 0.  1.
         13    1    1    2    0    0  0.63805272854E+03 -0.14265352830E+03  0.83750098948E+03  0.10624825797E+04  0.10566000000E+00 0. -1.
          4    1    1    2  501    0  0.17258005204E+03  0.30377533995E+03 -0.18806087469E+03  0.39677477757E+03  0.00000000000E+00 0.  1.
</event>
<event>
 5    1  0.4866530E-005  0.8010577E+02  0.7818608E-02  0.1272188E+00
         -4   -1    0    0    0  501 -0.00000000000E+00  0.00000000000E+00  0.35175617051E+02  0.35175617051E+02  0.00000000000E+00 0. -1.
         21   -1    0    0  501  502  0.00000000000E+00 -0.00000000000E+00 -0.31783447130E+03  0.31783447130E+03  0.00000000000E+00 0. -1.
        -13    1    1    2    0    0  0.86057969351E+01  0.15781778430E+02 -0.69240422895E+02  0.71535806405E+02  0.10566000000E+00 0.  1.
         13    1    1    2    0    0 -0.78173642488E+02  0.23830944178E+02 -0.41122821932E+02  0.91488414173E+02  0.10566000000E+00 0. -1.
         -4    1    1    2    0  502  0.69567845553E+02 -0.39612722608E+02 -0.17229560942E+03  0.18998586777E+03  0.00000000000E+00 0. -1.
</event>
<event>
 5    1  0.4866530E-005  0.4430757E+03  0.7818608E-02  0.9992044E-01
         21   -1    0    0  501  502  0.00000000000E+00  0.00000000000E+00  0.12941967824E+04  0.12941967824E+04  0.00000000000E+00 0.  1.
          4   -1    0    0  502    0 -0.00000000000E+00 -0.00000000000E+00 -0.25312539213E+03  0.25312539213E+03  0.00000000000E+00 0.  1.
        -13    1    1    2    0    0 -0.40407226644E+03  0.77176635027E+02  0.69482041470E+03  0.80746891541E+03  0.10566000000E+00 0.  1.
         13    1    1    2    0    0 -0.12071947141E+03 -0.11091778484E+02  0.35196034374E+02  0.12623387155E+03  0.10566000000E+00 0. -1.
          4    1    1    2  501    0  0.52479173785E+03 -0.66084856543E+02  0.31105494120E+03  0.61361938759E+03  0.00000000000E+00 0.  1.
</event>
<event>
 5    1  0.4866530E-005  0.5115750E+03  0.7818608E-02  0.9531161E-01
         21   -1    0    0  501  502  0.00000000000E+00  0.00000000000E+00  0.25144771930E+03  0.25144771930E+03  0.00000000000E+00 0.  1.
          4   -1    0    0  502    0 -0.00000000000E+00 -0.00000000000E+00 -0.22840752147E+04  0.22840752147E+04  0.00000000000E+00 0.  1.
        -13    1    1    2    0    0 -0.65788456794E+03 -0.62207837887E+02 -0.90295721942E+03  0.11189341675E+04  0.10566000000E+00 0.  1.
         13    1    1    2    0    0  0.28327920293E+03  0.26052162294E+03 -0.31143418782E+03  0.49508573737E+03  0.10566000000E+00 0. -1.
          4    1    1    2  501    0  0.37460536501E+03 -0.19831378506E+03 -0.81823608818E+03  0.92150302920E+03  0.00000000000E+00 0.  1.
</event>
<event>
 5    1  0.4866530E-005  0.4178870E+03  0.7818608E-02  0.9705755E-01
         -4   -1    0    0    0  501 -0.00000000000E+00  0.00000000000E+00  0.22073075441E+03  0.22073075441E+03  0.00000000000E+00 0. -1.
         21   -1    0    0  501  502  0.00000000000E+00 -0.00000000000E+00 -0.19712575453E+04  0.19712575453E+04  0.00000000000E+00 0. -1.
        -13    1    1    2    0    0 -0.36766595831E+03  0.97352528887E+02 -0.57605342429E+03  0.69028496332E+03  0.10566000000E+00 0.  1.
         13    1    1    2    0    0  0.43696261171E+03  0.29978415107E+03 -0.60953929768E+03  0.80767879001E+03  0.10566000000E+00 0. -1.
         -4    1    1    2    0  502 -0.69296653398E+02 -0.39713667996E+03 -0.56493406892E+03  0.69402454638E+03  0.00000000000E+00 0. -1.
</event>
<event>
 5    1  0.4866530E-005  0.1226103E+03  0.7818608E-02  0.1131772E+00
         21   -1    0    0  501  502  0.00000000000E+00  0.00000000000E+00  0.72380407589E+02  0.72380407589E+02  0.00000000000E+00 0. -1.
          4   -1    0    0  502    0 -0.00000000000E+00 -0.00000000000E+00 -0.50687043313E+03  0.50687043313E+03  0.00000000000E+00 0.  1.
        -13    1    1    2    0    0  0.87136534931E+02  0.84527443519E+02 -0.40076973210E+03  0.41875297463E+03  0.10566000000E+00 0.  1.
         13    1    1    2    0    0 -0.85674603860E+02 -0.96090175591E+02 -0.51979855291E+02  0.13883578830E+03  0.10566000000E+00 0. -1.
          4    1    1    2  501    0 -0.14619310712E+01  0.11562732073E+02  0.18259561850E+02  0.21662077795E+02  0.00000000000E+00 0.  1.
</event>
<event>
 5    1  0.4866530E-005  0.7157627E+02  0.7818608E-02  0.1222651E+00
          4   -1    0    0  502    0 -0.00000000000E+00  0.00000000000E+00  0.38677053515E+03  0.38677053515E+03  0.00000000000E+00 0.  1.
         21   -1    0    0  501  502  0.00000000000E+00 -0.00000000000E+00 -0.32805905896E+02  0.32805905896E+02  0.00000000000E+00 0. -1.
        -13    1    1    2    0    0 -0.24519685814E+02  0.62676265790E+02  0.23266846625E+03  0.24220684474E+03  0.10566000000E+00 0.  1.
         13    1    1    2    0    0  0.24461676986E+02 -0.78348025485E+02  0.13403780044E+03  0.15717165727E+03  0.10566000000E+00 0. -1.
          4    1    1    2  501    0  0.58008827580E-01  0.15671759695E+02 -0.12741637434E+02  0.20197939040E+02  0.00000000000E+00 0.  1.
</event>
<event>
 5    1  0.4866530E-005  0.3932042E+03  0.7818608E-02  0.9748880E-01
         21   -1    0    0  501  502  0.00000000000E+00  0.00000000000E+00  0.32620683000E+03  0.32620683000E+03  0.00000000000E+00 0. -1.
         -4   -1    0    0    0  501 -0.00000000000E+00 -0.00000000000E+00 -0.21500720823E+04  0.21500720823E+04  0.00000000000E+00 0. -1.
        -13    1    1    2    0    0 -0.26960736110E+03 -0.28091592518E+03 -0.11735612814E+04  0.12364659229E+04  0.10566000000E+00 0.  1.
         13    1    1    2    0    0  0.49381396105E+03  0.10066243487E+03  0.26232952746E+02  0.50465169463E+03  0.10566000000E+00 0. -1.
         -4    1    1    2    0  502 -0.22420659995E+03  0.18025349032E+03 -0.67653692362E+03  0.73516129472E+03  0.00000000000E+00 0. -1.
</event>
<event>
 5    1  0.4866530E-005  0.4818160E+03  0.7818608E-02  0.9706184E-01
         21   -1    0    0  501  502  0.00000000000E+00  0.00000000000E+00  0.30691063084E+03  0.30691063084E+03  0.00000000000E+00 0. -1.
          4   -1    0    0  502    0 -0.00000000000E+00 -0.00000000000E+00 -0.13595599407E+04  0.13595599407E+04  0.00000000000E+00 0.  1.
        -13    1    1    2    0    0 -0.32364165226E+03  0.12130570184E+03 -0.70026501092E+03  0.78091618568E+03  0.10566000000E+00 0.  1.
         13    1    1    2    0    0 -0.23806075123E+03 -0.68689904803E+02 -0.12177344463E+03  0.27607971182E+03  0.10566000000E+00 0. -1.
          4    1    1    2  501    0  0.56170240349E+03 -0.52615797040E+02 -0.23061085431E+03  0.60947467405E+03  0.00000000000E+00 0.  1.
</event>
<event>
 5    1  0.4866530E-005  0.6480458E+02  0.7818608E-02  0.1241056E+00
         21   -1    0    0  501  502  0.00000000000E+00  0.00000000000E+00  0.39733941652E+03  0.39733941652E+03  0.00000000000E+00 0. -1.
         -4   -1    0    0    0  501 -0.00000000000E+00 -0.00000000000E+00 -0.18834121037E+02  0.18834121037E+02  0.00000000000E+00 0. -1.
        -13    1    1    2    0    0  0.63872831085E+02 -0.22615200074E+02  0.10472189888E+03  0.12473120337E+03  0.10566000000E+00 0.  1.
         13    1    1    2    0    0 -0.64569658097E+02 -0.11498396646E+02  0.17116896304E+03  0.18330378868E+03  0.10566000000E+00 0. -1.
         -4    1    1    2    0  502  0.69682701228E+00  0.34113596719E+02  0.10261443356E+03  0.10813854550E+03  0.00000000000E+00 0. -1.
</event>
<event>
 5    1  0.4866530E-005  0.3021181E+03  0.7818608E-02  0.1006435E+00
         21   -1    0    0  501  502  0.00000000000E+00  0.00000000000E+00  0.65698415643E+02  0.65698415643E+02  0.00000000000E+00 0.  1.
         -4   -1    0    0    0  501 -0.00000000000E+00 -0.00000000000E+00 -0.22370588385E+04  0.22370588385E+04  0.00000000000E+00 0. -1.
        -13    1    1    2    0    0 -0.25352244354E+03 -0.15172101476E+03 -0.60093206005E+03  0.66963590679E+03  0.10566000000E+00 0.  1.
         13    1    1    2    0    0  0.29208138914E+03  0.95836363567E+02 -0.15138388714E+04  0.15447343739E+04  0.10566000000E+00 0. -1.
         -4    1    1    2    0  502 -0.38558945592E+02  0.55884651192E+02 -0.56589491429E+02  0.88386973386E+02  0.00000000000E+00 0. -1.
</event>
<event>
 5    1  0.4866530E-005  0.3876718E+03  0.7818608E-02  0.9765341E-01
          4   -1    0    0  502    0 -0.00000000000E+00  0.00000000000E+00  0.49306176701E+03  0.49306176701E+03  0.00000000000E+00 0.  1.
         21   -1    0    0  501  502  0.00000000000E+00 -0.00000000000E+00 -0.39105864675E+03  0.39105864675E+03  0.00000000000E+00 0. -1.
        -13    1    1    2    0    0  0.38173241457E+03 -0.14896703061E+03  0.15873076928E+03  0.43943859733E+03  0.10566000000E+00 0.  1.
         13    1    1    2    0    0 -0.32022845010E+03  0.16526636010E+03 -0.13983976701E+01  0.36036259061E+03  0.10566000000E+00 0. -1.
          4    1    1    2  501    0 -0.61503964474E+02 -0.16299329490E+02 -0.55329251345E+02  0.84319225816E+02  0.00000000000E+00 0.  1.
</event>
<event>
 5    1  0.4866530E-005  0.1689854E+03  0.7818608E-02  0.1083761E+00
         -4   -1    0    0    0  501 -0.00000000000E+00  0.00000000000E+00  0.33672006726E+03  0.33672006726E+03  0.00000000000E+00 0. -1.
         21   -1    0    0  501  502  0.00000000000E+00 -0.00000000000E+00 -0.22526779460E+03  0.22526779460E+03  0.00000000000E+00 0. -1.
        -13    1    1    2    0    0  0.58201401276E+02  0.15198896467E+03 -0.34254884324E+02  0.16631733751E+03  0.10566000000E+00 0.  1.
         13    1    1    2    0    0 -0.77003583124E+02 -0.15251034040E+03  0.24273740103E+03  0.29683398183E+03  0.10566000000E+00 0. -1.
         -4    1    1    2    0  502  0.18802181848E+02  0.52137572909E+00 -0.97030244053E+02  0.98836542513E+02  0.00000000000E+00 0. -1.
</event>
<event>
 5    1  0.4866530E-005  0.2780663E+03  0.7818608E-02  0.1044152E+00
         21   -1    0    0  501  502  0.00000000000E+00  0.00000000000E+00  0.42633990041E+03  0.42633990041E+03  0.00000000000E+00 0.  1.
          4   -1    0    0  502    0 -0.00000000000E+00 -0.00000000000E+00 -0.43449320179E+03  0.43449320179E+03  0.00000000000E+00 0.  1.
        -13    1    1    2    0    0 -0.11327117711E+03 -0.32028845629E+03 -0.22078176710E+03  0.40516620619E+03  0.10566000000E+00 0.  1.
         13    1    1    2    0    0 -0.44330523869E+02  0.11094959007E+03  0.13939728119E+03  0.18359362748E+03  0.10566000000E+00 0. -1.
          4    1    1    2  501    0  0.15760170098E+03  0.20933886622E+03  0.73231184522E+02  0.27207326853E+03  0.00000000000E+00 0.  1.
</event>
<event>
 5    1  0.4866530E-005  0.2874961E+03  0.7818608E-02  0.1012604E+00
         21   -1    0    0  501  502  0.00000000000E+00  0.00000000000E+00  0.25064595352E+03  0.25064595352E+03  0.00000000000E+00 0.  1.
          4   -1    0    0  502    0 -0.00000000000E+00 -0.00000000000E+00 -0.21535115837E+04  0.21535115837E+04  0.00000000000E+00 0.  1.
        -13    1    1    2    0    0 -0.22376402904E+03  0.20738411137E+03  0.12203669151E+03  0.32859013312E+03  0.10566000000E+00 0.  1.
         13    1    1    2    0    0  0.27227185035E+03 -0.94096145392E+02 -0.92594119767E+03  0.96971808160E+03  0.10566000000E+00 0. -1.
          4    1    1    2  501    0 -0.48507821310E+02 -0.11328796597E+03 -0.10989611240E+04  0.11058493225E+04  0.00000000000E+00 0.  1.
</event>
<event>
 5    1  0.4866530E-005  0.9140600E+02  0.7818608E-02  0.1179615E+00
          4   -1    0    0  502    0 -0.00000000000E+00  0.00000000000E+00  0.17796678279E+03  0.17796678279E+03  0.00000000000E+00 0.  1.
         21   -1    0    0  501  502  0.00000000000E+00 -0.00000000000E+00 -0.11643525320E+03  0.11643525320E+03  0.00000000000E+00 0.  1.
        -13    1    1    2    0    0  0.31939638241E+02  0.10789231457E+03 -0.57685139933E+02  0.12644555574E+03  0.10566000000E+00 0.  1.
         13    1    1    2    0    0 -0.97666626305E+01 -0.87139644749E+02  0.93226248230E+02  0.12798378768E+03  0.10566000000E+00 0. -1.
          4    1    1    2  501    0 -0.22172975611E+02 -0.20752669817E+02  0.25990421301E+02  0.39972692571E+02  0.00000000000E+00 0.  1.
</event>
<event>
 5    1  0.4866530E-005  0.1985950E+03  0.7818608E-02  0.1061103E+00
         -4   -1    0    0    0  501 -0.00000000000E+00  0.00000000000E+00  0.60632369055E+03  0.60632369055E+03  0.00000000000E+00 0. -1.
         21   -1    0    0  501  502  0.00000000000E+00 -0.00000000000E+00 -0.13947523069E+03  0.13947523069E+03  0.00000000000E+00 0.  1.
        -13    1    1    2    0    0  0.21628676231E+03  0.29969847960E+02  0.71792167853E+02  0.22985273953E+03  0.10566000000E+00 0.  1.
         13    1    1    2    0    0 -0.18931116599E+03  0.53876818170E+02  0.37807939443E+03  0.42624578445E+03  0.10566000000E+00 0. -1.
         -4    1    1    2    0  502 -0.26975596327E+02 -0.83846666129E+02  0.16976897578E+02  0.89700397265E+02  0.00000000000E+00 0. -1.
</event>
<event>
 5    1  0.4866530E-005  0.8770213E+02  0.7818608E-02  0.1186681E+00
         -4   -1    0    0    0  501 -0.00000000000E+00  0.00000000000E+00  0.36784356336E+03  0.36784356336E+03  0.00000000000E+00 0. -1.
         21   -1    0    0  501  502  0.00000000000E+00 -0.00000000000E+00 -0.53809800016E+02  0.53809800016E+02  0.00000000000E+00 0.  1.
        -13    1    1    2    0    0 -0.75695573672E+02 -0.74059360865E+02  0.58720972160E+02  0.12108993575E+03  0.10566000000E+00 0.  1.
         13    1    1    2    0    0  0.44954042855E+02  0.71258830775E+02  0.25618325330E+03  0.26968232676E+03  0.10566000000E+00 0. -1.
         -4    1    1    2    0  502  0.30741530816E+02  0.28005300898E+01 -0.87046212040E+00  0.30881100855E+02  0.00000000000E+00 0. -1.
</event>
<event>
 5    1  0.4866530E-005  0.8274189E+02  0.7818608E-02  0.1196773E+00
         -4   -1    0    0    0  501 -0.00000000000E+00  0.00000000000E+00  0.34257371611E+03  0.34257371611E+03  0.00000000000E+00 0. -1.
         21   -1    0    0  501  502  0.00000000000E+00 -0.00000000000E+00 -0.50795590186E+02  0.50795590186E+02  0.00000000000E+00 0.  1.
        -13    1    1    2    0    0 -0.72945517064E+01  0.75351814676E+02 -0.19230384746E+01  0.75728565948E+02  0.10566000000E+00 0.  1.
         13    1    1    2    0    0 -0.18148573856E+02 -0.82488630817E+02  0.26713812518E+03  0.28017232918E+03  0.10566000000E+00 0. -1.
         -4    1    1    2    0  502  0.25443125563E+02  0.71368161407E+01  0.26563039210E+02  0.37468411163E+02  0.00000000000E+00 0. -1.
</event>
<event>
 5    1  0.4866530E-005  0.3994315E+03  0.7818608E-02  0.9730689E-01
          4   -1    0    0  502    0 -0.00000000000E+00  0.00000000000E+00  0.40128203306E+03  0.40128203306E+03  0.00000000000E+00 0.  1.
         21   -1    0    0  501  502  0.00000000000E+00 -0.00000000000E+00 -0.99513571398E+03  0.99513571398E+03  0.00000000000E+00 0. -1.
        -13    1    1    2    0    0  0.96191655025E+01 -0.36834509851E+03 -0.54039685130E+02  0.37241232347E+03  0.10566000000E+00 0.  1.
         13    1    1    2    0    0 -0.33366471305E+03  0.39974389092E+03 -0.21262412115E+03  0.56243786067E+03  0.10566000000E+00 0. -1.
          4    1    1    2  501    0  0.32404554754E+03 -0.31398792411E+02 -0.32718987463E+03  0.46156756289E+03  0.00000000000E+00 0.  1.
</event>
<event>
 5    1  0.4866530E-005  0.4552293E+03  0.7818608E-02  0.1077163E+00
         -4   -1    0    0    0  501 -0.00000000000E+00  0.00000000000E+00  0.39366816937E+03  0.39366816937E+03  0.00000000000E+00 0. -1.
         21   -1    0    0  501  502  0.00000000000E+00 -0.00000000000E+00 -0.71578159636E+03  0.71578159636E+03  0.00000000000E+00 0. -1.
        -13    1    1    2    0    0 -0.45516162515E+01 -0.93542813805E+01  0.32665498629E+02  0.34282149223E+02  0.10566000000E+00 0.  1.
         13    1    1    2    0    0 -0.34427441356E+03  0.30074832309E+03  0.58477569466E+02  0.46086230370E+03  0.10566000000E+00 0. -1.
         -4    1    1    2    0  502  0.34882602982E+03 -0.29139404171E+03 -0.41325649508E+03  0.61430531281E+03  0.00000000000E+00 0. -1.
</event>
<event>
 5    1  0.4866530E-005  0.3637361E+03  0.7818608E-02  0.9840052E-01
          4   -1    0    0  502    0 -0.00000000000E+00  0.00000000000E+00  0.22486197214E+04  0.22486197214E+04  0.00000000000E+00 0.  1.
         21   -1    0    0  501  502  0.00000000000E+00 -0.00000000000E+00 -0.76340955864E+02  0.76340955864E+02  0.00000000000E+00 0. -1.
        -13    1    1    2    0    0  0.33961129552E+03  0.15735329887E+03  0.15061502690E+04  0.15519615126E+04  0.10566000000E+00 0.  1.
         13    1    1    2    0    0 -0.32100740282E+03 -0.12435814107E+03  0.64084802390E+03  0.72745920904E+03  0.10566000000E+00 0. -1.
          4    1    1    2  501    0 -0.18603892692E+02 -0.32995157796E+02  0.25280472699E+02  0.45539955656E+02  0.00000000000E+00 0.  1.
</event>
<event>
 5    1  0.4866530E-005  0.1275568E+03  0.7818608E-02  0.1148801E+00
         -4   -1    0    0    0  501 -0.00000000000E+00  0.00000000000E+00  0.50118868355E+03  0.50118868355E+03  0.00000000000E+00 0. -1.
         21   -1    0    0  501  502  0.00000000000E+00 -0.00000000000E+00 -0.58779772174E+03  0.58779772174E+03  0.00000000000E+00 0. -1.
        -13    1    1    2    0    0 -0.49786210483E+02  0.50451289502E+02 -0.66257329451E+01  0.71189260902E+02  0.10566000000E+00 0.  1.
         13    1    1    2    0    0  0.13645907987E+03  0.43199378952E+02  0.45023555303E+03  0.47243976463E+03  0.10566000000E+00 0. -1.
         -4    1    1    2    0  502 -0.86672869383E+02 -0.93650668454E+02 -0.53021885828E+03  0.54535737977E+03  0.00000000000E+00 0. -1.
</event>
<event>
 5    1  0.4866530E-005  0.2920762E+03  0.7818608E-02  0.1010631E+00
         -4   -1    0    0    0  501 -0.00000000000E+00  0.00000000000E+00  0.13957331316E+04  0.13957331316E+04  0.00000000000E+00 0. -1.
         21   -1    0    0  501  502  0.00000000000E+00 -0.00000000000E+00 -0.12111184873E+03  0.12111184873E+03  0.00000000000E+00 0.  1.
        -13    1    1    2    0    0  0.25052487406E+03 -0.87891322005E+02  0.88726611504E+02  0.27992859761E+03  0.10566000000E+00 0.  1.
         13    1    1    2    0    0 -0.27180682192E+03  0.12115427893E+03  0.11296789459E+04  0.11682173769E+04  0.10566000000E+00 0. -1.
         -4    1    1    2    0  502  0.21281947867E+02 -0.33262956927E+02  0.56215725416E+02  0.68699005761E+02  0.00000000000E+00 0. -1.
</event>
<event>
 5    1  0.4866530E-005  0.1507121E+03  0.7818608E-02  0.1100411E+00
         -4   -1    0    0    0  501 -0.00000000000E+00  0.00000000000E+00  0.34214369083E+03  0.34214369083E+03  0.00000000000E+00 0. -1.
         21   -1    0    0  501  502  0.00000000000E+00 -0.00000000000E+00 -0.17063967962E+03  0.17063967962E+03  0.00000000000E+00 0.  1.
        -13    1    1    2    0    0  0.24416380862E+02 -0.17803404218E+03 -0.20646299178E+02  0.18088272627E+03  0.10566000000E+00 0.  1.
         13    1    1    2    0    0 -0.28161336899E+02  0.14209105852E+03  0.23486940851E+03  0.27594669780E+03  0.10566000000E+00 0. -1.
         -4    1    1    2    0  502  0.37449560373E+01  0.35942983665E+02 -0.42719098123E+02  0.55953946374E+02  0.00000000000E+00 0. -1.
</event>
<event>
 5    1  0.4866530E-005  0.1865368E+03  0.7818608E-02  0.1069779E+00
         21   -1    0    0  501  502  0.00000000000E+00  0.00000000000E+00  0.14457491824E+03  0.14457491824E+03  0.00000000000E+00 0.  1.
         -4   -1    0    0    0  501 -0.00000000000E+00 -0.00000000000E+00 -0.52494670697E+03  0.52494670697E+03  0.00000000000E+00 0. -1.
        -13    1    1    2    0    0 -0.19019131023E+03 -0.75837339702E+02 -0.18359729524E+02  0.20557511380E+03  0.10566000000E+00 0.  1.
         13    1    1    2    0    0  0.13674870538E+03  0.12391095117E+03 -0.34316100943E+03  0.38963267548E+03  0.10566000000E+00 0. -1.
         -4    1    1    2    0  502  0.53442604851E+02 -0.48073611472E+02 -0.18851049771E+02  0.74313835930E+02  0.00000000000E+00 0. -1.
</event>
<event>
 5    1  0.4866530E-005  0.4622510E+02  0.7818608E-02  0.1307971E+00
          4   -1    0    0  502    0 -0.00000000000E+00  0.00000000000E+00  0.51832992722E+02  0.51832992722E+02  0.00000000000E+00 0.  1.
         21   -1    0    0  501  502  0.00000000000E+00 -0.00000000000E+00 -0.20523382852E+03  0.20523382852E+03  0.00000000000E+00 0.  1.
        -13    1    1    2    0    0  0.10559237198E+02 -0.60365354022E+02  0.70697902292E+01  0.61688463706E+02  0.10566000000E+00 0.  1.
         13    1    1    2    0    0  0.83820124652E+01  0.35428722554E+02 -0.49564918019E+01  0.36742761053E+02  0.10566000000E+00 0. -1.
          4    1    1    2  501    0 -0.18941249663E+02  0.24936631469E+02 -0.15551413422E+03  0.15863559648E+03  0.00000000000E+00 0.  1.
</event>
<event>
 5    1  0.4866530E-005  0.3162932E+02  0.7818608E-02  0.1392284E+00
          4   -1    0    0  502    0 -0.00000000000E+00  0.00000000000E+00  0.80366573234E+02  0.80366573234E+02  0.00000000000E+00 0.  1.
         21   -1    0    0  501  502  0.00000000000E+00 -0.00000000000E+00 -0.24490067792E+02  0.24490067792E+02  0.00000000000E+00 0.  1.
        -13    1    1    2    0    0  0.37418658854E+02  0.99267485740E+01  0.10167664712E+02  0.40026103201E+02  0.10566000000E+00 0.  1.
         13    1    1    2    0    0 -0.26504727505E+02 -0.74802584439E+01  0.13373880485E+02  0.30615791510E+02  0.10566000000E+00 0. -1.
          4    1    1    2  501    0 -0.10913931349E+02 -0.24464901301E+01  0.32334960244E+02  0.34214746316E+02  0.00000000000E+00 0.  1.
</event>
<event>
 5    1  0.4866530E-005  0.3951761E+03  0.7818608E-02  0.9743081E-01
         -4   -1    0    0    0  501 -0.00000000000E+00  0.00000000000E+00  0.14291833954E+04  0.14291833954E+04  0.00000000000E+00 0. -1.
         21   -1    0    0  501  502  0.00000000000E+00 -0.00000000000E+00 -0.65695506776E+03  0.65695506776E+03  0.00000000000E+00 0. -1.
        -13    1    1    2    0    0 -0.23797912534E+03  0.31762102340E+03  0.91086332771E+03  0.99357394870E+03  0.10566000000E+00 0.  1.
         13    1    1    2    0    0  0.52554985093E+03 -0.56029614289E+02 -0.36537065494E+03  0.64252446657E+03  0.10566000000E+00 0. -1.
         -4    1    1    2    0  502 -0.28757072559E+03 -0.26159140911E+03  0.22673565491E+03  0.45004004794E+03  0.00000000000E+00 0. -1.
</event>
<event>
 5    1  0.4866530E-005  0.2596342E+03  0.7818608E-02  0.1025518E+00
         21   -1    0    0  501  502  0.00000000000E+00  0.00000000000E+00  0.12308346720E+03  0.12308346720E+03  0.00000000000E+00 0.  1.
         -4   -1    0    0    0  501 -0.00000000000E+00 -0.00000000000E+00 -0.72633103404E+03  0.72633103404E+03  0.00000000000E+00 0. -1.
        -13    1    1    2    0    0  0.20107271813E+03  0.15728872776E+03 -0.31994270904E+03  0.40930835575E+03  0.10566000000E+00 0.  1.
         13    1    1    2    0    0 -0.19985301416E+03 -0.17332923021E+03 -0.31086614674E+03  0.40819360807E+03  0.10566000000E+00 0. -1.
         -4    1    1    2    0  502 -0.12197039687E+01  0.16040502448E+02  0.27561288938E+02  0.31912537418E+02  0.00000000000E+00 0. -1.
</event>
<event>
 5    1  0.4866530E-005  0.9050460E+02  0.7818608E-02  0.1181300E+00
         -4   -1    0    0    0  501 -0.00000000000E+00  0.00000000000E+00  0.47424347235E+02  0.47424347235E+02  0.00000000000E+00 0. -1.
         21   -1    0    0  501  502  0.00000000000E+00 -0.00000000000E+00 -0.25978697286E+03  0.25978697286E+03  0.00000000000E+00 0.  1.
        -13    1    1    2    0    0  0.74649185002E+02 -0.58642248034E+02 -0.43769268650E+02  0.10453312450E+03  0.10566000000E+00 0.  1.
         13    1    1    2    0    0 -0.75804339146E+02  0.37797524463E+02 -0.10038932671E+03  0.13135059486E+03  0.10566000000E+00 0. -1.
         -4    1    1    2    0  502  0.11551541437E+01  0.20844723571E+02 -0.68204030264E+02  0.71327600731E+02  0.00000000000E+00 0. -1.
</event>
<event>
 5    1  0.4866530E-005  0.5933605E+03  0.7818608E-02  0.9293940E-01
         -4   -1    0    0    0  501 -0.00000000000E+00  0.00000000000E+00  0.72790825635E+03  0.72790825635E+03  0.00000000000E+00 0. -1.
         21   -1    0    0  501  502  0.00000000000E+00 -0.00000000000E+00 -0.51584618184E+03  0.51584618184E+03  0.00000000000E+00 0.  1.
        -13    1    1    2    0    0  0.26942899535E+03  0.51051354884E+03  0.47829021454E+02  0.57922680665E+03  0.10566000000E+00 0.  1.
         13    1    1    2    0    0 -0.29792539627E+03 -0.52941506332E+03  0.16755830793E+03  0.63017112655E+03  0.10566000000E+00 0. -1.
         -4    1    1    2    0  502  0.28496400923E+02  0.18901514485E+02 -0.33252548760E+01  0.34356504994E+02  0.00000000000E+00 0. -1.
</event>
<event>
 5    1  0.4866530E-005  0.9343143E+02  0.7818608E-02  0.1175906E+00
         21   -1    0    0  501  502  0.00000000000E+00  0.00000000000E+00  0.44808855383E+03  0.44808855383E+03  0.00000000000E+00 0. -1.
         -4   -1    0    0    0  501 -0.00000000000E+00 -0.00000000000E+00 -0.56605794270E+02  0.56605794270E+02  0.00000000000E+00 0. -1.
        -13    1    1    2    0    0 -0.59095655540E+02  0.60496792412E+02  0.16911037853E+03  0.18907799895E+03  0.10566000000E+00 0.  1.
         13    1    1    2    0    0  0.70095069807E+02 -0.65448211705E+02  0.30354377789E+01  0.95947966488E+02  0.10566000000E+00 0. -1.
         -4    1    1    2    0  502 -0.10999414267E+02  0.49514192932E+01  0.21933694326E+03  0.21966838267E+03  0.00000000000E+00 0. -1.
</event>
<event>
 5    1  0.4866530E-005  0.6676649E+02  0.7818608E-02  0.1235476E+00
         21   -1    0    0  501  502  0.00000000000E+00  0.00000000000E+00  0.40626919498E+02  0.40626919498E+02  0.00000000000E+00 0.  1.
          4   -1    0    0  502    0 -0.00000000000E+00 -0.00000000000E+00 -0.44912061105E+03  0.44912061105E+03  0.00000000000E+00 0.  1.
        -13    1    1    2    0    0 -0.72434176765E+02 -0.23438743879E+02 -0.21219171576E+03  0.22543606650E+03  0.10566000000E+00 0.  1.
         13    1    1    2    0    0  0.58417379976E+02  0.17594272278E+02 -0.22430581705E+03  0.23245485460E+03  0.10566000000E+00 0. -1.
          4    1    1    2  501    0  0.14016796789E+02  0.58444716013E+01  0.28003841257E+02  0.31856609450E+02  0.00000000000E+00 0.  1.
</event>
<event>
 5    1  0.4866530E-005  0.5013122E+03  0.7818608E-02  0.9611849E-01
         21   -1    0    0  501  502  0.00000000000E+00  0.00000000000E+00  0.52252181381E+03  0.52252181381E+03  0.00000000000E+00 0. -1.
         -4   -1    0    0    0  501 -0.00000000000E+00 -0.00000000000E+00 -0.89622586777E+03  0.89622586777E+03  0.00000000000E+00 0. -1.
        -13    1    1    2    0    0 -0.28454626764E+03 -0.11365106458E+03 -0.16524520701E+02  0.30684884529E+03  0.10566000000E+00 0.  1.
         13    1    1    2    0    0 -0.17015083403E+03  0.44296599282E+03 -0.26331005168E+03  0.54268072713E+03  0.10566000000E+00 0. -1.
         -4    1    1    2    0  502  0.45469710167E+03 -0.32931492824E+03 -0.93869481579E+02  0.56921810917E+03  0.00000000000E+00 0. -1.
</event>
<event>
 5    1  0.4866530E-005  0.6925189E+03  0.7818608E-02  0.9133902E-01
          4   -1    0    0  502    0 -0.00000000000E+00  0.00000000000E+00  0.10739001346E+04  0.10739001346E+04  0.00000000000E+00 0.  1.
         21   -1    0    0  501  502  0.00000000000E+00 -0.00000000000E+00 -0.82123244697E+03  0.82123244697E+03  0.00000000000E+00 0.  1.
        -13    1    1    2    0    0  0.20362397652E+02 -0.69670591162E+03  0.45705811777E+03  0.83349618398E+03  0.10566000000E+00 0.  1.
         13    1    1    2    0    0 -0.98806302835E+01  0.68594962668E+03  0.15386689691E+03  0.70306439985E+03  0.10566000000E+00 0. -1.
          4    1    1    2  501    0 -0.10481767368E+02  0.10756284932E+02 -0.35825732709E+03  0.35857199769E+03  0.00000000000E+00 0.  1.
</event>
<event>
 5    1  0.4866530E-005  0.5062526E+03  0.7818608E-02  0.9618611E-01
         21   -1    0    0  501  502  0.00000000000E+00  0.00000000000E+00  0.45437384992E+03  0.45437384992E+03  0.00000000000E+00 0. -1.
          4   -1    0    0  502    0 -0.00000000000E+00 -0.00000000000E+00 -0.10168770524E+04  0.10168770524E+04  0.00000000000E+00 0.  1.
        -13    1    1    2    0    0  0.37089695500E+03  0.48233187956E+03 -0.11941493003E+03  0.62005526363E+03  0.10566000000E+00 0.  1.
         13    1    1    2    0    0 -0.28465706505E+03 -0.57826402856E+02 -0.21692018162E+03  0.36252988002E+03  0.10566000000E+00 0. -1.
          4    1    1    2  501    0 -0.86239889945E+02 -0.42450547671E+03 -0.22616809079E+03  0.48866575864E+03  0.00000000000E+00 0.  1.
</event>
<event>
 5    1  0.4866530E-005  0.4080368E+03  0.7818608E-02  0.1013757E+00
         21   -1    0    0  501  502  0.00000000000E+00  0.00000000000E+00  0.14208727823E+03  0.14208727823E+03  0.00000000000E+00 0.  1.
          4   -1    0    0  502    0 -0.00000000000E+00 -0.00000000000E+00 -0.23238070127E+04  0.23238070127E+04  0.00000000000E+00 0.  1.
        -13    1    1    2    0    0 -0.30561020801E+03 -0.25295972446E+03 -0.28783981537E+03  0.49014078785E+03  0.10566000000E+00 0.  1.
         13    1    1    2    0    0  0.38849965813E+01 -0.96848780538E+02 -0.24786077033E+03  0.26613859570E+03  0.10566000000E+00 0. -1.
          4    1    1    2  501    0  0.30172521143E+03  0.34980850500E+03 -0.16460191488E+04  0.17096149074E+04  0.00000000000E+00 0.  1.
</event>
<event>
 5    1  0.4866530E-005  0.6474567E+03  0.7818608E-02  0.9202896E-01
          4   -1    0    0  502    0 -0.00000000000E+00  0.00000000000E+00  0.18934474340E+04  0.18934474340E+04  0.00000000000E+00 0.  1.
         21   -1    0    0  501  502  0.00000000000E+00 -0.00000000000E+00 -0.31854391095E+03  0.31854391095E+03  0.00000000000E+00 0. -1.
        -13    1    1    2    0    0 -0.53565128189E+03  0.37093949230E+03  0.12429793563E+04  0.14033944899E+04  0.10566000000E+00 0.  1.
         13    1    1    2    0    0  0.54484296471E+03 -0.33371175439E+03  0.38285409343E+03  0.74484539284E+03  0.10566000000E+00 0. -1.
          4    1    1    2  501    0 -0.91916828187E+01 -0.37227737912E+02 -0.50929926721E+02  0.63751462249E+02  0.00000000000E+00 0.  1.
</event>
<event>
 5    1  0.4866530E-005  0.5034365E+03  0.7818608E-02  0.9899337E-01
         21   -1    0    0  501  502  0.00000000000E+00  0.00000000000E+00  0.73868817491E+03  0.73868817491E+03  0.00000000000E+00 0.  1.
          4   -1    0    0  502    0 -0.00000000000E+00 -0.00000000000E+00 -0.69892516371E+03  0.69892516371E+03  0.00000000000E+00 0.  1.
        -13    1    1    2    0    0 -0.12497430936E+03  0.46133875884E+03  0.98473740570E+02  0.48800524296E+03  0.10566000000E+00 0.  1.
         13    1    1    2    0    0  0.90628281756E+02  0.66430758260E+02 -0.33468839943E+03  0.35304796695E+03  0.10566000000E+00 0. -1.
          4    1    1    2  501    0  0.34346027601E+02 -0.52776951710E+03  0.27597767005E+03  0.59656012871E+03  0.00000000000E+00 0.  1.
</event>
<event>
 5    1  0.4866530E-005  0.5122562E+03  0.7818608E-02  0.9473439E-01
          4   -1    0    0  502    0 -0.00000000000E+00  0.00000000000E+00  0.29643630735E+04  0.29643630735E+04  0.00000000000E+00 0.  1.
         21   -1    0    0  501  502  0.00000000000E+00 -0.00000000000E+00 -0.22046978042E+03  0.22046978042E+03  0.00000000000E+00 0.  1.
        -13    1    1    2    0    0  0.16207967007E+03 -0.27635354357E+03  0.84549874720E+03  0.90416217748E+03  0.10566000000E+00 0.  1.
         13    1    1    2    0    0 -0.39331849824E+02 -0.47108449804E+03  0.99619678447E+03  0.11026675126E+04  0.10566000000E+00 0. -1.
          4    1    1    2  501    0 -0.12274782024E+03  0.74743804161E+03  0.90219776140E+03  0.11780031639E+04  0.00000000000E+00 0.  1.
</event>
<event>
 5    1  0.4866530E-005  0.6013334E+02  0.7818608E-02  0.1255274E+00
         -4   -1    0    0    0  501 -0.00000000000E+00  0.00000000000E+00  0.10601842217E+03  0.10601842217E+03  0.00000000000E+00 0. -1.
         21   -1    0    0  501  502  0.00000000000E+00 -0.00000000000E+00 -0.98668770336E+02  0.98668770336E+02  0.00000000000E+00 0. -1.
        -13    1    1    2    0    0  0.10142209800E+02  0.70334160285E+02  0.27213596136E+02  0.76094346054E+02  0.10566000000E+00 0.  1.
         13    1    1    2    0    0  0.17195777925E+02 -0.53045053536E+02  0.34327601991E+02  0.65481813548E+02  0.10566000000E+00 0. -1.
         -4    1    1    2    0  502 -0.27337987725E+02 -0.17289106749E+02 -0.54191546291E+02  0.63111032906E+02  0.00000000000E+00 0. -1.
</event>
<event>
 5    1  0.4866530E-005  0.4837388E+03  0.7818608E-02  0.9635033E-01
         -4   -1    0    0    0  501 -0.00000000000E+00  0.00000000000E+00  0.97787517855E+03  0.97787517855E+03  0.00000000000E+00 0. -1.
         21   -1    0    0  501  502  0.00000000000E+00 -0.00000000000E+00 -0.57486932366E+03  0.57486932366E+03  0.00000000000E+00 0. -1.
        -13    1    1    2    0    0  0.30186306777E+03 -0.87023730792E+02  0.42167166489E+03  0.52583404753E+03  0.10566000000E+00 0.  1.
         13    1    1    2    0    0 -0.89286062486E+02  0.51937195091E+03 -0.10528146521E+03  0.53740433793E+03  0.10566000000E+00 0. -1.
         -4    1    1    2    0  502 -0.21257700529E+03 -0.43234822012E+03  0.86615655210E+02  0.48950611676E+03  0.00000000000E+00 0. -1.
</event>
<event>
 5    1  0.4866530E-005  0.6053903E+02  0.7818608E-02  0.1263721E+00
         21   -1    0    0  501  502  0.00000000000E+00  0.00000000000E+00  0.51219636251E+03  0.51219636251E+03  0.00000000000E+00 0.  1.
         -4   -1    0    0    0  501 -0.00000000000E+00 -0.00000000000E+00 -0.21321148853E+02  0.21321148853E+02  0.00000000000E+00 0. -1.
        -13    1    1    2    0    0  0.72463517289E+02 -0.50104739736E+02  0.20523340163E+03  0.22334324837E+03  0.10566000000E+00 0.  1.
         13    1    1    2    0    0 -0.42871654940E+02 -0.27090482556E+01  0.45729497006E+02  0.62741659208E+02  0.10566000000E+00 0. -1.
         -4    1    1    2    0  502 -0.29591862348E+02  0.52813787992E+02  0.23991231502E+03  0.24743260379E+03  0.00000000000E+00 0. -1.
</event>
<event>
 5    1  0.4866530E-005  0.5857653E+03  0.7818608E-02  0.9307539E-01
         21   -1    0    0  501  502  0.00000000000E+00  0.00000000000E+00  0.26571238483E+03  0.26571238483E+03  0.00000000000E+00 0.  1.
         -4   -1    0    0    0  501 -0.00000000000E+00 -0.00000000000E+00 -0.26135947003E+04  0.26135947003E+04  0.00000000000E+00 0. -1.
        -13    1    1    2    0    0 -0.21989849879E+03  0.48230097934E+03 -0.89206018250E+03  0.10376612958E+04  0.10566000000E+00 0.  1.
         13    1    1    2    0    0  0.20156523665E+03 -0.69998154535E+03 -0.55788346328E+03  0.91751658199E+03  0.10566000000E+00 0. -1.
         -4    1    1    2    0  502  0.18333262140E+02  0.21768056601E+03 -0.89793866974E+03  0.92412920738E+03  0.00000000000E+00 0. -1.
</event>
<event>
 5    1  0.4866530E-005  0.3284504E+03  0.7818608E-02  0.9962086E-01
         21   -1    0    0  501  502  0.00000000000E+00  0.00000000000E+00  0.17863098080E+04  0.17863098080E+04  0.00000000000E+00 0.  1.
         -4   -1    0    0    0  501 -0.00000000000E+00 -0.00000000000E+00 -0.19389486589E+03  0.19389486589E+03  0.00000000000E+00 0. -1.
        -13    1    1    2    0    0  0.16787617811E+03  0.32559101170E+03  0.69956403070E+03  0.78967193333E+03  0.10566000000E+00 0.  1.
         13    1    1    2    0    0 -0.32392617717E+03 -0.10825006052E+03  0.10320382765E+03  0.35678745082E+03  0.10566000000E+00 0. -1.
         -4    1    1    2    0  502  0.15604999906E+03 -0.21734095118E+03  0.78964708380E+03  0.83374528978E+03  0.00000000000E+00 0. -1.
</event>
<event>
 5    1  0.4866530E-005  0.3014655E+03  0.7818608E-02  0.1026005E+00
         21   -1    0    0  501  502  0.00000000000E+00  0.00000000000E+00  0.35688365594E+03  0.35688365594E+03  0.00000000000E+00 0. -1.
         -4   -1    0    0    0  501 -0.00000000000E+00 -0.00000000000E+00 -0.15953365600E+04  0.15953365600E+04  0.00000000000E+00 0. -1.
        -13    1    1    2    0    0  0.14218541213E+02  0.16273986421E+03 -0.92752722798E+03  0.94180316422E+03  0.10566000000E+00 0.  1.
         13    1    1    2    0    0 -0.90139640847E+02  0.14718574797E+03 -0.57241580203E+03  0.59787010365E+03  0.10566000000E+00 0. -1.
         -4    1    1    2    0  502  0.75921099634E+02 -0.30992561219E+03  0.26149012590E+03  0.41254694812E+03  0.00000000000E+00 0. -1.
</event>
<event>
 5    1  0.4866530E-005  0.3965795E+03  0.7818608E-02  0.1006810E+00
         21   -1    0    0  501  502  0.00000000000E+00  0.00000000000E+00  0.16496498329E+04  0.16496498329E+04  0.00000000000E+00 0. -1.
          4   -1    0    0  502    0 -0.00000000000E+00 -0.00000000000E+00 -0.56445034706E+03  0.56445034706E+03  0.00000000000E+00 0.  1.
        -13    1    1    2    0    0  0.13016831764E+03 -0.14083225042E+03  0.51278949802E+03  0.54747656947E+03  0.10566000000E+00 0.  1.
         13    1    1    2    0    0  0.38340563472E+03 -0.57065835906E+03  0.23633585626E+03  0.72698383175E+03  0.10566000000E+00 0. -1.
          4    1    1    2  501    0 -0.51357395237E+03  0.71149060948E+03  0.33607413160E+03  0.93963977878E+03  0.00000000000E+00 0.  1.
</event>
<event>
 5    1  0.4866530E-005  0.4185086E+03  0.7818608E-02  0.1012904E+00
         -4   -1    0    0    0  501 -0.00000000000E+00  0.00000000000E+00  0.54661095098E+03  0.54661095098E+03  0.00000000000E+00 0. -1.
         21   -1    0    0  501  502  0.00000000000E+00 -0.00000000000E+00 -0.41897788654E+03  0.41897788654E+03  0.00000000000E+00 0. -1.
        -13    1    1    2    0    0 -0.66590533608E+02  0.63928098399E+02 -0.23989281728E+02  0.95376085750E+02  0.10566000000E+00 0.  1.
         13    1    1    2    0    0  0.42876668871E+03  0.91502118969E+02 -0.23253755369E+02  0.43903787926E+03  0.10566000000E+00 0. -1.
         -4    1    1    2    0  502 -0.36217615510E+03 -0.15543021737E+03  0.17487610154E+03  0.43117487251E+03  0.00000000000E+00 0. -1.
</event>
<event>
 5    1  0.4866530E-005  0.4955696E+03  0.7818608E-02  0.9998696E-01
          4   -1    0    0  502    0 -0.00000000000E+00  0.00000000000E+00  0.70844968126E+03  0.70844968126E+03  0.00000000000E+00 0.  1.
         21   -1    0    0  501  502  0.00000000000E+00 -0.00000000000E+00 -0.53246435760E+03  0.53246435760E+03  0.00000000000E+00 0.  1.
        -13    1    1    2    0    0 -0.45632332030E+03 -0.31618879529E+03  0.34429235100E+03  0.65325612208E+03  0.10566000000E+00 0.  1.
         13    1    1    2    0    0  0.81372352044E+02  0.23761181967E+02 -0.50895312798E+01  0.84923306214E+02  0.10566000000E+00 0. -1.
          4    1    1    2  501    0  0.37495096826E+03  0.29242761333E+03 -0.16321749606E+03  0.50273461056E+03  0.00000000000E+00 0.  1.
</event>
<event>
 5    1  0.4866530E-005  0.4945147E+03  0.7818608E-02  0.9490076E-01
         21   -1    0    0  501  502  0.00000000000E+00  0.00000000000E+00  0.12359097823E+04  0.12359097823E+04  0.00000000000E+00 0. -1.
         -4   -1    0    0    0  501 -0.00000000000E+00 -0.00000000000E+00 -0.65205553188E+03  0.65205553188E+03  0.00000000000E+00 0. -1.
        -13    1    1    2    0    0 -0.46212658576E+03  0.19393236891E+03 -0.19554997029E+03  0.53796890897E+03  0.10566000000E+00 0.  1.
         13    1    1    2    0    0  0.34664488358E+03 -0.33704029027E+03  0.97082640737E+03  0.10845564794E+04  0.10566000000E+00 0. -1.
         -4    1    1    2    0  502  0.11548170218E+03  0.14310792136E+03 -0.19142218664E+03  0.26543992585E+03  0.00000000000E+00 0. -1.
</event>
<event>
 5    1  0.4866530E-005  0.6429689E+03  0.7818608E-02  0.9210088E-01
         21   -1    0    0  501  502  0.00000000000E+00  0.00000000000E+00  0.34725265863E+03  0.34725265863E+03  0.00000000000E+00 0. -1.
          4   -1    0    0  502    0 -0.00000000000E+00 -0.00000000000E+00 -0.34591676614E+04  0.34591676614E+04  0.00000000000E+00 0.  1.
        -13    1    1    2    0    0 -0.61605920569E+03  0.26503547045E+03 -0.32437070906E+03  0.74497591476E+03  0.10566000000E+00 0.  1.
         13    1    1    2    0    0  0.26340569104E+03 -0.62016824407E+03 -0.21367012658E+04  0.22404203890E+04  0.10566000000E+00 0. -1.
          4    1    1    2  501    0  0.35265351465E+03  0.35513277361E+03 -0.65084302788E+03  0.82102401623E+03  0.00000000000E+00 0.  1.
</event>
<event>
 5    1  0.4866530E-005  0.3734227E+03  0.7818608E-02  0.9991178E-01
         21   -1    0    0  501  502  0.00000000000E+00  0.00000000000E+00  0.96375682276E+03  0.96375682276E+03  0.00000000000E+00 0. -1.
         -4   -1    0    0    0  501 -0.00000000000E+00 -0.00000000000E+00 -0.39076113874E+03  0.39076113874E+03  0.00000000000E+00 0. -1.
        -13    1    1    2    0    0 -0.15645960223E+03  0.12946958030E+03  0.11810177092E+02  0.20342436137E+03  0.10566000000E+00 0.  1.
         13    1    1    2    0    0  0.49140464359E+03 -0.16112900367E+02  0.46114378093E+01  0.49169037597E+03  0.10566000000E+00 0. -1.
         -4    1    1    2    0  502 -0.33494504136E+03 -0.11335667993E+03  0.55657406911E+03  0.65940322416E+03  0.00000000000E+00 0. -1.
</event>
<event>
 5    1  0.4866530E-005  0.1056915E+03  0.7818608E-02  0.1167128E+00
         -4   -1    0    0    0  501 -0.00000000000E+00  0.00000000000E+00  0.62340461768E+02  0.62340461768E+02  0.00000000000E+00 0. -1.
         21   -1    0    0  501  502  0.00000000000E+00 -0.00000000000E+00 -0.46925910129E+03  0.46925910129E+03  0.00000000000E+00 0.  1.
        -13    1    1    2    0    0 -0.74242464756E+02  0.28717603686E+02 -0.22141209961E+03  0.23528700209E+03  0.10566000000E+00 0.  1.
         13    1    1    2    0    0  0.28858658687E+02  0.94554555834E+02 -0.92234781220E+02  0.13520596230E+03  0.10566000000E+00 0. -1.
         -4    1    1    2    0  502  0.45383806069E+02 -0.12327215952E+03 -0.93271758693E+02  0.16110659867E+03  0.00000000000E+00 0. -1.
</event>
<event>
 5    1  0.4866530E-005  0.4497141E+03  0.7818608E-02  0.9943449E-01
         21   -1    0    0  501  502  0.00000000000E+00  0.00000000000E+00  0.18694361706E+04  0.18694361706E+04  0.00000000000E+00 0. -1.
         -4   -1    0    0    0  501 -0.00000000000E+00 -0.00000000000E+00 -0.17801224325E+03  0.17801224325E+03  0.00000000000E+00 0. -1.
        -13    1    1    2    0    0 -0.12304578944E+03 -0.58161518581E+02  0.18886547624E+02  0.13740357123E+03  0.10566000000E+00 0.  1.
         13    1    1    2    0    0  0.30012854284E+03  0.39874647878E+03  0.12105241384E+04  0.13093680145E+04  0.10566000000E+00 0. -1.
         -4    1    1    2    0  502 -0.17708275340E+03 -0.34058496020E+03  0.46201324130E+03  0.60067682809E+03  0.00000000000E+00 0. -1.
</event>
<event>
 5    1  0.4866530E-005  0.1440484E+02  0.7818608E-02  0.1633398E+00
          4   -1    0    0  502    0 -0.00000000000E+00  0.00000000000E+00  0.29024505480E+02  0.29024505480E+02  0.00000000000E+00 0.  1.
         21   -1    0    0  501  502  0.00000000000E+00 -0.00000000000E+00 -0.14857158003E+03  0.14857158003E+03  0.00000000000E+00 0.  1.
        -13    1    1    2    0    0  0.10125544929E+02 -0.19903111908E+01  0.25715430315E+02  0.27708888810E+02  0.10566000000E+00 0.  1.
         13    1    1    2    0    0 -0.91946231143E+01  0.16365039400E+02 -0.47592469486E+02  0.51160628657E+02  0.10566000000E+00 0. -1.
          4    1    1    2  501    0 -0.93092181503E+00 -0.14374728210E+02 -0.97670035377E+02  0.98726568040E+02  0.00000000000E+00 0.  1.
</event>
<event>
 5    1  0.4866530E-005  0.1093893E+03  0.7818608E-02  0.1149891E+00
         -4   -1    0    0    0  501 -0.00000000000E+00  0.00000000000E+00  0.17161461030E+03  0.17161461030E+03  0.00000000000E+00 0. -1.
         21   -1    0    0  501  502  0.00000000000E+00 -0.00000000000E+00 -0.30173581492E+03  0.30173581492E+03  0.00000000000E+00 0.  1.
        -13    1    1    2    0    0 -0.70678878683E+02  0.82767045647E+02 -0.21269290842E+03  0.23892294196E+03  0.10566000000E+00 0.  1.
         13    1    1    2    0    0  0.49053502703E+01 -0.11151238178E+03  0.11081859081E+03  0.15728904916E+03  0.10566000000E+00 0. -1.
         -4    1    1    2    0  502  0.65773528413E+02  0.28745336137E+02 -0.28246887011E+02  0.77138434100E+02  0.00000000000E+00 0. -1.
</event>
<event>
 5    1  0.4866530E-005  0.1275618E+03  0.7818608E-02  0.1173988E+00
         -4   -1    0    0    0  501 -0.00000000000E+00  0.00000000000E+00  0.31170988739E+03  0.31170988739E+03  0.00000000000E+00 0. -1.
         21   -1    0    0  501  502  0.00000000000E+00 -0.00000000000E+00 -0.38537888851E+03  0.38537888851E+03  0.00000000000E+00 0. -1.
        -13    1    1    2    0    0  0.18423027663E+02 -0.33717986289E+02 -0.13693293455E+03  0.14222148318E+03  0.10566000000E+00 0.  1.
         13    1    1    2    0    0  0.51396091425E+02  0.13923210627E+03  0.27253255871E+03  0.31032425678E+03  0.10566000000E+00 0. -1.
         -4    1    1    2    0  502 -0.69819119088E+02 -0.10551411998E+03 -0.20926862527E+03  0.24454303595E+03  0.00000000000E+00 0. -1.
</event>
<event>
 5    1  0.4866530E-005  0.2144931E+03  0.7818608E-02  0.1050630E+00
         21   -1    0    0  501  502  0.00000000000E+00  0.00000000000E+00  0.81351052538E+03  0.81351052538E+03  0.00000000000E+00 0.  1.
         -4   -1    0    0    0  501 -0.00000000000E+00 -0.00000000000E+00 -0.11751205145E+03  0.11751205145E+03  0.00000000000E+00 0. -1.
        -13    1    1    2    0    0 -0.16504928921E+03 -0.89333689751E+02  0.47030568280E+03  0.50636866257E+03  0.10566000000E+00 0.  1.
         13    1    1    2    0    0  0.20313845448E+03  0.88396097850E+02  0.27973634519E+02  0.22329719478E+03  0.10566000000E+00 0. -1.
         -4    1    1    2    0  502 -0.38089165276E+02  0.93759190076E+00  0.19771915661E+03  0.20135671948E+03  0.00000000000E+00 0. -1.
</event>
<event>
 5    1  0.4866530E-005  0.4720000E+03  0.7818608E-02  0.9893180E-01
         21   -1    0    0  501  502  0.00000000000E+00  0.00000000000E+00  0.13293818299E+03  0.13293818299E+03  0.00000000000E+00 0.  1.
          4   -1    0    0  502    0 -0.00000000000E+00 -0.00000000000E+00 -0.27252494083E+04  0.27252494083E+04  0.00000000000E+00 0.  1.
        -13    1    1    2    0    0  0.40829476072E+03  0.81828756536E+02 -0.13780287861E+04  0.14395707359E+04  0.10566000000E+00 0.  1.
         13    1    1    2    0    0  0.93602720724E+02 -0.10301387310E+03 -0.64296592535E+03  0.65785904243E+03  0.10566000000E+00 0. -1.
          4    1    1    2  501    0 -0.50189748144E+03  0.21185116564E+02 -0.57131651381E+03  0.76075781297E+03  0.00000000000E+00 0.  1.
</event>
<event>
 5    1  0.4866530E-005  0.4982478E+03  0.7818608E-02  0.1027281E+00
         21   -1    0    0  501  502  0.00000000000E+00  0.00000000000E+00  0.82888827039E+03  0.82888827039E+03  0.00000000000E+00 0. -1.
         -4   -1    0    0    0  501 -0.00000000000E+00 -0.00000000000E+00 -0.32666571663E+03  0.32666571663E+03  0.00000000000E+00 0. -1.
        -13    1    1    2    0    0 -0.13936558891E+02 -0.31860583719E+02  0.49343666551E+02  0.60366655211E+02  0.10566000000E+00 0.  1.
         13    1    1    2    0    0 -0.48886840720E+03 -0.32057173849E+02  0.20720098175E+03  0.53193255208E+03  0.10566000000E+00 0. -1.
         -4    1    1    2    0  502  0.50280496609E+03  0.63917757568E+02  0.24567790546E+03  0.56325477973E+03  0.00000000000E+00 0. -1.
</event>
<event>
 5    1  0.4866530E-005  0.4291696E+03  0.7818608E-02  0.9770021E-01
         21   -1    0    0  501  502  0.00000000000E+00  0.00000000000E+00  0.67223788640E+03  0.67223788640E+03  0.00000000000E+00 0.  1.
          4   -1    0    0  502    0 -0.00000000000E+00 -0.00000000000E+00 -0.21227707562E+04  0.21227707562E+04  0.00000000000E+00 0.  1.
        -13    1    1    2    0    0 -0.32036783510E+03  0.55537710636E+03 -0.21110727512E+01  0.64115813013E+03  0.10566000000E+00 0.  1.
         13    1    1    2    0    0  0.17509315222E+03 -0.22001092502E+03 -0.16916338713E+04  0.17148433120E+04  0.10566000000E+00 0. -1.
          4    1    1    2  501    0  0.14527468288E+03 -0.33536618134E+03  0.24321207419E+03  0.43900720052E+03  0.00000000000E+00 0.  1.
</event>
<event>
 5    1  0.4866530E-005  0.1334306E+03  0.7818608E-02  0.1118709E+00
          4   -1    0    0  502    0 -0.00000000000E+00  0.00000000000E+00  0.10619512685E+04  0.10619512685E+04  0.00000000000E+00 0.  1.
         21   -1    0    0  501  502  0.00000000000E+00 -0.00000000000E+00 -0.19722087435E+02  0.19722087435E+02  0.00000000000E+00 0. -1.
        -13    1    1    2    0    0 -0.42615729338E+02  0.13364079105E+03  0.42485626233E+03  0.44741347345E+03  0.10566000000E+00 0.  1.
         13    1    1    2    0    0  0.46255639149E+02 -0.12068945534E+03  0.58667020837E+03  0.60073910588E+03  0.10566000000E+00 0. -1.
          4    1    1    2  501    0 -0.36399098114E+01 -0.12951335716E+02  0.30702710351E+02  0.33520776590E+02  0.00000000000E+00 0.  1.
</event>
<event>
 5    1  0.4866530E-005  0.2857960E+03  0.7818608E-02  0.1022497E+00
          4   -1    0    0  502    0 -0.00000000000E+00  0.00000000000E+00  0.26615911838E+04  0.26615911838E+04  0.00000000000E+00 0.  1.
         21   -1    0    0  501  502  0.00000000000E+00 -0.00000000000E+00 -0.91288707596E+02  0.91288707596E+02  0.00000000000E+00 0.  1.
        -13    1    1    2    0    0  0.19306387775E+03  0.85681469259E+02  0.38923778639E+03  0.44285555273E+03  0.10566000000E+00 0.  1.
         13    1    1    2    0    0 -0.23594732125E+03  0.24184308275E+03  0.16528443997E+04  0.16870251439E+04  0.10566000000E+00 0. -1.
          4    1    1    2  501    0  0.42883443499E+02 -0.32752455201E+03  0.52822029010E+03  0.62299919484E+03  0.00000000000E+00 0.  1.
</event>
<event>
 5    1  0.4866530E-005  0.4747045E+02  0.7818608E-02  0.1302445E+00
          4   -1    0    0  502    0 -0.00000000000E+00  0.00000000000E+00  0.17824814722E+03  0.17824814722E+03  0.00000000000E+00 0.  1.
         21   -1    0    0  501  502  0.00000000000E+00 -0.00000000000E+00 -0.39323951977E+02  0.39323951977E+02  0.00000000000E+00 0. -1.
        -13    1    1    2    0    0  0.14105762590E+02  0.50490526560E+02  0.12368474734E+03  0.13433612209E+03  0.10566000000E+00 0.  1.
         13    1    1    2    0    0 -0.35323992688E+02 -0.24566516633E+02  0.23086063137E+02  0.48829045395E+02  0.10566000000E+00 0. -1.
          4    1    1    2  501    0  0.21218230098E+02 -0.25924009927E+02 -0.78466152308E+01  0.34406931711E+02  0.00000000000E+00 0.  1.
</event>
<event>
 5    1  0.4866530E-005  0.8179163E+03  0.7818608E-02  0.8967540E-01
         21   -1    0    0  501  502  0.00000000000E+00  0.00000000000E+00  0.78826239371E+03  0.78826239371E+03  0.00000000000E+00 0. -1.
         -4   -1    0    0    0  501 -0.00000000000E+00 -0.00000000000E+00 -0.18253571518E+04  0.18253571518E+04  0.00000000000E+00 0. -1.
        -13    1    1    2    0    0  0.94202191963E+03 -0.11660874575E+03 -0.72980200300E+03  0.11973361564E+04  0.10566000000E+00 0.  1.
         13    1    1    2    0    0 -0.65162374083E+03 -0.40900412757E+03 -0.26726963535E+03  0.81445131538E+03  0.10566000000E+00 0. -1.
         -4    1    1    2    0  502 -0.29039817880E+03  0.52561287332E+03 -0.40023119736E+02  0.60183207373E+03  0.00000000000E+00 0. -1.
</event>
<event>
 5    1  0.4866530E-005  0.6213119E+03  0.7818608E-02  0.9245680E-01
         21   -1    0    0  501  502  0.00000000000E+00  0.00000000000E+00  0.12107980993E+04  0.12107980993E+04  0.00000000000E+00 0.  1.
          4   -1    0    0  502    0 -0.00000000000E+00 -0.00000000000E+00 -0.68312484495E+03  0.68312484495E+03  0.00000000000E+00 0.  1.
        -13    1    1    2    0    0  0.88278413417E+02 -0.63094124279E+03 -0.39966534638E+03  0.75207202474E+03  0.10566000000E+00 0.  1.
         13    1    1    2    0    0 -0.11319499266E+03  0.54148052191E+03  0.67350905390E+03  0.87156681833E+03  0.10566000000E+00 0. -1.
          4    1    1    2  501    0  0.24916579241E+02  0.89460720884E+02  0.25382954680E+03  0.27028410114E+03  0.00000000000E+00 0.  1.
</event>
<event>
 5    1  0.5910274E-005  0.4303261E+03  0.7818608E-02  0.9787257E-01
         21   -1    0    0  501  502  0.00000000000E+00  0.00000000000E+00  0.26995628576E+03  0.26995628576E+03  0.00000000000E+00 0.  1.
          4   -1    0    0  502    0 -0.00000000000E+00 -0.00000000000E+00 -0.21798209389E+04  0.21798209389E+04  0.00000000000E+00 0.  1.
        -13    1    1    2    0    0 -0.27672592407E+03  0.57484825637E+02 -0.78467332982E+03  0.83402277423E+03  0.10566000000E+00 0.  1.
         13    1    1    2    0    0 -0.19263654719E+03 -0.17892766194E+03 -0.10992366262E+04  0.11302411774E+04  0.10566000000E+00 0. -1.
          4    1    1    2  501    0  0.46936247127E+03  0.12144283630E+03 -0.25954697026E+02  0.48551327296E+03  0.00000000000E+00 0.  1.
</event>
<event>
 5    1  0.4866530E-005  0.1934981E+03  0.7818608E-02  0.1064687E+00
          4   -1    0    0  502    0 -0.00000000000E+00  0.00000000000E+00  0.27662965375E+03  0.27662965375E+03  0.00000000000E+00 0.  1.
         21   -1    0    0  501  502  0.00000000000E+00 -0.00000000000E+00 -0.36708087088E+03  0.36708087088E+03  0.00000000000E+00 0. -1.
        -13    1    1    2    0    0 -0.11063707871E+03  0.15632626034E+03  0.92003748022E+02  0.21246920641E+03  0.10566000000E+00 0.  1.
         13    1    1    2    0    0  0.17271376774E+03 -0.11084428745E+03  0.28031107005E+02  0.20712859714E+03  0.10566000000E+00 0. -1.
          4    1    1    2  501    0 -0.62076689030E+02 -0.45481972889E+02 -0.21048607216E+03  0.22411272108E+03  0.00000000000E+00 0.  1.
</event>
<event>
 5    1  0.4866530E-005  0.1364941E+03  0.7818608E-02  0.1115252E+00
         -4   -1    0    0    0  501 -0.00000000000E+00  0.00000000000E+00  0.11960383979E+04  0.11960383979E+04  0.00000000000E+00 0. -1.
         21   -1    0    0  501  502  0.00000000000E+00 -0.00000000000E+00 -0.33785802422E+02  0.33785802422E+02  0.00000000000E+00 0. -1.
        -13    1    1    2    0    0 -0.47882769072E+02  0.10370828648E+03  0.31647412052E+03  0.33645809305E+03  0.10566000000E+00 0.  1.
         13    1    1    2    0    0 -0.26636602238E+02 -0.17650551705E+03  0.61038157302E+03  0.63594762518E+03  0.10566000000E+00 0. -1.
         -4    1    1    2    0  502  0.74519371310E+02  0.72797230563E+02  0.23539690195E+03  0.25741848210E+03  0.00000000000E+00 0. -1.
</event>
<event>
 5    1  0.4866530E-005  0.6426687E+03  0.7818608E-02  0.9210571E-01
         -4   -1    0    0    0  501 -0.00000000000E+00  0.00000000000E+00  0.37101327166E+04  0.37101327166E+04  0.00000000000E+00 0. -1.
         21   -1    0    0  501  502  0.00000000000E+00 -0.00000000000E+00 -0.24291798023E+03  0.24291798023E+03  0.00000000000E+00 0.  1.
        -13    1    1    2    0    0 -0.16837317061E+03  0.61516336815E+03  0.16801533639E+04  0.17971340605E+04  0.10566000000E+00 0.  1.
         13    1    1    2    0    0 -0.17818959826E+03 -0.70049402191E+03  0.67868652218E+03  0.99149322449E+03  0.10566000000E+00 0. -1.
         -4    1    1    2    0  502  0.34656276887E+03  0.85330653754E+02  0.11083748503E+04  0.11644234118E+04  0.00000000000E+00 0. -1.
</event>
<event>
 5    1  0.4866530E-005  0.4167549E+03  0.7818608E-02  0.1008393E+00
         21   -1    0    0  501  502  0.00000000000E+00  0.00000000000E+00  0.38095812860E+03  0.38095812860E+03  0.00000000000E+00 0. -1.
         -4   -1    0    0    0  501 -0.00000000000E+00 -0.00000000000E+00 -0.85500813130E+03  0.85500813130E+03  0.00000000000E+00 0. -1.
        -13    1    1    2    0    0  0.50439086036E+02 -0.95548958266E+02 -0.14897526308E+03  0.18403082622E+03  0.10566000000E+00 0.  1.
         13    1    1    2    0    0  0.40345450767E+03  0.60834431772E+02  0.10964074292E+03  0.42248961114E+03  0.10566000000E+00 0. -1.
         -4    1    1    2    0  502 -0.45389359371E+03  0.34714526494E+02 -0.43471548254E+03  0.62944582255E+03  0.00000000000E+00 0. -1.
</event>
<event>
 5    1  0.4866530E-005  0.3656141E+03  0.7818608E-02  0.1008004E+00
         21   -1    0    0  501  502  0.00000000000E+00  0.00000000000E+00  0.15596980026E+03  0.15596980026E+03  0.00000000000E+00 0.  1.
          4   -1    0    0  502    0 -0.00000000000E+00 -0.00000000000E+00 -0.16446054161E+04  0.16446054161E+04  0.00000000000E+00 0.  1.
        -13    1    1    2    0    0  0.56730734882E+02  0.42957107725E+03 -0.73117641642E+03  0.84992273165E+03  0.10566000000E+00 0.  1.
         13    1    1    2    0    0  0.10233021261E+03 -0.12564364450E+03 -0.48872537299E+03  0.51488862794E+03  0.10566000000E+00 0. -1.
          4    1    1    2  501    0 -0.15906094750E+03 -0.30392743275E+03 -0.26873382647E+03  0.43576385679E+03  0.00000000000E+00 0.  1.
</event>
<event>
 5    1  0.4866530E-005  0.1865188E+03  0.7818608E-02  0.1095088E+00
         -4   -1    0    0    0  501 -0.00000000000E+00  0.00000000000E+00  0.56738557822E+03  0.56738557822E+03  0.00000000000E+00 0. -1.
         21   -1    0    0  501  502  0.00000000000E+00 -0.00000000000E+00 -0.16501906682E+03  0.16501906682E+03  0.00000000000E+00 0.  1.
        -13    1    1    2    0    0 -0.52985910312E+02  0.75090535929E+02 -0.28432436608E+02  0.96200363270E+02  0.10566000000E+00 0.  1.
         13    1    1    2    0    0  0.18789698011E+03  0.56693142469E+02  0.39939610448E+03  0.44501308630E+03  0.10566000000E+00 0. -1.
         -4    1    1    2    0  502 -0.13491106979E+03 -0.13178367840E+03  0.31402843518E+02  0.19119119547E+03  0.00000000000E+00 0. -1.
</event>
<event>
 5    1  0.4866530E-005  0.5577137E+02  0.7818608E-02  0.1269922E+00
         21   -1    0    0  501  502  0.00000000000E+00  0.00000000000E+00  0.32030941000E+03  0.32030941000E+03  0.00000000000E+00 0.  1.
         -4   -1    0    0    0  501 -0.00000000000E+00 -0.00000000000E+00 -0.29298303629E+02  0.29298303629E+02  0.00000000000E+00 0. -1.
        -13    1    1    2    0    0 -0.11812941006E+02 -0.45013992077E+02  0.19159371937E+03  0.19716482831E+03  0.10566000000E+00 0.  1.
         13    1    1    2    0    0  0.16070210646E+02  0.54958325964E+02  0.50770523162E+01  0.57484405601E+02  0.10566000000E+00 0. -1.
         -4    1    1    2    0  502 -0.42572696397E+01 -0.99443338876E+01  0.94340334686E+02  0.94958479715E+02  0.00000000000E+00 0. -1.
</event>
<event>
 5    1  0.4866530E-005  0.6050190E+02  0.7818608E-02  0.1298781E+00
          4   -1    0    0  502    0 -0.00000000000E+00  0.00000000000E+00  0.47073394570E+02  0.47073394570E+02  0.00000000000E+00 0.  1.
         21   -1    0    0  501  502  0.00000000000E+00 -0.00000000000E+00 -0.24120330874E+03  0.24120330874E+03  0.00000000000E+00 0.  1.
        -13    1    1    2    0    0 -0.80785528542E+01 -0.38548507996E+02  0.28486724034E+02  0.48608179303E+02  0.10566000000E+00 0.  1.
         13    1    1    2    0    0 -0.10093954539E+02 -0.22451711916E+02 -0.51037401260E+02  0.56663875420E+02  0.10566000000E+00 0. -1.
          4    1    1    2  501    0  0.18172507393E+02  0.61000219912E+02 -0.17157923694E+03  0.18300464859E+03  0.00000000000E+00 0.  1.
</event>
<event>
 5    1  0.4866530E-005  0.2845537E+03  0.7818608E-02  0.1018011E+00
         21   -1    0    0  501  502  0.00000000000E+00  0.00000000000E+00  0.47765888916E+03  0.47765888916E+03  0.00000000000E+00 0.  1.
          4   -1    0    0  502    0 -0.00000000000E+00 -0.00000000000E+00 -0.97361286398E+03  0.97361286398E+03  0.00000000000E+00 0.  1.
        -13    1    1    2    0    0 -0.52678165026E+01  0.51107211807E+03 -0.43292625174E+03  0.66981162305E+03  0.10566000000E+00 0.  1.
         13    1    1    2    0    0 -0.12393144157E+02 -0.24935112240E+03 -0.32560618332E+03  0.41030350966E+03  0.10566000000E+00 0. -1.
          4    1    1    2  501    0  0.17660960660E+02 -0.26172099567E+03  0.26257846024E+03  0.37115662043E+03  0.00000000000E+00 0.  1.
</event>
<event>
 5    1  0.4866530E-005  0.4045227E+02  0.7818608E-02  0.1336425E+00
          4   -1    0    0  502    0 -0.00000000000E+00  0.00000000000E+00  0.11424447347E+03  0.11424447347E+03  0.00000000000E+00 0.  1.
         21   -1    0    0  501  502  0.00000000000E+00 -0.00000000000E+00 -0.38730796622E+02  0.38730796622E+02  0.00000000000E+00 0.  1.
        -13    1    1    2    0    0 -0.81848105000E+01 -0.39255398501E+02  0.58884926935E+02  0.71242004594E+02  0.10566000000E+00 0.  1.
         13    1    1    2    0    0  0.24518775181E+02  0.35439968015E+02  0.35968434734E+02  0.56132888136E+02  0.10566000000E+00 0. -1.
          4    1    1    2  501    0 -0.16333964681E+02  0.38154304857E+01 -0.19339684822E+02  0.25600377361E+02  0.00000000000E+00 0.  1.
</event>
<event>
 5    1  0.4866530E-005  0.1941618E+03  0.7818608E-02  0.1085533E+00
         21   -1    0    0  501  502  0.00000000000E+00  0.00000000000E+00  0.95193699673E+03  0.95193699673E+03  0.00000000000E+00 0.  1.
          4   -1    0    0  502    0 -0.00000000000E+00 -0.00000000000E+00 -0.13908208566E+03  0.13908208566E+03  0.00000000000E+00 0.  1.
        -13    1    1    2    0    0  0.10576156484E+02 -0.18761543146E+03  0.14340426610E+03  0.23638147116E+03  0.10566000000E+00 0.  1.
         13    1    1    2    0    0 -0.10567934010E+03  0.87277086742E+01 -0.42637116637E+02  0.11429011638E+03  0.10566000000E+00 0. -1.
          4    1    1    2  501    0  0.95103183615E+02  0.17888772279E+03  0.71208776161E+03  0.74034749485E+03  0.00000000000E+00 0.  1.
</event>
<event>
 5    1  0.4866530E-005  0.4168020E+03  0.7818608E-02  0.9681736E-01
          4   -1    0    0  502    0 -0.00000000000E+00  0.00000000000E+00  0.11766574581E+04  0.11766574581E+04  0.00000000000E+00 0.  1.
         21   -1    0    0  501  502  0.00000000000E+00 -0.00000000000E+00 -0.63284737903E+03  0.63284737903E+03  0.00000000000E+00 0. -1.
        -13    1    1    2    0    0 -0.34768462035E+03  0.63305454535E+03 -0.35344116710E+01  0.72225698740E+03  0.10566000000E+00 0.  1.
         13    1    1    2    0    0  0.22723108199E+03 -0.29691398006E+03  0.61890828231E+03  0.72307630943E+03  0.10566000000E+00 0. -1.
          4    1    1    2  501    0  0.12045353837E+03 -0.33614056529E+03 -0.71563791529E+02  0.36417154035E+03  0.00000000000E+00 0.  1.
</event>
<event>
 5    1  0.4866530E-005  0.2643447E+03  0.7818608E-02  0.1023841E+00
         -4   -1    0    0    0  501 -0.00000000000E+00  0.00000000000E+00  0.12265791486E+04  0.12265791486E+04  0.00000000000E+00 0. -1.
         21   -1    0    0  501  502  0.00000000000E+00 -0.00000000000E+00 -0.64796886268E+03  0.64796886268E+03  0.00000000000E+00 0. -1.
        -13    1    1    2    0    0  0.32518697361E+03 -0.50346470690E+02  0.73168106764E+03  0.80227085876E+03  0.10566000000E+00 0.  1.
         13    1    1    2    0    0 -0.17904078920E+03 -0.16992478357E+03  0.39385775987E+03  0.46481607378E+03  0.10566000000E+00 0. -1.
         -4    1    1    2    0  502 -0.14614618440E+03  0.22027125426E+03 -0.54692854155E+03  0.60746107878E+03  0.00000000000E+00 0. -1.
</event>
<event>
 5    1  0.4866530E-005  0.2727463E+03  0.7818608E-02  0.1019236E+00
          4   -1    0    0  502    0 -0.00000000000E+00  0.00000000000E+00  0.30925559689E+03  0.30925559689E+03  0.00000000000E+00 0.  1.
         21   -1    0    0  501  502  0.00000000000E+00 -0.00000000000E+00 -0.35546961305E+03  0.35546961305E+03  0.00000000000E+00 0. -1.
        -13    1    1    2    0    0 -0.21074659113E+03 -0.12828222583E+03  0.74785053224E+01  0.24683272543E+03  0.10566000000E+00 0.  1.
         13    1    1    2    0    0  0.24032834812E+03  0.18341438892E+03  0.40283248304E+02  0.30499394130E+03  0.10566000000E+00 0. -1.
          4    1    1    2  501    0 -0.29581756995E+02 -0.55132163090E+02 -0.93975769784E+02  0.11289854322E+03  0.00000000000E+00 0.  1.
</event>
<event>
 5    1  0.4866530E-005  0.5028523E+03  0.7818608E-02  0.9495640E-01
         21   -1    0    0  501  502  0.00000000000E+00  0.00000000000E+00  0.66298494073E+03  0.66298494073E+03  0.00000000000E+00 0. -1.
         -4   -1    0    0    0  501 -0.00000000000E+00 -0.00000000000E+00 -0.10211795030E+04  0.10211795030E+04  0.00000000000E+00 0. -1.
        -13    1    1    2    0    0  0.70385361649E+02 -0.45548968666E+03 -0.34450894494E+03  0.57542278205E+03  0.10566000000E+00 0.  1.
         13    1    1    2    0    0  0.36676048102E+03 -0.94114108915E+02 -0.12280577420E+03  0.39806027845E+03  0.10566000000E+00 0. -1.
         -4    1    1    2    0  502 -0.43714584267E+03  0.54960379558E+03  0.10912015685E+03  0.71068138326E+03  0.00000000000E+00 0. -1.
</event>
<event>
 5    1  0.4866530E-005  0.4980657E+03  0.7818608E-02  0.9482222E-01
         21   -1    0    0  501  502  0.00000000000E+00  0.00000000000E+00  0.21362979393E+03  0.21362979393E+03  0.00000000000E+00 0. -1.
          4   -1    0    0  502    0 -0.00000000000E+00 -0.00000000000E+00 -0.36979637894E+04  0.36979637894E+04  0.00000000000E+00 0.  1.
        -13    1    1    2    0    0  0.39526568687E+03  0.84452060416E+02 -0.18304649899E+03  0.44370389415E+03  0.10566000000E+00 0.  1.
         13    1    1    2    0    0 -0.27374328212E+03 -0.51960620368E+03 -0.15018713895E+04  0.16126201267E+04  0.10566000000E+00 0. -1.
          4    1    1    2  501    0 -0.12152240475E+03  0.43515414326E+03 -0.17994161071E+04  0.18552695625E+04  0.00000000000E+00 0.  1.
</event>
<event>
 5    1  0.4866530E-005  0.2134573E+03  0.7818608E-02  0.1051282E+00
          4   -1    0    0  502    0 -0.00000000000E+00  0.00000000000E+00  0.57865447295E+03  0.57865447295E+03  0.00000000000E+00 0.  1.
         21   -1    0    0  501  502  0.00000000000E+00 -0.00000000000E+00 -0.36095196472E+03  0.36095196472E+03  0.00000000000E+00 0. -1.
        -13    1    1    2    0    0 -0.13548487119E+03 -0.16524798451E+03  0.51455811952E+03  0.55716525038E+03  0.10566000000E+00 0.  1.
         13    1    1    2    0    0  0.11806141308E+03  0.17534131961E+03 -0.22893920861E+03  0.31160270862E+03  0.10566000000E+00 0. -1.
          4    1    1    2  501    0  0.17423458105E+02 -0.10093335097E+02 -0.67916402687E+02  0.70838478666E+02  0.00000000000E+00 0.  1.
</event>
<event>
 5    1  0.4866530E-005  0.4808335E+03  0.7818608E-02  0.9848372E-01
         21   -1    0    0  501  502  0.00000000000E+00  0.00000000000E+00  0.54710255787E+03  0.54710255787E+03  0.00000000000E+00 0. -1.
         -4   -1    0    0    0  501 -0.00000000000E+00 -0.00000000000E+00 -0.71056471817E+03  0.71056471817E+03  0.00000000000E+00 0. -1.
        -13    1    1    2    0    0  0.11691543522E+03 -0.98823162819E+02 -0.19512679163E+03  0.24801151683E+03  0.10566000000E+00 0.  1.
         13    1    1    2    0    0  0.21256139299E+03  0.44362624268E+03  0.15732657259E+03  0.51646708568E+03  0.10566000000E+00 0. -1.
         -4    1    1    2    0  502 -0.32947682821E+03 -0.34480307986E+03 -0.12566194126E+03  0.49318867352E+03  0.00000000000E+00 0. -1.
</event>
<event>
 5    1  0.4866530E-005  0.3660632E+02  0.7818608E-02  0.1358558E+00
         -4   -1    0    0    0  501 -0.00000000000E+00  0.00000000000E+00  0.21610830484E+02  0.21610830484E+02  0.00000000000E+00 0. -1.
         21   -1    0    0  501  502  0.00000000000E+00 -0.00000000000E+00 -0.59439688075E+03  0.59439688075E+03  0.00000000000E+00 0. -1.
        -13    1    1    2    0    0  0.52471304083E+01 -0.22006754529E+02 -0.61856489648E+02  0.65863996979E+02  0.10566000000E+00 0.  1.
         13    1    1    2    0    0 -0.19847757735E+02  0.36734994055E+02 -0.30763924819E+01  0.41867273975E+02  0.10566000000E+00 0. -1.
         -4    1    1    2    0  502  0.14600627327E+02 -0.14728239527E+02 -0.50785316813E+03  0.50827644028E+03  0.00000000000E+00 0. -1.
</event>
<event>
 5    1  0.4866530E-005  0.1366108E+03  0.7818608E-02  0.1115123E+00
          4   -1    0    0  502    0 -0.00000000000E+00  0.00000000000E+00  0.36677870983E+03  0.36677870983E+03  0.00000000000E+00 0.  1.
         21   -1    0    0  501  502  0.00000000000E+00 -0.00000000000E+00 -0.39521129702E+03  0.39521129702E+03  0.00000000000E+00 0. -1.
        -13    1    1    2    0    0 -0.21039046926E+02 -0.13707642621E+03  0.33692756087E+03  0.36435254982E+03  0.10566000000E+00 0.  1.
         13    1    1    2    0    0 -0.17869076624E+02  0.10367270225E+03 -0.23113927373E+03  0.25395414569E+03  0.10566000000E+00 0. -1.
          4    1    1    2  501    0  0.38908123550E+02  0.33403723968E+02 -0.13422087433E+03  0.14368331134E+03  0.00000000000E+00 0.  1.
</event>
<event>
 5    1  0.4866530E-005  0.2056615E+02  0.7818608E-02  0.1502130E+00
         -4   -1    0    0    0  501 -0.00000000000E+00  0.00000000000E+00  0.10645442141E+03  0.10645442141E+03  0.00000000000E+00 0. -1.
         21   -1    0    0  501  502  0.00000000000E+00 -0.00000000000E+00 -0.17847661127E+02  0.17847661127E+02  0.00000000000E+00 0. -1.
        -13    1    1    2    0    0  0.87181244597E+01 -0.17065907568E+02 -0.11363494439E+01  0.19197743339E+02  0.10566000000E+00 0.  1.
         13    1    1    2    0    0  0.63676757556E+01  0.20409272722E+02  0.86775007752E+02  0.89370010864E+02  0.10566000000E+00 0. -1.
         -4    1    1    2    0  502 -0.15085800215E+02 -0.33433651540E+01  0.29681019713E+01  0.15734328330E+02  0.00000000000E+00 0. -1.
</event>
<event>
 5    1  0.4866530E-005  0.3294980E+03  0.7818608E-02  0.1002584E+00
         21   -1    0    0  501  502  0.00000000000E+00  0.00000000000E+00  0.38598129122E+03  0.38598129122E+03  0.00000000000E+00 0. -1.
         -4   -1    0    0    0  501 -0.00000000000E+00 -0.00000000000E+00 -0.13105203801E+04  0.13105203801E+04  0.00000000000E+00 0. -1.
        -13    1    1    2    0    0 -0.16921188149E+03  0.20252442684E+03 -0.80189773489E+03  0.84420897454E+03  0.10566000000E+00 0.  1.
         13    1    1    2    0    0 -0.24866699637E+03 -0.20875586537E+03  0.14545363718E+03  0.35576826467E+03  0.10566000000E+00 0. -1.
         -4    1    1    2    0  502  0.41787887787E+03  0.62314385233E+01 -0.26809499114E+03  0.49652443210E+03  0.00000000000E+00 0. -1.
</event>
<event>
 5    1  0.4866530E-005  0.8396133E+02  0.7818608E-02  0.1194221E+00
          4   -1    0    0  502    0 -0.00000000000E+00  0.00000000000E+00  0.15564359591E+03  0.15564359591E+03  0.00000000000E+00 0.  1.
         21   -1    0    0  501  502  0.00000000000E+00 -0.00000000000E+00 -0.69414794984E+02  0.69414794984E+02  0.00000000000E+00 0. -1.
        -13    1    1    2    0    0 -0.84012699011E+02 -0.21876323075E+02  0.10093326305E+03  0.13313242227E+03  0.10566000000E+00 0.  1.
         13    1    1    2    0    0  0.75786517706E+02  0.12248258519E+02 -0.69667628111E+01  0.77085426968E+02  0.10566000000E+00 0. -1.
          4    1    1    2  501    0  0.82261813049E+01  0.96280645567E+01 -0.77376993119E+01  0.14840541655E+02  0.00000000000E+00 0.  1.
</event>
<event>
 5    1  0.4866530E-005  0.2920261E+02  0.7818608E-02  0.1411428E+00
         21   -1    0    0  501  502  0.00000000000E+00  0.00000000000E+00  0.99189479229E+02  0.99189479229E+02  0.00000000000E+00 0. -1.
         -4   -1    0    0    0  501 -0.00000000000E+00 -0.00000000000E+00 -0.69944011388E+02  0.69944011388E+02  0.00000000000E+00 0. -1.
        -13    1    1    2    0    0 -0.17485951176E+02 -0.22784010159E+02 -0.53236457838E+02  0.60489678579E+02  0.10566000000E+00 0.  1.
         13    1    1    2    0    0  0.31189618333E+01  0.39377861358E+02  0.24101216228E+02  0.46273358164E+02  0.10566000000E+00 0. -1.
         -4    1    1    2    0  502  0.14366989343E+02 -0.16593851199E+02  0.58380709451E+02  0.62370453874E+02  0.00000000000E+00 0. -1.
</event>
<event>
 5    1  0.4866530E-005  0.9144236E+02  0.7818608E-02  0.1179547E+00
         21   -1    0    0  501  502  0.00000000000E+00  0.00000000000E+00  0.21869642771E+03  0.21869642771E+03  0.00000000000E+00 0. -1.
          4   -1    0    0  502    0 -0.00000000000E+00 -0.00000000000E+00 -0.89306281451E+02  0.89306281451E+02  0.00000000000E+00 0.  1.
        -13    1    1    2    0    0  0.70711021337E+02 -0.59431921295E+02 -0.49434153591E+02  0.10476616110E+03  0.10566000000E+00 0.  1.
         13    1    1    2    0    0 -0.60387105859E+02  0.61158499079E+02  0.16283980902E+03  0.18412978881E+03  0.10566000000E+00 0. -1.
          4    1    1    2  501    0 -0.10323915478E+02 -0.17265777840E+01  0.15984490836E+02  0.19106759247E+02  0.00000000000E+00 0.  1.
</event>
<event>
 5    1  0.4866530E-005  0.4710305E+03  0.7818608E-02  0.1019787E+00
          4   -1    0    0  502    0 -0.00000000000E+00  0.00000000000E+00  0.59264203735E+03  0.59264203735E+03  0.00000000000E+00 0.  1.
         21   -1    0    0  501  502  0.00000000000E+00 -0.00000000000E+00 -0.50168099505E+03  0.50168099505E+03  0.00000000000E+00 0.  1.
        -13    1    1    2    0    0 -0.45476425697E+03  0.18291034749E+03 -0.16007916646E+03  0.51564723924E+03  0.10566000000E+00 0.  1.
         13    1    1    2    0    0  0.49444511831E+02 -0.16226537600E+02  0.10420519775E+03  0.11647658423E+03  0.10566000000E+00 0. -1.
          4    1    1    2  501    0  0.40531974514E+03 -0.16668380989E+03  0.14683501101E+03  0.46219920893E+03  0.00000000000E+00 0.  1.
</event>
<event>
 5    1  0.4866530E-005  0.3407264E+03  0.7818608E-02  0.1014493E+00
         21   -1    0    0  501  502  0.00000000000E+00  0.00000000000E+00  0.29825356428E+03  0.29825356428E+03  0.00000000000E+00 0. -1.
         -4   -1    0    0    0  501 -0.00000000000E+00 -0.00000000000E+00 -0.13001880009E+04  0.13001880009E+04  0.00000000000E+00 0. -1.
        -13    1    1    2    0    0  0.11161189928E+03 -0.11824644513E+03 -0.35749061179E+03  0.39273271640E+03  0.10566000000E+00 0.  1.
         13    1    1    2    0    0 -0.33600938476E+03 -0.97901204254E+02  0.12811191120E+03  0.37269240051E+03  0.10566000000E+00 0. -1.
         -4    1    1    2    0  502  0.22439748548E+03  0.21614764939E+03 -0.77255573603E+03  0.83301644828E+03  0.00000000000E+00 0. -1.
</event>
<event>
 5    1  0.4866530E-005  0.1684603E+02  0.7818608E-02  0.1580126E+00
         21   -1    0    0  501  502  0.00000000000E+00  0.00000000000E+00  0.47724778784E+02  0.47724778784E+02  0.00000000000E+00 0. -1.
         -4   -1    0    0    0  501 -0.00000000000E+00 -0.00000000000E+00 -0.10470971977E+03  0.10470971977E+03  0.00000000000E+00 0. -1.
        -13    1    1    2    0    0 -0.12510404285E+02  0.24211796672E+01  0.19787633206E+02  0.23535800778E+02  0.10566000000E+00 0.  1.
         13    1    1    2    0    0  0.27420194169E+02  0.47903025643E+01 -0.98055980048E+02  0.10193037052E+03  0.10566000000E+00 0. -1.
         -4    1    1    2    0  502 -0.14909789884E+02 -0.72114822315E+01  0.21283405854E+02  0.26968327259E+02  0.00000000000E+00 0. -1.
</event>
<event>
 5    1  0.4866530E-005  0.8173022E+02  0.7818608E-02  0.1259388E+00
          4   -1    0    0  502    0 -0.00000000000E+00  0.00000000000E+00  0.18724827837E+03  0.18724827837E+03  0.00000000000E+00 0.  1.
         21   -1    0    0  501  502  0.00000000000E+00 -0.00000000000E+00 -0.20189624848E+03  0.20189624848E+03  0.00000000000E+00 0.  1.
        -13    1    1    2    0    0  0.26765137343E+02 -0.98960224799E+02  0.13875235828E+03  0.17251587394E+03  0.10566000000E+00 0.  1.
         13    1    1    2    0    0 -0.59123991232E+01  0.21181965203E+02  0.17239171689E+02  0.27943376994E+02  0.10566000000E+00 0. -1.
          4    1    1    2  501    0 -0.20852738220E+02  0.77778259597E+02 -0.17063950008E+03  0.18868527591E+03  0.00000000000E+00 0.  1.
</event>
<event>
 5    1  0.4866530E-005  0.3388685E+02  0.7818608E-02  0.1376169E+00
         21   -1    0    0  501  502  0.00000000000E+00  0.00000000000E+00  0.13062210438E+03  0.13062210438E+03  0.00000000000E+00 0.  1.
         -4   -1    0    0    0  501 -0.00000000000E+00 -0.00000000000E+00 -0.96691759939E+02  0.96691759939E+02  0.00000000000E+00 0. -1.
        -13    1    1    2    0    0 -0.41150127070E+02 -0.52478279263E+01  0.52048058178E+02  0.66557375098E+02  0.10566000000E+00 0.  1.
         13    1    1    2    0    0  0.30125735527E+02  0.14863382731E+02 -0.85469568208E+02  0.91834298282E+02  0.10566000000E+00 0. -1.
         -4    1    1    2    0  502  0.11024391543E+02 -0.96155548047E+01  0.67351854470E+02  0.68922190938E+02  0.00000000000E+00 0. -1.
</event>
<event>
 5    1  0.4866530E-005  0.4893271E+03  0.7818608E-02  0.9685544E-01
         -4   -1    0    0    0  501 -0.00000000000E+00  0.00000000000E+00  0.87418044393E+03  0.87418044393E+03  0.00000000000E+00 0. -1.
         21   -1    0    0  501  502  0.00000000000E+00 -0.00000000000E+00 -0.54833185354E+03  0.54833185354E+03  0.00000000000E+00 0. -1.
        -13    1    1    2    0    0 -0.61564761978E+02 -0.24661224226E+03  0.28955336974E+03  0.38529077726E+03  0.10566000000E+00 0.  1.
         13    1    1    2    0    0  0.44520041172E+03  0.42233438457E+03  0.43525264457E+02  0.61519443982E+03  0.10566000000E+00 0. -1.
         -4    1    1    2    0  502 -0.38363564974E+03 -0.17572214231E+03 -0.72300438078E+01  0.42202708039E+03  0.00000000000E+00 0. -1.
</event>
<event>
 5    1  0.4866530E-005  0.2664621E+03  0.7818608E-02  0.1022198E+00
         21   -1    0    0  501  502  0.00000000000E+00  0.00000000000E+00  0.46644188913E+02  0.46644188913E+02  0.00000000000E+00 0. -1.
          4   -1    0    0  502    0 -0.00000000000E+00 -0.00000000000E+00 -0.25983606194E+04  0.25983606194E+04  0.00000000000E+00 0.  1.
        -13    1    1    2    0    0  0.18845338395E+03  0.24474789276E+03 -0.15578386369E+04  0.15881679504E+04  0.10566000000E+00 0.  1.
         13    1    1    2    0    0 -0.16784666456E+03 -0.15418974087E+03 -0.88428234458E+03  0.91318248729E+03  0.10566000000E+00 0. -1.
          4    1    1    2  501    0 -0.20606719386E+02 -0.90558151891E+02 -0.10959544908E+03  0.14365437069E+03  0.00000000000E+00 0.  1.
</event>
<event>
 5    1  0.4866530E-005  0.6926821E+02  0.7818608E-02  0.1228661E+00
         -4   -1    0    0    0  501 -0.00000000000E+00  0.00000000000E+00  0.93676096693E+02  0.93676096693E+02  0.00000000000E+00 0. -1.
         21   -1    0    0  501  502  0.00000000000E+00 -0.00000000000E+00 -0.18376573354E+03  0.18376573354E+03  0.00000000000E+00 0.  1.
        -13    1    1    2    0    0 -0.53225178229E+01  0.54356596932E+02 -0.13778705437E+03  0.14821690977E+03  0.10566000000E+00 0.  1.
         13    1    1    2    0    0  0.11234215066E+02 -0.69875478021E+02  0.71237209715E+02  0.10041683738E+03  0.10566000000E+00 0. -1.
         -4    1    1    2    0  502 -0.59116972427E+01  0.15518881089E+02 -0.23539792187E+02  0.28808083080E+02  0.00000000000E+00 0. -1.
</event>
<event>
 5    1  0.4866530E-005  0.4790625E+03  0.7818608E-02  0.9908142E-01
         21   -1    0    0  501  502  0.00000000000E+00  0.00000000000E+00  0.47945437029E+03  0.47945437029E+03  0.00000000000E+00 0. -1.
         -4   -1    0    0    0  501 -0.00000000000E+00 -0.00000000000E+00 -0.97340557120E+03  0.97340557120E+03  0.00000000000E+00 0. -1.
        -13    1    1    2    0    0  0.10742826725E+03  0.67028098233E+02 -0.44203878933E+03  0.45981724739E+03  0.10566000000E+00 0.  1.
         13    1    1    2    0    0 -0.50663577551E+03 -0.22873313015E+03 -0.79073618982E+02  0.56147244121E+03  0.10566000000E+00 0. -1.
         -4    1    1    2    0  502  0.39920750826E+03  0.16170503191E+03  0.27161207406E+02  0.43157025289E+03  0.00000000000E+00 0. -1.
</event>
<event>
 5    1  0.4866530E-005  0.4995541E+03  0.7818608E-02  0.9989776E-01
         21   -1    0    0  501  502  0.00000000000E+00  0.00000000000E+00  0.56738020869E+03  0.56738020869E+03  0.00000000000E+00 0. -1.
         -4   -1    0    0    0  501 -0.00000000000E+00 -0.00000000000E+00 -0.54799480939E+03  0.54799480939E+03  0.00000000000E+00 0. -1.
        -13    1    1    2    0    0  0.76440735948E+02  0.37664840705E+02  0.62695719449E+02  0.10579504118E+03  0.10566000000E+00 0.  1.
         13    1    1    2    0    0  0.28321730074E+03 -0.39975387500E+03 -0.86148278390E+02  0.49743013283E+03  0.10566000000E+00 0. -1.
         -4    1    1    2    0  502 -0.35965803669E+03  0.36208903429E+03  0.42837958242E+02  0.51214984406E+03  0.00000000000E+00 0. -1.
</event>
<event>
 5    1  0.4866530E-005  0.4195671E+03  0.7818608E-02  0.9874079E-01
          4   -1    0    0  502    0 -0.00000000000E+00  0.00000000000E+00  0.73388668670E+03  0.73388668670E+03  0.00000000000E+00 0.  1.
         21   -1    0    0  501  502  0.00000000000E+00 -0.00000000000E+00 -0.58254339915E+03  0.58254339915E+03  0.00000000000E+00 0.  1.
        -13    1    1    2    0    0 -0.50961058868E+03 -0.26733276826E+03  0.16563821228E+03  0.59883703092E+03  0.10566000000E+00 0.  1.
         13    1    1    2    0    0  0.15464363841E+03  0.14396720384E+03  0.19494026759E+03  0.28747683346E+03  0.10566000000E+00 0. -1.
          4    1    1    2  501    0  0.35496695026E+03  0.12336556442E+03 -0.20923519232E+03  0.43011622147E+03  0.00000000000E+00 0.  1.
</event>
<event>
 5    1  0.4866530E-005  0.3922846E+03  0.7818608E-02  0.9886753E-01
         21   -1    0    0  501  502  0.00000000000E+00  0.00000000000E+00  0.51205207221E+03  0.51205207221E+03  0.00000000000E+00 0. -1.
          4   -1    0    0  502    0 -0.00000000000E+00 -0.00000000000E+00 -0.12676587468E+04  0.12676587468E+04  0.00000000000E+00 0.  1.
        -13    1    1    2    0    0 -0.26678536462E+03 -0.22353405894E+02 -0.36080164792E+03  0.44927936280E+03  0.10566000000E+00 0.  1.
         13    1    1    2    0    0 -0.83074731461E+02 -0.23338667029E+03 -0.73746569552E+03  0.77796298890E+03  0.10566000000E+00 0. -1.
          4    1    1    2  501    0  0.34986009608E+03  0.25574007619E+03  0.34266066885E+03  0.55246846731E+03  0.00000000000E+00 0.  1.
</event>
<event>
 5    1  0.4866530E-005  0.4648404E+03  0.7818608E-02  0.9810232E-01
         21   -1    0    0  501  502  0.00000000000E+00  0.00000000000E+00  0.25966080737E+03  0.25966080737E+03  0.00000000000E+00 0.  1.
          4   -1    0    0  502    0 -0.00000000000E+00 -0.00000000000E+00 -0.19360898628E+04  0.19360898628E+04  0.00000000000E+00 0.  1.
        -13    1    1    2    0    0  0.48813804785E+03 -0.17378460313E+03 -0.96413655744E+02  0.52704406478E+03  0.10566000000E+00 0.  1.
         13    1    1    2    0    0 -0.17474989899E+03  0.81572436622E+02 -0.80261560411E+03  0.82545951368E+03  0.10566000000E+00 0. -1.
          4    1    1    2  501    0 -0.31338814886E+03  0.92212166503E+02 -0.77739979558E+03  0.84324709170E+03  0.00000000000E+00 0.  1.
</event>
<event>
 5    1  0.4866530E-005  0.9312692E+02  0.7818608E-02  0.1176457E+00
         -4   -1    0    0    0  501 -0.00000000000E+00  0.00000000000E+00  0.32346084838E+02  0.32346084838E+02  0.00000000000E+00 0. -1.
         21   -1    0    0  501  502  0.00000000000E+00 -0.00000000000E+00 -0.56951650353E+03  0.56951650353E+03  0.00000000000E+00 0. -1.
        -13    1    1    2    0    0 -0.12428876971E+02  0.10009071708E+03 -0.22143263090E+03  0.24332087831E+03  0.10566000000E+00 0.  1.
         13    1    1    2    0    0  0.86540766243E+01 -0.89554465848E+02 -0.73860625713E+02  0.11640574982E+03  0.10566000000E+00 0. -1.
         -4    1    1    2    0  502  0.37748003470E+01 -0.10536251235E+02 -0.24187716208E+03  0.24213596024E+03  0.00000000000E+00 0. -1.
</event>
<event>
 5    1  0.4866530E-005  0.3851351E+03  0.7818608E-02  0.1004406E+00
         21   -1    0    0  501  502  0.00000000000E+00  0.00000000000E+00  0.68863852625E+03  0.68863852625E+03  0.00000000000E+00 0. -1.
         -4   -1    0    0    0  501 -0.00000000000E+00 -0.00000000000E+00 -0.49282461558E+03  0.49282461558E+03  0.00000000000E+00 0. -1.
        -13    1    1    2    0    0 -0.12058725699E+03 -0.98575416553E+02  0.14794182576E+02  0.15645215978E+03  0.10566000000E+00 0.  1.
         13    1    1    2    0    0  0.47858405089E+03  0.14312892134E+03 -0.16406514161E+03  0.52578128889E+03  0.10566000000E+00 0. -1.
         -4    1    1    2    0  502 -0.35799679390E+03 -0.44553504790E+02  0.34508486970E+03  0.49922969316E+03  0.00000000000E+00 0. -1.
</event>
<event>
 5    1  0.4866530E-005  0.7600060E+02  0.7818608E-02  0.1225596E+00
         21   -1    0    0  501  502  0.00000000000E+00  0.00000000000E+00  0.22572498981E+03  0.22572498981E+03  0.00000000000E+00 0. -1.
         -4   -1    0    0    0  501 -0.00000000000E+00 -0.00000000000E+00 -0.70758353910E+02  0.70758353910E+02  0.00000000000E+00 0. -1.
        -13    1    1    2    0    0 -0.55491761975E+02 -0.79614162515E+01  0.79263004563E+02  0.97084266759E+02  0.10566000000E+00 0.  1.
         13    1    1    2    0    0  0.96954236049E+02 -0.46175332206E+02  0.15627459223E+02  0.10851964724E+03  0.10566000000E+00 0. -1.
         -4    1    1    2    0  502 -0.41462474074E+02  0.54136748457E+02  0.60076172111E+02  0.90879429715E+02  0.00000000000E+00 0. -1.
</event>
<event>
 5    1  0.4866530E-005  0.1279332E+03  0.7818608E-02  0.1125170E+00
          4   -1    0    0  502    0 -0.00000000000E+00  0.00000000000E+00  0.26379783038E+03  0.26379783038E+03  0.00000000000E+00 0.  1.
         21   -1    0    0  501  502  0.00000000000E+00 -0.00000000000E+00 -0.57947688102E+03  0.57947688102E+03  0.00000000000E+00 0. -1.
        -13    1    1    2    0    0 -0.85931590332E+02 -0.97284369842E+02  0.22959679957E+03  0.26374834287E+03  0.10566000000E+00 0.  1.
         13    1    1    2    0    0  0.97371045564E+01  0.11618698097E+03 -0.29411286320E+03  0.31638048804E+03  0.10566000000E+00 0. -1.
          4    1    1    2  501    0  0.76194485775E+02 -0.18902611123E+02 -0.25116298701E+03  0.26314588048E+03  0.00000000000E+00 0.  1.
</event>
<event>
 5    1  0.4866530E-005  0.1890188E+03  0.7818608E-02  0.1070095E+00
          4   -1    0    0  502    0 -0.00000000000E+00  0.00000000000E+00  0.25400700895E+03  0.25400700895E+03  0.00000000000E+00 0.  1.
         21   -1    0    0  501  502  0.00000000000E+00 -0.00000000000E+00 -0.18529200814E+04  0.18529200814E+04  0.00000000000E+00 0.  1.
        -13    1    1    2    0    0 -0.17083686945E+03 -0.17066390557E+02  0.16589702924E+03  0.23874323681E+03  0.10566000000E+00 0.  1.
         13    1    1    2    0    0  0.27591473715E+03 -0.14005381078E+03 -0.49058315785E+03  0.58001367055E+03  0.10566000000E+00 0. -1.
          4    1    1    2  501    0 -0.10507786770E+03  0.15712020133E+03 -0.12742269438E+04  0.12881701830E+04  0.00000000000E+00 0.  1.
</event>
<event>
 5    1  0.4866530E-005  0.5967124E+02  0.7818608E-02  0.1301750E+00
         -4   -1    0    0    0  501 -0.00000000000E+00  0.00000000000E+00  0.19788379497E+03  0.19788379497E+03  0.00000000000E+00 0. -1.
         21   -1    0    0  501  502  0.00000000000E+00 -0.00000000000E+00 -0.54530625274E+02  0.54530625274E+02  0.00000000000E+00 0.  1.
        -13    1    1    2    0    0  0.44933837556E+02  0.64521694262E+02  0.77193193630E+02  0.11018574815E+03  0.10566000000E+00 0.  1.
         13    1    1    2    0    0 -0.59730520338E+01 -0.19325297309E+02  0.78696691326E+02  0.81254691289E+02  0.10566000000E+00 0. -1.
         -4    1    1    2    0  502 -0.38960785522E+02 -0.45196396954E+02 -0.12536715260E+02  0.60973980808E+02  0.00000000000E+00 0. -1.
</event>
<event>
 5    1  0.4866530E-005  0.4767711E+03  0.7818608E-02  0.9971702E-01
         -4   -1    0    0    0  501 -0.00000000000E+00  0.00000000000E+00  0.20381700928E+04  0.20381700928E+04  0.00000000000E+00 0. -1.
         21   -1    0    0  501  502  0.00000000000E+00 -0.00000000000E+00 -0.16235347360E+03  0.16235347360E+03  0.00000000000E+00 0. -1.
        -13    1    1    2    0    0  0.91545188778E+02  0.49418879264E+02  0.41499435645E+03  0.42783533546E+03  0.10566000000E+00 0.  1.
         13    1    1    2    0    0 -0.13096773908E+03 -0.50343132867E+03  0.98446346483E+03  0.11134468897E+04  0.10566000000E+00 0. -1.
         -4    1    1    2    0  502  0.39422550302E+02  0.45401244941E+03  0.47635879791E+03  0.65924134127E+03  0.00000000000E+00 0. -1.
</event>
<event>
 5    1  0.4866530E-005  0.4180385E+03  0.7818608E-02  0.9950300E-01
         -4   -1    0    0    0  501 -0.00000000000E+00  0.00000000000E+00  0.48484268409E+03  0.48484268409E+03  0.00000000000E+00 0. -1.
         21   -1    0    0  501  502  0.00000000000E+00 -0.00000000000E+00 -0.77841593870E+03  0.77841593870E+03  0.00000000000E+00 0. -1.
        -13    1    1    2    0    0 -0.14792989181E+03 -0.74514795439E+02  0.73039966064E+02  0.18102639431E+03  0.10566000000E+00 0.  1.
         13    1    1    2    0    0 -0.25914086021E+03 -0.28246450033E+03 -0.38120832443E+03  0.54061074458E+03  0.10566000000E+00 0. -1.
         -4    1    1    2    0  502  0.40707075203E+03  0.35697929577E+03  0.14595103755E+02  0.54162148389E+03  0.00000000000E+00 0. -1.
</event>
<event>
 5    1  0.4866530E-005  0.5006330E+03  0.7818608E-02  0.9716118E-01
         21   -1    0    0  501  502  0.00000000000E+00  0.00000000000E+00  0.14239982850E+03  0.14239982850E+03  0.00000000000E+00 0. -1.
         -4   -1    0    0    0  501 -0.00000000000E+00 -0.00000000000E+00 -0.27796919689E+04  0.27796919689E+04  0.00000000000E+00 0. -1.
        -13    1    1    2    0    0 -0.15970134250E+02  0.21277825272E+03 -0.56340315629E+03  0.60245560641E+03  0.10566000000E+00 0.  1.
         13    1    1    2    0    0 -0.47738742618E+03  0.40282212391E+02 -0.84296212866E+03  0.96959093066E+03  0.10566000000E+00 0. -1.
         -4    1    1    2    0  502  0.49335756043E+03 -0.25306046511E+03 -0.12309268554E+04  0.13500452603E+04  0.00000000000E+00 0. -1.
</event>
<event>
 5    1  0.4866530E-005  0.2226761E+03  0.7818608E-02  0.1045612E+00
         21   -1    0    0  501  502  0.00000000000E+00  0.00000000000E+00  0.28248312590E+03  0.28248312590E+03  0.00000000000E+00 0.  1.
          4   -1    0    0  502    0 -0.00000000000E+00 -0.00000000000E+00 -0.48854459637E+03  0.48854459637E+03  0.00000000000E+00 0.  1.
        -13    1    1    2    0    0 -0.21983290520E+03 -0.51142521075E+02 -0.34636240326E+03  0.41341140433E+03  0.10566000000E+00 0.  1.
         13    1    1    2    0    0  0.19647932880E+03  0.89678003697E+02  0.61119045360E+01  0.21606396630E+03  0.10566000000E+00 0. -1.
          4    1    1    2  501    0  0.23353576395E+02 -0.38535482622E+02  0.13418902825E+03  0.14155235164E+03  0.00000000000E+00 0.  1.
</event>
<event>
 5    1  0.4866530E-005  0.7781669E+02  0.7818608E-02  0.1225164E+00
         21   -1    0    0  501  502  0.00000000000E+00  0.00000000000E+00  0.15852438157E+03  0.15852438157E+03  0.00000000000E+00 0.  1.
         -4   -1    0    0    0  501 -0.00000000000E+00 -0.00000000000E+00 -0.12551058253E+03  0.12551058253E+03  0.00000000000E+00 0. -1.
        -13    1    1    2    0    0  0.36595747431E+02 -0.37949195606E+02 -0.38497901909E+02  0.65280087260E+02  0.10566000000E+00 0.  1.
         13    1    1    2    0    0 -0.96676490783E+02 -0.88722434489E+01 -0.20584041526E+02  0.99240992053E+02  0.10566000000E+00 0. -1.
         -4    1    1    2    0  502  0.60080743352E+02  0.46821439055E+02  0.92095742467E+02  0.11951388479E+03  0.00000000000E+00 0. -1.
</event>
<event>
 5    1  0.4866530E-005  0.4906699E+03  0.7818608E-02  0.9711598E-01
         -4   -1    0    0    0  501 -0.00000000000E+00  0.00000000000E+00  0.26266637596E+04  0.26266637596E+04  0.00000000000E+00 0. -1.
         21   -1    0    0  501  502  0.00000000000E+00 -0.00000000000E+00 -0.20943604507E+03  0.20943604507E+03  0.00000000000E+00 0. -1.
        -13    1    1    2    0    0  0.19000296087E+03  0.13001100186E+03  0.13277263774E+04  0.13475389902E+04  0.10566000000E+00 0.  1.
         13    1    1    2    0    0 -0.57226381905E+03 -0.77101025636E+01  0.42732494018E+03  0.71424921417E+03  0.10566000000E+00 0. -1.
         -4    1    1    2    0  502  0.38226085819E+03 -0.12230089930E+03  0.66217639703E+03  0.77431160036E+03  0.00000000000E+00 0. -1.
</event>
<event>
 5    1  0.4866530E-005  0.5611074E+03  0.7818608E-02  0.9353235E-01
          4   -1    0    0  502    0 -0.00000000000E+00  0.00000000000E+00  0.26290848674E+04  0.26290848674E+04  0.00000000000E+00 0.  1.
         21   -1    0    0  501  502  0.00000000000E+00 -0.00000000000E+00 -0.71072279977E+03  0.71072279977E+03  0.00000000000E+00 0.  1.
        -13    1    1    2    0    0 -0.54416259590E+03  0.50266421321E+03 -0.20203600607E+03  0.76785597669E+03  0.10566000000E+00 0.  1.
         13    1    1    2    0    0  0.54010371257E+03 -0.12528782012E+03  0.21233476576E+04  0.21945419441E+04  0.10566000000E+00 0. -1.
          4    1    1    2  501    0  0.40588833285E+01 -0.37737639309E+03 -0.29495839221E+01  0.37740974635E+03  0.00000000000E+00 0.  1.
</event>
<event>
 5    1  0.4866530E-005  0.4065221E+03  0.7818608E-02  0.9752147E-01
         21   -1    0    0  501  502  0.00000000000E+00  0.00000000000E+00  0.33024277204E+03  0.33024277204E+03  0.00000000000E+00 0. -1.
         -4   -1    0    0    0  501 -0.00000000000E+00 -0.00000000000E+00 -0.19714317035E+04  0.19714317035E+04  0.00000000000E+00 0. -1.
        -13    1    1    2    0    0 -0.37296104643E+03 -0.22771035135E+03 -0.84150492456E+03  0.94819960741E+03  0.10566000000E+00 0.  1.
         13    1    1    2    0    0  0.16410136527E+03 -0.16109563878E+03 -0.87590503855E+03  0.90558859900E+03  0.10566000000E+00 0. -1.
         -4    1    1    2    0  502  0.20885968115E+03  0.38880599013E+03  0.76221031683E+02  0.44788626910E+03  0.00000000000E+00 0. -1.
</event>
<event>
 5    1  0.4866530E-005  0.1788748E+03  0.7818608E-02  0.1075670E+00
         21   -1    0    0  501  502  0.00000000000E+00  0.00000000000E+00  0.18255047142E+03  0.18255047142E+03  0.00000000000E+00 0. -1.
         -4   -1    0    0    0  501 -0.00000000000E+00 -0.00000000000E+00 -0.16712481850E+04  0.16712481850E+04  0.00000000000E+00 0. -1.
        -13    1    1    2    0    0  0.31121552837E+01 -0.16037563896E+03 -0.14824988679E+03  0.21842177359E+03  0.10566000000E+00 0.  1.
         13    1    1    2    0    0  0.47013274537E+02  0.25489360727E+03  0.29852417187E+02  0.26090645256E+03  0.10566000000E+00 0. -1.
         -4    1    1    2    0  502 -0.50125429821E+02 -0.94517968317E+02 -0.13703002440E+04  0.13744704303E+04  0.00000000000E+00 0. -1.
</event>
<event>
 5    1  0.4866530E-005  0.4943399E+03  0.7818608E-02  0.9590642E-01
         -4   -1    0    0    0  501 -0.00000000000E+00  0.00000000000E+00  0.57379285906E+03  0.57379285906E+03  0.00000000000E+00 0. -1.
         21   -1    0    0  501  502  0.00000000000E+00 -0.00000000000E+00 -0.86595240721E+03  0.86595240721E+03  0.00000000000E+00 0. -1.
        -13    1    1    2    0    0 -0.17337470659E+03  0.29779271814E+03 -0.29886971965E+01  0.34459865835E+03  0.10566000000E+00 0.  1.
         13    1    1    2    0    0 -0.37930580723E+03 -0.29532436380E+03 -0.21868585500E+02  0.48121473528E+03  0.10566000000E+00 0. -1.
         -4    1    1    2    0  502  0.55268051382E+03 -0.24683543331E+01 -0.26730226545E+03  0.61393187264E+03  0.00000000000E+00 0. -1.
</event>
<event>
 5    1  0.4866530E-005  0.4821856E+03  0.7818608E-02  0.9724680E-01
         21   -1    0    0  501  502  0.00000000000E+00  0.00000000000E+00  0.28405772067E+03  0.28405772067E+03  0.00000000000E+00 0. -1.
         -4   -1    0    0    0  501 -0.00000000000E+00 -0.00000000000E+00 -0.20379053271E+04  0.20379053271E+04  0.00000000000E+00 0. -1.
        -13    1    1    2    0    0  0.16893450714E+03  0.15876132394E+03 -0.10805876464E+04  0.11051758677E+04  0.10566000000E+00 0.  1.
         13    1    1    2    0    0  0.13030317179E+02 -0.56434993038E+03 -0.43326421538E+03  0.71160278567E+03  0.10566000000E+00 0. -1.
         -4    1    1    2    0  502 -0.18196482432E+03  0.40558860643E+03 -0.23999574462E+03  0.50518439444E+03  0.00000000000E+00 0. -1.
</event>
<event>
 5    1  0.4866530E-005  0.3166009E+03  0.7818608E-02  0.1000679E+00
          4   -1    0    0  502    0 -0.00000000000E+00  0.00000000000E+00  0.14249640659E+04  0.14249640659E+04  0.00000000000E+00 0.  1.
         21   -1    0    0  501  502  0.00000000000E+00 -0.00000000000E+00 -0.50298301888E+03  0.50298301888E+03  0.00000000000E+00 0. -1.
        -13    1    1    2    0    0 -0.25808764170E+03  0.18445974669E+03  0.13449182743E+04  0.13818248097E+04  0.10566000000E+00 0.  1.
         13    1    1    2    0    0  0.25496706521E+03 -0.15996478939E+03 -0.42560724617E+03  0.52128540871E+03  0.10566000000E+00 0. -1.
          4    1    1    2  501    0  0.31205764915E+01 -0.24494957304E+02  0.26700188780E+01  0.24836866384E+02  0.00000000000E+00 0.  1.
</event>
<event>
 5    1  0.4866530E-005  0.3605407E+03  0.7818608E-02  0.9850485E-01
          4   -1    0    0  502    0 -0.00000000000E+00  0.00000000000E+00  0.23359881992E+03  0.23359881992E+03  0.00000000000E+00 0.  1.
         21   -1    0    0  501  502  0.00000000000E+00 -0.00000000000E+00 -0.96417390510E+03  0.96417390510E+03  0.00000000000E+00 0. -1.
        -13    1    1    2    0    0 -0.33817939747E+03  0.12979487259E+03  0.11432331856E+02  0.36241236623E+03  0.10566000000E+00 0.  1.
         13    1    1    2    0    0  0.33985140809E+03 -0.10068040636E+03 -0.67984462191E+03  0.76669697072E+03  0.10566000000E+00 0. -1.
          4    1    1    2  501    0 -0.16720106251E+01 -0.29114466232E+02 -0.62162795124E+02  0.68663388069E+02  0.00000000000E+00 0.  1.
</event>
<event>
 5    1  0.4866530E-005  0.4728680E+03  0.7818608E-02  0.9976960E-01
         -4   -1    0    0    0  501 -0.00000000000E+00  0.00000000000E+00  0.55843508696E+03  0.55843508696E+03  0.00000000000E+00 0. -1.
         21   -1    0    0  501  502  0.00000000000E+00 -0.00000000000E+00 -0.67772923187E+03  0.67772923187E+03  0.00000000000E+00 0. -1.
        -13    1    1    2    0    0 -0.82481153687E+02 -0.64649863971E+02  0.18797796702E+03  0.21521726900E+03  0.10566000000E+00 0.  1.
         13    1    1    2    0    0  0.48865463886E+03 -0.99004145475E+02 -0.30219225311E+03  0.58301401862E+03  0.10566000000E+00 0. -1.
         -4    1    1    2    0  502 -0.40617348518E+03  0.16365400945E+03 -0.50798588246E+01  0.43793303122E+03  0.00000000000E+00 0. -1.
</event>
<event>
 5    1  0.4866530E-005  0.5237265E+03  0.7818608E-02  0.9427432E-01
         21   -1    0    0  501  502  0.00000000000E+00  0.00000000000E+00  0.43873973160E+03  0.43873973160E+03  0.00000000000E+00 0. -1.
         -4   -1    0    0    0  501 -0.00000000000E+00 -0.00000000000E+00 -0.17079880455E+04  0.17079880455E+04  0.00000000000E+00 0. -1.
        -13    1    1    2    0    0  0.45189155712E+02 -0.46481615193E+03 -0.84117009758E+03  0.96211395329E+03  0.10566000000E+00 0.  1.
         13    1    1    2    0    0  0.52814722011E+02  0.77614513412E+03 -0.31261521455E+03  0.83840261665E+03  0.10566000000E+00 0. -1.
         -4    1    1    2    0  502 -0.98003877724E+02 -0.31132898219E+03 -0.11546300182E+03  0.34621120720E+03  0.00000000000E+00 0. -1.
</event>
<event>
 5    1  0.4866530E-005  0.4567631E+03  0.7818608E-02  0.9767671E-01
         21   -1    0    0  501  502  0.00000000000E+00  0.00000000000E+00  0.10813673087E+04  0.10813673087E+04  0.00000000000E+00 0. -1.
         -4   -1    0    0    0  501 -0.00000000000E+00 -0.00000000000E+00 -0.41503858395E+03  0.41503858395E+03  0.00000000000E+00 0. -1.
        -13    1    1    2    0    0  0.20965436776E+03  0.10644336464E+03 -0.55447876060E+02  0.24157736219E+03  0.10566000000E+00 0.  1.
         13    1    1    2    0    0 -0.12320088253E+03  0.42103055890E+03  0.52756609227E+03  0.68612767169E+03  0.10566000000E+00 0. -1.
         -4    1    1    2    0  502 -0.86453485231E+02 -0.52747392354E+03  0.19421050852E+03  0.56870085875E+03  0.00000000000E+00 0. -1.
</event>
<event>
 5    1  0.4866530E-005  0.4576313E+03  0.7818608E-02  0.9839459E-01
          4   -1    0    0  502    0 -0.00000000000E+00  0.00000000000E+00  0.20229833162E+04  0.20229833162E+04  0.00000000000E+00 0.  1.
         21   -1    0    0  501  502  0.00000000000E+00 -0.00000000000E+00 -0.17731461844E+03  0.17731461844E+03  0.00000000000E+00 0.  1.
        -13    1    1    2    0    0  0.50999033214E+03  0.16869592434E+02  0.37128463679E+03  0.63105230742E+03  0.10566000000E+00 0.  1.
         13    1    1    2    0    0 -0.17456659512E+03  0.54939360577E+02  0.36948266585E+03  0.41232181728E+03  0.10566000000E+00 0. -1.
          4    1    1    2  501    0 -0.33542373701E+03 -0.71808953011E+02  0.11049013951E+04  0.11569238100E+04  0.00000000000E+00 0.  1.
</event>
<event>
 5    1  0.4866530E-005  0.1861606E+03  0.7818608E-02  0.1070061E+00
         -4   -1    0    0    0  501 -0.00000000000E+00  0.00000000000E+00  0.56722601910E+03  0.56722601910E+03  0.00000000000E+00 0. -1.
         21   -1    0    0  501  502  0.00000000000E+00 -0.00000000000E+00 -0.14540696016E+03  0.14540696016E+03  0.00000000000E+00 0. -1.
        -13    1    1    2    0    0  0.78273272054E+02  0.17301652956E+03  0.19851486897E+03  0.27471728920E+03  0.10566000000E+00 0.  1.
         13    1    1    2    0    0 -0.50808127442E+02 -0.17728844583E+03  0.30233158499E+03  0.35414270752E+03  0.10566000000E+00 0. -1.
         -4    1    1    2    0  502 -0.27465144612E+02  0.42719162653E+01 -0.79027395034E+02  0.83772982536E+02  0.00000000000E+00 0. -1.
</event>
<event>
 5    1  0.4866530E-005  0.7427038E+02  0.7818608E-02  0.1224207E+00
          4   -1    0    0  502    0 -0.00000000000E+00  0.00000000000E+00  0.51819843799E+03  0.51819843799E+03  0.00000000000E+00 0.  1.
         21   -1    0    0  501  502  0.00000000000E+00 -0.00000000000E+00 -0.37884256052E+02  0.37884256052E+02  0.00000000000E+00 0.  1.
        -13    1    1    2    0    0  0.44249894893E+02  0.50124121106E+02  0.37056824985E+03  0.37655188179E+03  0.10566000000E+00 0.  1.
         13    1    1    2    0    0  0.35903050160E+02 -0.50448706893E+02  0.48755575359E+02  0.78811283016E+02  0.10566000000E+00 0. -1.
          4    1    1    2  501    0 -0.80152945053E+02  0.32458578716E+00  0.60990356731E+02  0.10071952924E+03  0.00000000000E+00 0.  1.
</event>
<event>
 5    1  0.4866530E-005  0.1768138E+03  0.7818608E-02  0.1077310E+00
          4   -1    0    0  502    0 -0.00000000000E+00  0.00000000000E+00  0.47324158265E+03  0.47324158265E+03  0.00000000000E+00 0.  1.
         21   -1    0    0  501  502  0.00000000000E+00 -0.00000000000E+00 -0.39725393369E+03  0.39725393369E+03  0.00000000000E+00 0.  1.
        -13    1    1    2    0    0 -0.77798218787E+02  0.16548798362E+03  0.29634417408E+03  0.34822222250E+03  0.10566000000E+00 0.  1.
         13    1    1    2    0    0  0.73848659386E+02 -0.14884653652E+03  0.10494282394E+03  0.19652461268E+03  0.10566000000E+00 0. -1.
          4    1    1    2  501    0  0.39495594006E+01 -0.16641447100E+02 -0.32529934905E+03  0.32574868116E+03  0.00000000000E+00 0.  1.
</event>
<event>
 5    1  0.4866530E-005  0.4385855E+03  0.7818608E-02  0.9898424E-01
         -4   -1    0    0    0  501 -0.00000000000E+00  0.00000000000E+00  0.21286920764E+04  0.21286920764E+04  0.00000000000E+00 0. -1.
         21   -1    0    0  501  502  0.00000000000E+00 -0.00000000000E+00 -0.16225783166E+03  0.16225783166E+03  0.00000000000E+00 0. -1.
        -13    1    1    2    0    0  0.14230063592E+03 -0.93858881403E+02  0.18755439629E+03  0.25344747648E+03  0.10566000000E+00 0.  1.
         13    1    1    2    0    0  0.25319339250E+03  0.32404370850E+03  0.13466481363E+04  0.14080385056E+04  0.10566000000E+00 0. -1.
         -4    1    1    2    0  502 -0.39549402842E+03 -0.23018482710E+03  0.43223171212E+03  0.62946392598E+03  0.00000000000E+00 0. -1.
</event>
<event>
 5    1  0.4866530E-005  0.2947604E+03  0.7818608E-02  0.1028151E+00
          4   -1    0    0  502    0 -0.00000000000E+00  0.00000000000E+00  0.16093492064E+03  0.16093492064E+03  0.00000000000E+00 0.  1.
         21   -1    0    0  501  502  0.00000000000E+00 -0.00000000000E+00 -0.22599462507E+04  0.22599462507E+04  0.00000000000E+00 0.  1.
        -13    1    1    2    0    0  0.20588047537E+03  0.12158357488E+03 -0.10106860101E+01  0.23910325901E+03  0.10566000000E+00 0.  1.
         13    1    1    2    0    0 -0.67430009569E+02  0.14893366446E+03 -0.19409883244E+03  0.25377630016E+03  0.10566000000E+00 0. -1.
          4    1    1    2  501    0 -0.13845046580E+03 -0.27051723934E+03 -0.19039018116E+04  0.19280016121E+04  0.00000000000E+00 0.  1.
</event>
<event>
 5    1  0.4866530E-005  0.1918547E+03  0.7818608E-02  0.1065868E+00
         21   -1    0    0  501  502  0.00000000000E+00  0.00000000000E+00  0.14946514391E+03  0.14946514391E+03  0.00000000000E+00 0. -1.
          4   -1    0    0  502    0 -0.00000000000E+00 -0.00000000000E+00 -0.10541972395E+04  0.10541972395E+04  0.00000000000E+00 0.  1.
        -13    1    1    2    0    0  0.93867092267E+02 -0.15536941373E+03 -0.76350850887E+03  0.78479037967E+03  0.10566000000E+00 0.  1.
         13    1    1    2    0    0 -0.98487347459E+02  0.23524829008E+03 -0.19621927121E+03  0.32178180364E+03  0.10566000000E+00 0. -1.
          4    1    1    2  501    0  0.46202551923E+01 -0.79878876351E+02  0.54995684488E+02  0.97090200111E+02  0.00000000000E+00 0.  1.
</event>
<event>
 5    1  0.4866530E-005  0.3346342E+03  0.7818608E-02  0.1001226E+00
         21   -1    0    0  501  502  0.00000000000E+00  0.00000000000E+00  0.40866093065E+03  0.40866093065E+03  0.00000000000E+00 0. -1.
         -4   -1    0    0    0  501 -0.00000000000E+00 -0.00000000000E+00 -0.16131488993E+04  0.16131488993E+04  0.00000000000E+00 0. -1.
        -13    1    1    2    0    0  0.22657796682E+03 -0.13426455594E+03 -0.91845743916E+03  0.95547298483E+03  0.10566000000E+00 0.  1.
         13    1    1    2    0    0 -0.14116511469E+03  0.44667006751E+03 -0.49451336851E+03  0.68116460685E+03  0.10566000000E+00 0. -1.
         -4    1    1    2    0  502 -0.85412852124E+02 -0.31240551157E+03  0.20848283902E+03  0.38517223827E+03  0.00000000000E+00 0. -1.
</event>
<event>
 5    1  0.4866530E-005  0.2381529E+03  0.7818608E-02  0.1081960E+00
         21   -1    0    0  501  502  0.00000000000E+00  0.00000000000E+00  0.41301193784E+03  0.41301193784E+03  0.00000000000E+00 0.  1.
          4   -1    0    0  502    0 -0.00000000000E+00 -0.00000000000E+00 -0.27690347474E+03  0.27690347474E+03  0.00000000000E+00 0.  1.
        -13    1    1    2    0    0 -0.17011924728E+03 -0.19845913331E+03 -0.11740624287E+03  0.28654986114E+03  0.10566000000E+00 0.  1.
         13    1    1    2    0    0 -0.19016489388E+02  0.60574069575E+02  0.77230746258E+01  0.63957031039E+02  0.10566000000E+00 0. -1.
          4    1    1    2  501    0  0.18913573667E+03  0.13788506373E+03  0.24579163135E+03  0.33940852041E+03  0.00000000000E+00 0.  1.
</event>
<event>
 5    1  0.4866530E-005  0.3887599E+03  0.7818608E-02  0.1019649E+00
         21   -1    0    0  501  502  0.00000000000E+00  0.00000000000E+00  0.20890370988E+03  0.20890370988E+03  0.00000000000E+00 0.  1.
          4   -1    0    0  502    0 -0.00000000000E+00 -0.00000000000E+00 -0.16943274135E+04  0.16943274135E+04  0.00000000000E+00 0.  1.
        -13    1    1    2    0    0  0.33151363865E+03 -0.31710916688E+03 -0.99467364496E+03  0.10953698861E+04  0.10566000000E+00 0.  1.
         13    1    1    2    0    0 -0.86072971455E+02  0.35130030002E+02 -0.41646625571E+03  0.42671633286E+03  0.10566000000E+00 0. -1.
          4    1    1    2  501    0 -0.24544066719E+03  0.28197913688E+03 -0.74283802942E+02  0.38114490437E+03  0.00000000000E+00 0.  1.
</event>
<event>
 5    1  0.4866530E-005  0.4931500E+03  0.7818608E-02  0.9738106E-01
         21   -1    0    0  501  502  0.00000000000E+00  0.00000000000E+00  0.15895773182E+03  0.15895773182E+03  0.00000000000E+00 0.  1.
          4   -1    0    0  502    0 -0.00000000000E+00 -0.00000000000E+00 -0.24316859468E+04  0.24316859468E+04  0.00000000000E+00 0.  1.
        -13    1    1    2    0    0  0.67138820414E+01  0.49321075836E+03 -0.11464117018E+04  0.12480231286E+04  0.10566000000E+00 0.  1.
         13    1    1    2    0    0 -0.20547547197E+03 -0.23949412603E+02 -0.45466964012E+03  0.49951800443E+03  0.10566000000E+00 0. -1.
          4    1    1    2  501    0  0.19876158992E+03 -0.46926134575E+03 -0.67164687302E+03  0.84310254553E+03  0.00000000000E+00 0.  1.
</event>
<event>
 5    1  0.4866530E-005  0.4678116E+03  0.7818608E-02  0.9700367E-01
          4   -1    0    0  502    0 -0.00000000000E+00  0.00000000000E+00  0.57018697952E+03  0.57018697952E+03  0.00000000000E+00 0.  1.
         21   -1    0    0  501  502  0.00000000000E+00 -0.00000000000E+00 -0.78832243570E+03  0.78832243570E+03  0.00000000000E+00 0.  1.
        -13    1    1    2    0    0 -0.23069859042E+03 -0.21412490391E+03  0.17450205383E+03  0.35989205611E+03  0.10566000000E+00 0.  1.
         13    1    1    2    0    0 -0.27620676622E+03  0.38275247546E+01  0.65309925335E+02  0.28384894779E+03  0.10566000000E+00 0. -1.
          4    1    1    2  501    0  0.50690535664E+03  0.21029737916E+03 -0.45794743535E+03  0.71476841131E+03  0.00000000000E+00 0.  1.
</event>
<event>
 5    1  0.4866530E-005  0.2253906E+03  0.7818608E-02  0.1043998E+00
         21   -1    0    0  501  502  0.00000000000E+00  0.00000000000E+00  0.46703321271E+02  0.46703321271E+02  0.00000000000E+00 0. -1.
          4   -1    0    0  502    0 -0.00000000000E+00 -0.00000000000E+00 -0.12034555102E+04  0.12034555102E+04  0.00000000000E+00 0.  1.
        -13    1    1    2    0    0 -0.22055048055E+03  0.27260690339E+02 -0.54326906639E+03  0.58696418065E+03  0.10566000000E+00 0.  1.
         13    1    1    2    0    0  0.22911290093E+03 -0.62136090283E+01 -0.55700246828E+03  0.60231477746E+03  0.10566000000E+00 0. -1.
          4    1    1    2  501    0 -0.85624203848E+01 -0.21047081311E+02 -0.56480654215E+02  0.60879873317E+02  0.00000000000E+00 0.  1.
</event>
<event>
 5    1  0.4866530E-005  0.2525102E+03  0.7818608E-02  0.1029100E+00
          4   -1    0    0  502    0 -0.00000000000E+00  0.00000000000E+00  0.21785900967E+04  0.21785900967E+04  0.00000000000E+00 0.  1.
         21   -1    0    0  501  502  0.00000000000E+00 -0.00000000000E+00 -0.40676880386E+02  0.40676880386E+02  0.00000000000E+00 0. -1.
        -13    1    1    2    0    0  0.23964700751E+03  0.39991601076E+02  0.11753080714E+04  0.12001579438E+04  0.10566000000E+00 0.  1.
         13    1    1    2    0    0 -0.25865485656E+03 -0.68083348961E+02  0.94241931626E+03  0.97963863545E+03  0.10566000000E+00 0. -1.
          4    1    1    2  501    0  0.19007849057E+02  0.28091747885E+02  0.20185828730E+02  0.39470397851E+02  0.00000000000E+00 0.  1.
</event>
<event>
 5    1  0.4866530E-005  0.4490038E+02  0.7818608E-02  0.1314070E+00
          4   -1    0    0  502    0 -0.00000000000E+00  0.00000000000E+00  0.10808645297E+03  0.10808645297E+03  0.00000000000E+00 0.  1.
         21   -1    0    0  501  502  0.00000000000E+00 -0.00000000000E+00 -0.34842844894E+03  0.34842844894E+03  0.00000000000E+00 0.  1.
        -13    1    1    2    0    0  0.30773409060E+02 -0.34768052603E+02  0.99072462243E+02  0.10941290658E+03  0.10566000000E+00 0.  1.
         13    1    1    2    0    0 -0.31767366928E+01  0.29314889085E+02 -0.66531756970E+02  0.72773210920E+02  0.10566000000E+00 0. -1.
          4    1    1    2  501    0 -0.27596672367E+02  0.54531635176E+01 -0.27288270124E+03  0.27432878441E+03  0.00000000000E+00 0.  1.
</event>
<event>
 5    1  0.4866530E-005  0.3981278E+03  0.7818608E-02  0.9810075E-01
         21   -1    0    0  501  502  0.00000000000E+00  0.00000000000E+00  0.27395105813E+03  0.27395105813E+03  0.00000000000E+00 0. -1.
          4   -1    0    0  502    0 -0.00000000000E+00 -0.00000000000E+00 -0.16996709695E+04  0.16996709695E+04  0.00000000000E+00 0.  1.
        -13    1    1    2    0    0  0.31083414099E+03 -0.25423952645E+03 -0.13225106468E+03  0.42278357973E+03  0.10566000000E+00 0.  1.
         13    1    1    2    0    0 -0.22412289705E+03 -0.20997060432E+03 -0.21908355652E+03  0.37724838443E+03  0.10566000000E+00 0. -1.
          4    1    1    2  501    0 -0.86711243947E+02  0.46421013077E+03 -0.10743852901E+04  0.11735900634E+04  0.00000000000E+00 0.  1.
</event>
<event>
 5    1  0.4866530E-005  0.1938128E+03  0.7818608E-02  0.1064462E+00
         21   -1    0    0  501  502  0.00000000000E+00  0.00000000000E+00  0.11658256019E+03  0.11658256019E+03  0.00000000000E+00 0. -1.
         -4   -1    0    0    0  501 -0.00000000000E+00 -0.00000000000E+00 -0.45858671218E+03  0.45858671218E+03  0.00000000000E+00 0. -1.
        -13    1    1    2    0    0  0.99799711129E+02  0.15417352782E+03 -0.79920483766E+02  0.20029167210E+03  0.10566000000E+00 0.  1.
         13    1    1    2    0    0 -0.11461038635E+03 -0.16288400205E+03 -0.28409532498E+03  0.34695374854E+03  0.10566000000E+00 0. -1.
         -4    1    1    2    0  502  0.14810675224E+02  0.87104742271E+01  0.22011656764E+02  0.27923851728E+02  0.00000000000E+00 0. -1.
</event>
<event>
 5    1  0.4866530E-005  0.5734967E+02  0.7818608E-02  0.1264453E+00
         21   -1    0    0  501  502  0.00000000000E+00  0.00000000000E+00  0.47044776653E+03  0.47044776653E+03  0.00000000000E+00 0. -1.
         -4   -1    0    0    0  501 -0.00000000000E+00 -0.00000000000E+00 -0.65228505284E+02  0.65228505284E+02  0.00000000000E+00 0. -1.
        -13    1    1    2    0    0 -0.57378184591E+02  0.33140967246E+02  0.14738741533E+03  0.16159715696E+03  0.10566000000E+00 0.  1.
         13    1    1    2    0    0  0.42956289980E+02 -0.36922801632E+02 -0.44095342249E+02  0.71784026784E+02  0.10566000000E+00 0. -1.
         -4    1    1    2    0  502  0.14421894611E+02  0.37818343862E+01  0.30192718817E+03  0.30229508807E+03  0.00000000000E+00 0. -1.
</event>
<event>
 5    1  0.4866530E-005  0.3562679E+03  0.7818608E-02  0.9864617E-01
          4   -1    0    0  502    0 -0.00000000000E+00  0.00000000000E+00  0.23463868580E+03  0.23463868580E+03  0.00000000000E+00 0.  1.
         21   -1    0    0  501  502  0.00000000000E+00 -0.00000000000E+00 -0.95770602126E+03  0.95770602126E+03  0.00000000000E+00 0. -1.
        -13    1    1    2    0    0  0.32039569054E+03 -0.12985843829E+02 -0.40228929788E+03  0.51444992080E+03  0.10566000000E+00 0.  1.
         13    1    1    2    0    0 -0.36883719279E+03  0.48206837006E+02 -0.21405025978E+02  0.37258953316E+03  0.10566000000E+00 0. -1.
          4    1    1    2  501    0  0.48441502245E+02 -0.35220993176E+02 -0.29937301160E+03  0.30530525310E+03  0.00000000000E+00 0.  1.
</event>
<event>
 5    1  0.4866530E-005  0.3439641E+03  0.7818608E-02  0.9906515E-01
          4   -1    0    0  502    0 -0.00000000000E+00  0.00000000000E+00  0.19398138956E+04  0.19398138956E+04  0.00000000000E+00 0.  1.
         21   -1    0    0  501  502  0.00000000000E+00 -0.00000000000E+00 -0.29635449909E+03  0.29635449909E+03  0.00000000000E+00 0. -1.
        -13    1    1    2    0    0  0.29641822303E+03  0.15887426949E+03  0.72828616232E+01  0.33638942862E+03  0.10566000000E+00 0.  1.
         13    1    1    2    0    0 -0.37717489940E+03  0.13052703352E+03  0.22747982057E+03  0.45939665992E+03  0.10566000000E+00 0. -1.
          4    1    1    2  501    0  0.80756676368E+02 -0.28940130302E+03  0.14086967143E+04  0.14403823061E+04  0.00000000000E+00 0.  1.
</event>
<event>
 5    1  0.4866530E-005  0.6212211E+03  0.7818608E-02  0.9245833E-01
         21   -1    0    0  501  502  0.00000000000E+00  0.00000000000E+00  0.42794937503E+03  0.42794937503E+03  0.00000000000E+00 0. -1.
          4   -1    0    0  502    0 -0.00000000000E+00 -0.00000000000E+00 -0.15671970035E+04  0.15671970035E+04  0.00000000000E+00 0.  1.
        -13    1    1    2    0    0  0.61301451603E+02 -0.56417395600E+03 -0.62172885350E+03  0.84178197833E+03  0.10566000000E+00 0.  1.
         13    1    1    2    0    0 -0.29891970532E+02  0.69421943893E+03 -0.65969540819E+03  0.95813996996E+03  0.10566000000E+00 0. -1.
          4    1    1    2  501    0 -0.31409481071E+02 -0.13004548292E+03  0.14217663322E+03  0.19522443024E+03  0.00000000000E+00 0.  1.
</event>
<event>
 5    1  0.4866530E-005  0.9069801E+03  0.7818608E-02  0.8867272E-01
         21   -1    0    0  501  502  0.00000000000E+00  0.00000000000E+00  0.38813253239E+03  0.38813253239E+03  0.00000000000E+00 0. -1.
          4   -1    0    0  502    0 -0.00000000000E+00 -0.00000000000E+00 -0.34319522042E+04  0.34319522042E+04  0.00000000000E+00 0.  1.
        -13    1    1    2    0    0  0.50451861835E+03  0.87816908814E+03 -0.11583425788E+04  0.15386609518E+04  0.10566000000E+00 0.  1.
         13    1    1    2    0    0 -0.50243922941E+03 -0.69505371008E+03 -0.19127993594E+04  0.20962696009E+04  0.10566000000E+00 0. -1.
          4    1    1    2  501    0 -0.20793889367E+01 -0.18311537806E+03  0.27322266460E+02  0.18515418382E+03  0.00000000000E+00 0.  1.
</event>
<event>
 5    1  0.4866530E-005  0.2045222E+02  0.7818608E-02  0.1503661E+00
          4   -1    0    0  502    0 -0.00000000000E+00  0.00000000000E+00  0.11414772716E+03  0.11414772716E+03  0.00000000000E+00 0.  1.
         21   -1    0    0  501  502  0.00000000000E+00 -0.00000000000E+00 -0.15980382524E+02  0.15980382524E+02  0.00000000000E+00 0. -1.
        -13    1    1    2    0    0 -0.19636873370E+02  0.45525781741E+01  0.72708217897E+02  0.75450837488E+02  0.10566000000E+00 0.  1.
         13    1    1    2    0    0  0.25114224279E+02  0.14057205224E+02  0.12700641219E+02  0.31458651135E+02  0.10566000000E+00 0. -1.
          4    1    1    2  501    0 -0.54773509094E+01 -0.18609783398E+02  0.12758485516E+02  0.23218621056E+02  0.00000000000E+00 0.  1.
</event>
<event>
 5    1  0.4866530E-005  0.3940014E+03  0.7818608E-02  0.1012978E+00
          4   -1    0    0  502    0 -0.00000000000E+00  0.00000000000E+00  0.18498628576E+04  0.18498628576E+04  0.00000000000E+00 0.  1.
         21   -1    0    0  501  502  0.00000000000E+00 -0.00000000000E+00 -0.17453079403E+03  0.17453079403E+03  0.00000000000E+00 0.  1.
        -13    1    1    2    0    0 -0.22574150928E+03  0.29898659755E+03  0.17734351257E+03  0.41449119067E+03  0.10566000000E+00 0.  1.
         13    1    1    2    0    0 -0.10103158924E+02  0.10990444672E+03  0.39554382434E+03  0.41065312536E+03  0.10566000000E+00 0. -1.
          4    1    1    2  501    0  0.23584466820E+03 -0.40889104427E+03  0.11024447267E+04  0.11992493356E+04  0.00000000000E+00 0.  1.
</event>
<event>
 5    1  0.4866530E-005  0.4130555E+03  0.7818608E-02  0.9751679E-01
          4   -1    0    0  502    0 -0.00000000000E+00  0.00000000000E+00  0.12891288434E+04  0.12891288434E+04  0.00000000000E+00 0.  1.
         21   -1    0    0  501  502  0.00000000000E+00 -0.00000000000E+00 -0.49736813197E+03  0.49736813197E+03  0.00000000000E+00 0.  1.
        -13    1    1    2    0    0  0.12445540058E+03  0.61200524518E+02  0.58046209681E+03  0.59680055959E+03  0.10566000000E+00 0.  1.
         13    1    1    2    0    0  0.32565697582E+03  0.82460187836E+02  0.52448155498E+03  0.62284272586E+03  0.10566000000E+00 0. -1.
          4    1    1    2  501    0 -0.45011237640E+03 -0.14366071235E+03 -0.31318294034E+03  0.56685368993E+03  0.00000000000E+00 0.  1.
</event>
<event>
 5    1  0.4866530E-005  0.8241318E+02  0.7818608E-02  0.1197469E+00
          4   -1    0    0  502    0 -0.00000000000E+00  0.00000000000E+00  0.25132541459E+03  0.25132541459E+03  0.00000000000E+00 0.  1.
         21   -1    0    0  501  502  0.00000000000E+00 -0.00000000000E+00 -0.43834314589E+02  0.43834314589E+02  0.00000000000E+00 0. -1.
        -13    1    1    2    0    0 -0.79796603217E+02 -0.22748534267E+02  0.97562020648E+02  0.12807557430E+03  0.10566000000E+00 0.  1.
         13    1    1    2    0    0  0.81883831478E+02  0.95456881650E+01  0.12320709075E+03  0.14824331484E+03  0.10566000000E+00 0. -1.
          4    1    1    2  501    0 -0.20872282604E+01  0.13202846102E+02 -0.13278011390E+02  0.18840840041E+02  0.00000000000E+00 0.  1.
</event>
<event>
 5    1  0.4866530E-005  0.1932760E+03  0.7818608E-02  0.1078076E+00
         -4   -1    0    0    0  501 -0.00000000000E+00  0.00000000000E+00  0.86871785665E+02  0.86871785665E+02  0.00000000000E+00 0. -1.
         21   -1    0    0  501  502  0.00000000000E+00 -0.00000000000E+00 -0.14468444955E+04  0.14468444955E+04  0.00000000000E+00 0. -1.
        -13    1    1    2    0    0  0.10434548295E+02  0.13206314845E+03 -0.73101003509E+02  0.15130539599E+03  0.10566000000E+00 0.  1.
         13    1    1    2    0    0  0.18526785277E+03 -0.73481091507E+02 -0.10538145103E+04  0.10724964715E+04  0.10566000000E+00 0. -1.
         -4    1    1    2    0  502 -0.19570240107E+03 -0.58582056945E+02 -0.23305719596E+03  0.30991441362E+03  0.00000000000E+00 0. -1.
</event>
<event>
 5    1  0.4866530E-005  0.4852625E+03  0.7818608E-02  0.9661807E-01
         -4   -1    0    0    0  501 -0.00000000000E+00  0.00000000000E+00  0.30868360773E+04  0.30868360773E+04  0.00000000000E+00 0. -1.
         21   -1    0    0  501  502  0.00000000000E+00 -0.00000000000E+00 -0.15415164066E+03  0.15415164066E+03  0.00000000000E+00 0. -1.
        -13    1    1    2    0    0  0.53578471342E+02 -0.27809701360E+03  0.10365591067E+04  0.10745526485E+04  0.10566000000E+00 0.  1.
         13    1    1    2    0    0 -0.29837601385E+03  0.58404076700E+03  0.12100418480E+04  0.13763477570E+04  0.10566000000E+00 0. -1.
         -4    1    1    2    0  502  0.24479754251E+03 -0.30594375340E+03  0.68608348184E+03  0.79008731234E+03  0.00000000000E+00 0. -1.
</event>
<event>
 5    1  0.4866530E-005  0.4054399E+03  0.7818608E-02  0.9713465E-01
          4   -1    0    0  502    0 -0.00000000000E+00  0.00000000000E+00  0.60779733524E+03  0.60779733524E+03  0.00000000000E+00 0.  1.
         21   -1    0    0  501  502  0.00000000000E+00 -0.00000000000E+00 -0.47067846110E+03  0.47067846110E+03  0.00000000000E+00 0. -1.
        -13    1    1    2    0    0 -0.21068803939E+03 -0.35020579713E+03  0.13768568578E+03  0.43126663390E+03  0.10566000000E+00 0.  1.
         13    1    1    2    0    0  0.18332870000E+03  0.35899347876E+03  0.19623291527E+03  0.44832253817E+03  0.10566000000E+00 0. -1.
          4    1    1    2  501    0  0.27359339390E+02 -0.87876816210E+01 -0.19679972691E+03  0.19888662427E+03  0.00000000000E+00 0.  1.
</event>
<event>
 5    1  0.4866530E-005  0.2576790E+02  0.7818608E-02  0.1442511E+00
         -4   -1    0    0    0  501 -0.00000000000E+00  0.00000000000E+00  0.86163288469E+01  0.86163288469E+01  0.00000000000E+00 0. -1.
         21   -1    0    0  501  502  0.00000000000E+00 -0.00000000000E+00 -0.20672690713E+03  0.20672690713E+03  0.00000000000E+00 0.  1.
        -13    1    1    2    0    0  0.39287755827E+01  0.29166975663E+02 -0.12384344789E+03  0.12729241335E+03  0.10566000000E+00 0.  1.
         13    1    1    2    0    0 -0.15728396184E+02 -0.20279546454E+02 -0.22216117966E+02  0.33944211766E+02  0.10566000000E+00 0. -1.
         -4    1    1    2    0  502  0.11799620601E+02 -0.88874292090E+01 -0.52051012434E+02  0.54106610869E+02  0.00000000000E+00 0. -1.
</event>
<event>
 5    1  0.4866530E-005  0.3197242E+03  0.7818608E-02  0.1012372E+00
         -4   -1    0    0    0  501 -0.00000000000E+00  0.00000000000E+00  0.45955450001E+03  0.45955450001E+03  0.00000000000E+00 0. -1.
         21   -1    0    0  501  502  0.00000000000E+00 -0.00000000000E+00 -0.96236328124E+03  0.96236328124E+03  0.00000000000E+00 0. -1.
        -13    1    1    2    0    0 -0.17822820601E+03 -0.11216734672E+03  0.90358653767E+02  0.22915388839E+03  0.10566000000E+00 0.  1.
         13    1    1    2    0    0 -0.24162294230E+03 -0.17121587585E+03 -0.61834549679E+03  0.68560023844E+03  0.10566000000E+00 0. -1.
         -4    1    1    2    0  502  0.41985114831E+03  0.28338322257E+03  0.25178061791E+02  0.50716365442E+03  0.00000000000E+00 0. -1.
</event>
<event>
 5    1  0.4866530E-005  0.4084977E+02  0.7818608E-02  0.1334298E+00
         21   -1    0    0  501  502  0.00000000000E+00  0.00000000000E+00  0.34672908460E+03  0.34672908460E+03  0.00000000000E+00 0.  1.
         -4   -1    0    0    0  501 -0.00000000000E+00 -0.00000000000E+00 -0.83859272466E+01  0.83859272466E+01  0.00000000000E+00 0. -1.
        -13    1    1    2    0    0 -0.45021796132E+02  0.13484645975E+02  0.14365676307E+03  0.15114917976E+03  0.10566000000E+00 0.  1.
         13    1    1    2    0    0  0.36831737188E+02 -0.74756710036E+01  0.75397484259E+02  0.84245203530E+02  0.10566000000E+00 0. -1.
         -4    1    1    2    0  502  0.81900589443E+01 -0.60089749714E+01  0.11928891002E+03  0.11972062855E+03  0.00000000000E+00 0. -1.
</event>
<event>
 5    1  0.4866530E-005  0.1339461E+03  0.7818608E-02  0.1118120E+00
          4   -1    0    0  502    0 -0.00000000000E+00  0.00000000000E+00  0.99774114405E+02  0.99774114405E+02  0.00000000000E+00 0.  1.
         21   -1    0    0  501  502  0.00000000000E+00 -0.00000000000E+00 -0.94822007544E+03  0.94822007544E+03  0.00000000000E+00 0.  1.
        -13    1    1    2    0    0 -0.12173241723E+03 -0.55138517846E+02  0.17206527586E+02  0.13474091180E+03  0.10566000000E+00 0.  1.
         13    1    1    2    0    0  0.14020438069E+03  0.13872582818E+02 -0.19231950204E+03  0.23840410850E+03  0.10566000000E+00 0. -1.
          4    1    1    2  501    0 -0.18471963461E+02  0.41265935028E+02 -0.67333298658E+03  0.67484916955E+03  0.00000000000E+00 0.  1.
</event>
<event>
 5    1  0.4866530E-005  0.5372595E+03  0.7818608E-02  0.9967479E-01
         -4   -1    0    0    0  501 -0.00000000000E+00  0.00000000000E+00  0.12339116799E+04  0.12339116799E+04  0.00000000000E+00 0. -1.
         21   -1    0    0  501  502  0.00000000000E+00 -0.00000000000E+00 -0.27084018725E+03  0.27084018725E+03  0.00000000000E+00 0. -1.
        -13    1    1    2    0    0 -0.67996669556E+02 -0.28483533279E+02  0.97369074411E+02  0.12212946636E+03  0.10566000000E+00 0.  1.
         13    1    1    2    0    0  0.48003446467E+03 -0.28682453009E+03  0.45317381810E+03  0.71976935119E+03  0.10566000000E+00 0. -1.
         -4    1    1    2    0  502 -0.41203779511E+03  0.31530806337E+03  0.41252860012E+03  0.66285304959E+03  0.00000000000E+00 0. -1.
</event>
<event>
 5    1  0.4866530E-005  0.5756094E+03  0.7818608E-02  0.9649107E-01
         -4   -1    0    0    0  501 -0.00000000000E+00  0.00000000000E+00  0.21238213679E+04  0.21238213679E+04  0.00000000000E+00 0. -1.
         21   -1    0    0  501  502  0.00000000000E+00 -0.00000000000E+00 -0.22944044629E+03  0.22944044629E+03  0.00000000000E+00 0. -1.
        -13    1    1    2    0    0 -0.96813805627E+02  0.14869863450E+03  0.32644774712E+03  0.37155395251E+03  0.10566000000E+00 0.  1.
         13    1    1    2    0    0 -0.54062276835E+03 -0.43412612021E+02  0.52477373830E+03  0.75468213184E+03  0.10566000000E+00 0. -1.
         -4    1    1    2    0  502  0.63743657398E+03 -0.10528602248E+03  0.10431594362E+04  0.12270257298E+04  0.00000000000E+00 0. -1.
</event>
<event>
 5    1  0.4866530E-005  0.6451598E+02  0.7818608E-02  0.1241895E+00
         21   -1    0    0  501  502  0.00000000000E+00  0.00000000000E+00  0.25725636252E+03  0.25725636252E+03  0.00000000000E+00 0. -1.
          4   -1    0    0  502    0 -0.00000000000E+00 -0.00000000000E+00 -0.20097595630E+03  0.20097595630E+03  0.00000000000E+00 0.  1.
        -13    1    1    2    0    0  0.63818585235E+02 -0.10924718744E+02 -0.19083887292E+03  0.20152331846E+03  0.10566000000E+00 0.  1.
         13    1    1    2    0    0 -0.56393536264E+02  0.11998434106E+00  0.20177963208E+03  0.20951199587E+03  0.10566000000E+00 0. -1.
          4    1    1    2  501    0 -0.74250489709E+01  0.10804734403E+02  0.45339647065E+02  0.47197004499E+02  0.00000000000E+00 0.  1.
</event>
<event>
 5    1  0.4866530E-005  0.4653141E+03  0.7818608E-02  0.9557419E-01
         21   -1    0    0  501  502  0.00000000000E+00  0.00000000000E+00  0.26158160493E+03  0.26158160493E+03  0.00000000000E+00 0. -1.
          4   -1    0    0  502    0 -0.00000000000E+00 -0.00000000000E+00 -0.17143435620E+04  0.17143435620E+04  0.00000000000E+00 0.  1.
        -13    1    1    2    0    0 -0.50837915334E+02 -0.45442656956E+03 -0.76615565765E+03  0.89223455642E+03  0.10566000000E+00 0.  1.
         13    1    1    2    0    0  0.39010740783E+02  0.47189844810E+03 -0.82094057142E+03  0.94770956320E+03  0.10566000000E+00 0. -1.
          4    1    1    2  501    0  0.11827174551E+02 -0.17471878543E+02  0.13433427200E+03  0.13598104732E+03  0.00000000000E+00 0.  1.
</event>
<event>
 5    1  0.4866530E-005  0.3555430E+03  0.7818608E-02  0.9941481E-01
         21   -1    0    0  501  502  0.00000000000E+00  0.00000000000E+00  0.31100299576E+03  0.31100299576E+03  0.00000000000E+00 0. -1.
         -4   -1    0    0    0  501 -0.00000000000E+00 -0.00000000000E+00 -0.18019253191E+04  0.18019253191E+04  0.00000000000E+00 0. -1.
        -13    1    1    2    0    0  0.11544142169E+03  0.25203935588E+03 -0.85500853800E+03  0.89882710794E+03  0.10566000000E+00 0.  1.
         13    1    1    2    0    0 -0.26897197856E+02 -0.56262510161E+03 -0.68563413348E+03  0.88733569768E+03  0.10566000000E+00 0. -1.
         -4    1    1    2    0  502 -0.88544223835E+02  0.31058574573E+03  0.49720348129E+02  0.32676550926E+03  0.00000000000E+00 0. -1.
</event>
<event>
 5    1  0.4866530E-005  0.4465922E+03  0.7818608E-02  0.9883660E-01
         21   -1    0    0  501  502  0.00000000000E+00  0.00000000000E+00  0.22833744495E+03  0.22833744495E+03  0.00000000000E+00 0.  1.
          4   -1    0    0  502    0 -0.00000000000E+00 -0.00000000000E+00 -0.16090609617E+04  0.16090609617E+04  0.00000000000E+00 0.  1.
        -13    1    1    2    0    0 -0.34295637324E+03  0.23692568332E+03 -0.94163777310E+03  0.10297740336E+04  0.10566000000E+00 0.  1.
         13    1    1    2    0    0 -0.10896020465E+03 -0.13003694852E+03 -0.25884405937E+03  0.30948698262E+03  0.10566000000E+00 0. -1.
          4    1    1    2  501    0  0.45191657789E+03 -0.10688873480E+03 -0.18024168426E+03  0.49813739043E+03  0.00000000000E+00 0.  1.
</event>
<event>
 5    1  0.4866530E-005  0.6751215E+03  0.7818608E-02  0.9159870E-01
         21   -1    0    0  501  502  0.00000000000E+00  0.00000000000E+00  0.67673453973E+03  0.67673453973E+03  0.00000000000E+00 0. -1.
         -4   -1    0    0    0  501 -0.00000000000E+00 -0.00000000000E+00 -0.16229156922E+04  0.16229156922E+04  0.00000000000E+00 0. -1.
        -13    1    1    2    0    0 -0.31101909395E+03  0.63519494551E+03 -0.80080416982E+03  0.10684066759E+04  0.10566000000E+00 0.  1.
         13    1    1    2    0    0 -0.18011424545E+03 -0.69535557996E+03 -0.10479271045E+02  0.71838036602E+03  0.10566000000E+00 0. -1.
         -4    1    1    2    0  502  0.49113333940E+03  0.60160634450E+02 -0.13489771155E+03  0.51286318994E+03  0.00000000000E+00 0. -1.
</event>
<event>
 5    1  0.4866530E-005  0.3331347E+03  0.7818608E-02  0.9944967E-01
         21   -1    0    0  501  502  0.00000000000E+00  0.00000000000E+00  0.23078326293E+03  0.23078326293E+03  0.00000000000E+00 0. -1.
          4   -1    0    0  502    0 -0.00000000000E+00 -0.00000000000E+00 -0.14026845565E+04  0.14026845565E+04  0.00000000000E+00 0.  1.
        -13    1    1    2    0    0  0.31656708007E+03 -0.14737576069E+03 -0.11892846699E+04  0.12394887527E+04  0.10566000000E+00 0.  1.
         13    1    1    2    0    0 -0.26127462806E+03  0.52110496478E+02 -0.40607415066E+02  0.26949751100E+03  0.10566000000E+00 0. -1.
          4    1    1    2  501    0 -0.55292452007E+02  0.95265264217E+02  0.57990791385E+02  0.12448155566E+03  0.00000000000E+00 0.  1.
</event>
<event>
 5    1  0.4866530E-005  0.4077832E+03  0.7818608E-02  0.9886638E-01
         21   -1    0    0  501  502  0.00000000000E+00  0.00000000000E+00  0.17786964080E+03  0.17786964080E+03  0.00000000000E+00 0.  1.
          4   -1    0    0  502    0 -0.00000000000E+00 -0.00000000000E+00 -0.23099466445E+04  0.23099466445E+04  0.00000000000E+00 0.  1.
        -13    1    1    2    0    0 -0.38660717252E+03 -0.51807780810E+02 -0.12601120459E+04  0.13191025477E+04  0.10566000000E+00 0.  1.
         13    1    1    2    0    0  0.55076219214E+02 -0.21364496650E+03 -0.65628450099E+03  0.69237772858E+03  0.10566000000E+00 0. -1.
          4    1    1    2  501    0  0.33153095330E+03  0.26545274731E+03 -0.21568045684E+03  0.47633600905E+03  0.00000000000E+00 0.  1.
</event>
<event>
 5    1  0.4866530E-005  0.7195788E+02  0.7818608E-02  0.1221682E+00
          4   -1    0    0  502    0 -0.00000000000E+00  0.00000000000E+00  0.27697761330E+02  0.27697761330E+02  0.00000000000E+00 0.  1.
         21   -1    0    0  501  502  0.00000000000E+00 -0.00000000000E+00 -0.42945227537E+03  0.42945227537E+03  0.00000000000E+00 0. -1.
        -13    1    1    2    0    0  0.69048536293E+02  0.13347366639E+02 -0.40509860088E+02  0.81159796013E+02  0.10566000000E+00 0.  1.
         13    1    1    2    0    0 -0.73761259225E+02 -0.27524795934E+02 -0.21458916903E+03  0.22857572134E+03  0.10566000000E+00 0. -1.
          4    1    1    2  501    0  0.47127229314E+01  0.14177429295E+02 -0.14665548492E+03  0.14741451936E+03  0.00000000000E+00 0.  1.
</event>
<event>
 5    1  0.4866530E-005  0.4535173E+03  0.7818608E-02  0.9586121E-01
         21   -1    0    0  501  502  0.00000000000E+00  0.00000000000E+00  0.32337783224E+03  0.32337783224E+03  0.00000000000E+00 0.  1.
          4   -1    0    0  502    0 -0.00000000000E+00 -0.00000000000E+00 -0.33455197285E+04  0.33455197285E+04  0.00000000000E+00 0.  1.
        -13    1    1    2    0    0 -0.43105842249E+03 -0.15162824344E+03 -0.99580658505E+03  0.10956428496E+04  0.10566000000E+00 0.  1.
         13    1    1    2    0    0  0.37570336475E+03  0.26032149883E+03 -0.22620940326E+04  0.23078105911E+04  0.10566000000E+00 0. -1.
          4    1    1    2  501    0  0.55355057748E+02 -0.10869325540E+03  0.23575872136E+03  0.26544412008E+03  0.00000000000E+00 0.  1.
</event>
<event>
 5    1  0.4866530E-005  0.3709062E+03  0.7818608E-02  0.9836792E-01
          4   -1    0    0  502    0 -0.00000000000E+00  0.00000000000E+00  0.17277557248E+04  0.17277557248E+04  0.00000000000E+00 0.  1.
         21   -1    0    0  501  502  0.00000000000E+00 -0.00000000000E+00 -0.32702785839E+03  0.32702785839E+03  0.00000000000E+00 0.  1.
        -13    1    1    2    0    0  0.28434277527E+03  0.23655150574E+03 -0.54678514411E+02  0.37389461058E+03  0.10566000000E+00 0.  1.
         13    1    1    2    0    0 -0.31562352881E+03  0.21792662596E+03  0.61021271090E+03  0.72074252681E+03  0.10566000000E+00 0. -1.
          4    1    1    2  501    0  0.31280753542E+02 -0.45447813170E+03  0.84519366995E+03  0.96014644584E+03  0.00000000000E+00 0.  1.
</event>
<event>
 5    1  0.4866530E-005  0.3413588E+02  0.7818608E-02  0.1412813E+00
         21   -1    0    0  501  502  0.00000000000E+00  0.00000000000E+00  0.55947007202E+03  0.55947007202E+03  0.00000000000E+00 0. -1.
         -4   -1    0    0    0  501 -0.00000000000E+00 -0.00000000000E+00 -0.18108298922E+02  0.18108298922E+02  0.00000000000E+00 0. -1.
        -13    1    1    2    0    0 -0.17523522359E+02  0.35095559213E+01  0.75076930782E+01  0.19384721768E+02  0.10566000000E+00 0.  1.
         13    1    1    2    0    0  0.49668633085E+02 -0.12225654757E+02  0.44768968746E+02  0.67975815357E+02  0.10566000000E+00 0. -1.
         -4    1    1    2    0  502 -0.32145110726E+02  0.87160988354E+01  0.48908511127E+03  0.49021783381E+03  0.00000000000E+00 0. -1.
</event>
<event>
 5    1  0.4866530E-005  0.6148642E+03  0.7818608E-02  0.9256572E-01
         -4   -1    0    0    0  501 -0.00000000000E+00  0.00000000000E+00  0.30007465256E+04  0.30007465256E+04  0.00000000000E+00 0. -1.
         21   -1    0    0  501  502  0.00000000000E+00 -0.00000000000E+00 -0.12271437120E+04  0.12271437120E+04  0.00000000000E+00 0. -1.
        -13    1    1    2    0    0  0.47495705424E+03  0.38731082818E+03  0.25455470678E+04  0.26182825987E+04  0.10566000000E+00 0.  1.
         13    1    1    2    0    0 -0.48799826322E+03 -0.39504406906E+03  0.18343909361E+03  0.65410399298E+03  0.10566000000E+00 0. -1.
         -4    1    1    2    0  502  0.13041208986E+02  0.77332408817E+01 -0.95538334783E+03  0.95550364597E+03  0.00000000000E+00 0. -1.
</event>
<event>
 5    1  0.4866530E-005  0.3803250E+03  0.7818608E-02  0.1018349E+00
          4   -1    0    0  502    0 -0.00000000000E+00  0.00000000000E+00  0.10563184590E+04  0.10563184590E+04  0.00000000000E+00 0.  1.
         21   -1    0    0  501  502  0.00000000000E+00 -0.00000000000E+00 -0.38570801639E+03  0.38570801639E+03  0.00000000000E+00 0.  1.
        -13    1    1    2    0    0 -0.38878933723E+03  0.25557243144E+03  0.52078528487E+03  0.69834929695E+03  0.10566000000E+00 0.  1.
         13    1    1    2    0    0  0.73540308343E+02 -0.72761530591E+02  0.32375252442E+03  0.33987957502E+03  0.10566000000E+00 0. -1.
          4    1    1    2  501    0  0.31524902888E+03 -0.18281090085E+03 -0.17392736665E+03  0.40379760345E+03  0.00000000000E+00 0.  1.
</event>
<event>
 5    1  0.4866530E-005  0.3512305E+03  0.7818608E-02  0.9881550E-01
         21   -1    0    0  501  502  0.00000000000E+00  0.00000000000E+00  0.27293789975E+03  0.27293789975E+03  0.00000000000E+00 0. -1.
          4   -1    0    0  502    0 -0.00000000000E+00 -0.00000000000E+00 -0.11998875594E+04  0.11998875594E+04  0.00000000000E+00 0.  1.
        -13    1    1    2    0    0  0.21983053154E+03 -0.28288689153E+03 -0.53669816056E+03  0.64528705451E+03  0.10566000000E+00 0.  1.
         13    1    1    2    0    0 -0.41552028381E+03  0.50379098937E+02 -0.28305705472E+03  0.50528849903E+03  0.10566000000E+00 0. -1.
          4    1    1    2  501    0  0.19568975226E+03  0.23250779260E+03 -0.10719444438E+03  0.32224990561E+03  0.00000000000E+00 0.  1.
</event>
<event>
 5    1  0.4866530E-005  0.3192124E+03  0.7818608E-02  0.9996758E-01
         -4   -1    0    0    0  501 -0.00000000000E+00  0.00000000000E+00  0.22769202087E+04  0.22769202087E+04  0.00000000000E+00 0. -1.
         21   -1    0    0  501  502  0.00000000000E+00 -0.00000000000E+00 -0.82951505557E+02  0.82951505557E+02  0.00000000000E+00 0. -1.
        -13    1    1    2    0    0  0.16844418433E+03 -0.14337544398E+03  0.31957454779E+03  0.38866163167E+03  0.10566000000E+00 0.  1.
         13    1    1    2    0    0 -0.33298777556E+03  0.19384613833E+03  0.16119904888E+04  0.16573987242E+04  0.10566000000E+00 0. -1.
         -4    1    1    2    0  502  0.16454359123E+03 -0.50470694354E+02  0.26240366661E+03  0.31381135839E+03  0.00000000000E+00 0. -1.
</event>
<event>
 5    1  0.4866530E-005  0.5160057E+03  0.7818608E-02  0.9734572E-01
         21   -1    0    0  501  502  0.00000000000E+00  0.00000000000E+00  0.81997421011E+03  0.81997421011E+03  0.00000000000E+00 0.  1.
          4   -1    0    0  502    0 -0.00000000000E+00 -0.00000000000E+00 -0.46220151170E+03  0.46220151170E+03  0.00000000000E+00 0.  1.
        -13    1    1    2    0    0  0.19819072339E+03 -0.48682685558E+03  0.16170507452E+03  0.54993498928E+03  0.10566000000E+00 0.  1.
         13    1    1    2    0    0 -0.17936269914E+03 -0.35270662859E+02  0.42012257168E+02  0.18756342505E+03  0.10566000000E+00 0. -1.
          4    1    1    2  501    0 -0.18828024249E+02  0.52209751844E+03  0.15405536673E+03  0.54467730747E+03  0.00000000000E+00 0.  1.
</event>
<event>
 5    1  0.4866530E-005  0.4892905E+03  0.7818608E-02  0.1005130E+00
         -4   -1    0    0    0  501 -0.00000000000E+00  0.00000000000E+00  0.45316311833E+03  0.45316311833E+03  0.00000000000E+00 0. -1.
         21   -1    0    0  501  502  0.00000000000E+00 -0.00000000000E+00 -0.82425805590E+03  0.82425805590E+03  0.00000000000E+00 0. -1.
        -13    1    1    2    0    0 -0.12525559365E+02  0.73130007178E+02  0.14440249851E+03  0.16234833023E+03  0.10566000000E+00 0.  1.
         13    1    1    2    0    0 -0.11532729133E+03 -0.50623294830E+03 -0.38064446858E+03  0.64378754625E+03  0.10566000000E+00 0. -1.
         -4    1    1    2    0  502  0.12785285070E+03  0.43310294112E+03 -0.13485296749E+03  0.47128529776E+03  0.00000000000E+00 0. -1.
</event>
<event>
 5    1  0.4866530E-005  0.4910776E+03  0.7818608E-02  0.9497745E-01
         21   -1    0    0  501  502  0.00000000000E+00  0.00000000000E+00  0.26757040219E+03  0.26757040219E+03  0.00000000000E+00 0. -1.
          4   -1    0    0  502    0 -0.00000000000E+00 -0.00000000000E+00 -0.14217712115E+04  0.14217712115E+04  0.00000000000E+00 0.  1.
        -13    1    1    2    0    0 -0.43615397813E+03  0.23800007752E+03 -0.68897641323E+03  0.84944854977E+03  0.10566000000E+00 0.  1.
         13    1    1    2    0    0  0.44740325131E+03 -0.18924387536E+03 -0.55472062879E+03  0.73735873278E+03  0.10566000000E+00 0. -1.
          4    1    1    2  501    0 -0.11249273177E+02 -0.48756202165E+02  0.89496232700E+02  0.10253433115E+03  0.00000000000E+00 0.  1.
</event>
<event>
 5    1  0.4866530E-005  0.5307246E+03  0.7818608E-02  0.9413058E-01
          4   -1    0    0  502    0 -0.00000000000E+00  0.00000000000E+00  0.14645489499E+04  0.14645489499E+04  0.00000000000E+00 0.  1.
         21   -1    0    0  501  502  0.00000000000E+00 -0.00000000000E+00 -0.53078457535E+03  0.53078457535E+03  0.00000000000E+00 0. -1.
        -13    1    1    2    0    0  0.74490627198E+03 -0.18357844365E+03  0.38776570136E+03  0.85962122434E+03  0.10566000000E+00 0.  1.
         13    1    1    2    0    0 -0.44432657142E+03  0.11465170597E+03  0.66263348507E+03  0.80601132899E+03  0.10566000000E+00 0. -1.
          4    1    1    2  501    0 -0.30057970056E+03  0.68926737684E+02 -0.11663481187E+03  0.32970097194E+03  0.00000000000E+00 0.  1.
</event>
<event>
 5    1  0.4866530E-005  0.1733920E+03  0.7818608E-02  0.1080085E+00
         21   -1    0    0  501  502  0.00000000000E+00  0.00000000000E+00  0.14604260798E+03  0.14604260798E+03  0.00000000000E+00 0. -1.
          4   -1    0    0  502    0 -0.00000000000E+00 -0.00000000000E+00 -0.67969606011E+03  0.67969606011E+03  0.00000000000E+00 0.  1.
        -13    1    1    2    0    0  0.17776753696E+03 -0.42833609316E+02 -0.58310330272E+03  0.61110186392E+03  0.10566000000E+00 0.  1.
         13    1    1    2    0    0 -0.10909376263E+03 -0.24196603691E+01  0.70282906071E+02  0.12979600090E+03  0.10566000000E+00 0. -1.
          4    1    1    2  501    0 -0.68673774328E+02  0.45253269685E+02 -0.20833055488E+02  0.84840803265E+02  0.00000000000E+00 0.  1.
</event>
<event>
 5    1  0.4866530E-005  0.4675925E+03  0.7818608E-02  0.9670857E-01
         -4   -1    0    0    0  501 -0.00000000000E+00  0.00000000000E+00  0.17111527933E+04  0.17111527933E+04  0.00000000000E+00 0. -1.
         21   -1    0    0  501  502  0.00000000000E+00 -0.00000000000E+00 -0.32328851362E+03  0.32328851362E+03  0.00000000000E+00 0. -1.
        -13    1    1    2    0    0 -0.30075686679E+03 -0.59863299146E+02  0.58836265884E+03  0.66348243156E+03  0.10566000000E+00 0.  1.
         13    1    1    2    0    0 -0.49056184092E+02  0.42437970899E+03  0.75024469726E+03  0.86334915505E+03  0.10566000000E+00 0. -1.
         -4    1    1    2    0  502  0.34981305088E+03 -0.36451640984E+03  0.49256923564E+02  0.50760972029E+03  0.00000000000E+00 0. -1.
</event>
<event>
 5    1  0.4866530E-005  0.4164144E+02  0.7818608E-02  0.1330142E+00
         -4   -1    0    0    0  501 -0.00000000000E+00  0.00000000000E+00  0.30995937900E+03  0.30995937900E+03  0.00000000000E+00 0. -1.
         21   -1    0    0  501  502  0.00000000000E+00 -0.00000000000E+00 -0.88827218873E+01  0.88827218873E+01  0.00000000000E+00 0.  1.
        -13    1    1    2    0    0 -0.42748583314E+02 -0.25281883251E+02  0.11838410447E+03  0.12837999202E+03  0.10566000000E+00 0.  1.
         13    1    1    2    0    0  0.32446174614E+02  0.20061679961E+02  0.16486120180E+03  0.16921717488E+03  0.10566000000E+00 0. -1.
         -4    1    1    2    0  502  0.10302408700E+02  0.52202032894E+01  0.17831350845E+02  0.21244933993E+02  0.00000000000E+00 0. -1.
</event>
<event>
 5    1  0.4866530E-005  0.6117368E+02  0.7818608E-02  0.1251986E+00
         21   -1    0    0  501  502  0.00000000000E+00  0.00000000000E+00  0.54667747349E+02  0.54667747349E+02  0.00000000000E+00 0. -1.
         -4   -1    0    0    0  501 -0.00000000000E+00 -0.00000000000E+00 -0.23228116000E+03  0.23228116000E+03  0.00000000000E+00 0. -1.
        -13    1    1    2    0    0 -0.44525473296E+02 -0.39853108400E+02 -0.12688678713E+03  0.14025354161E+03  0.10566000000E+00 0.  1.
         13    1    1    2    0    0  0.45039843659E+02  0.56154333850E+02  0.19516108354E+02  0.74584089297E+02  0.10566000000E+00 0. -1.
         -4    1    1    2    0  502 -0.51437036242E+00 -0.16301225450E+02 -0.70242733880E+02  0.72111276448E+02  0.00000000000E+00 0. -1.
</event>
<event>
 5    1  0.4866530E-005  0.4218674E+03  0.7818608E-02  0.9945812E-01
         -4   -1    0    0    0  501 -0.00000000000E+00  0.00000000000E+00  0.11686495694E+04  0.11686495694E+04  0.00000000000E+00 0. -1.
         21   -1    0    0  501  502  0.00000000000E+00 -0.00000000000E+00 -0.29834217341E+03  0.29834217341E+03  0.00000000000E+00 0. -1.
        -13    1    1    2    0    0 -0.16345030320E+03 -0.65617721416E+01  0.55738215899E+02  0.17281729759E+03  0.10566000000E+00 0.  1.
         13    1    1    2    0    0 -0.23594208591E+03  0.22382992476E+03  0.77177641272E+03  0.83750065404E+03  0.10566000000E+00 0. -1.
         -4    1    1    2    0  502  0.39939238911E+03 -0.21726815262E+03  0.42792767369E+02  0.45667379119E+03  0.00000000000E+00 0. -1.
</event>
<event>
 5    1  0.4866530E-005  0.3601645E+02  0.7818608E-02  0.1362227E+00
         21   -1    0    0  501  502  0.00000000000E+00  0.00000000000E+00  0.11833050877E+03  0.11833050877E+03  0.00000000000E+00 0.  1.
          4   -1    0    0  502    0 -0.00000000000E+00 -0.00000000000E+00 -0.18312382549E+03  0.18312382549E+03  0.00000000000E+00 0.  1.
        -13    1    1    2    0    0 -0.75070987968E+01 -0.37510976863E+02 -0.12076225670E+03  0.12667661081E+03  0.10566000000E+00 0.  1.
         13    1    1    2    0    0  0.29080300763E+02  0.23555471553E+02 -0.51847012087E+02  0.63942536382E+02  0.10566000000E+00 0. -1.
          4    1    1    2  501    0 -0.21573201966E+02  0.13955505310E+02  0.10781595207E+03  0.11083518707E+03  0.00000000000E+00 0.  1.
</event>
<event>
 5    1  0.4866530E-005  0.4150488E+02  0.7818608E-02  0.1330852E+00
          4   -1    0    0  502    0 -0.00000000000E+00  0.00000000000E+00  0.27586235035E+03  0.27586235035E+03  0.00000000000E+00 0.  1.
         21   -1    0    0  501  502  0.00000000000E+00 -0.00000000000E+00 -0.12496123645E+02  0.12496123645E+02  0.00000000000E+00 0. -1.
        -13    1    1    2    0    0  0.23398417152E+02  0.44211083975E+02  0.19412469359E+03  0.20046574195E+03  0.10566000000E+00 0.  1.
         13    1    1    2    0    0 -0.21697187491E+02 -0.21245150100E+02  0.46427506906E+02  0.55476561802E+02  0.10566000000E+00 0. -1.
          4    1    1    2  501    0 -0.17012296609E+01 -0.22965933875E+02  0.22814026207E+02  0.32416170238E+02  0.00000000000E+00 0.  1.
</event>
<event>
 5    1  0.4866530E-005  0.4374573E+03  0.7818608E-02  0.9888243E-01
         21   -1    0    0  501  502  0.00000000000E+00  0.00000000000E+00  0.89260020854E+03  0.89260020854E+03  0.00000000000E+00 0.  1.
          4   -1    0    0  502    0 -0.00000000000E+00 -0.00000000000E+00 -0.51310941645E+03  0.51310941645E+03  0.00000000000E+00 0.  1.
        -13    1    1    2    0    0 -0.24793801807E+03  0.30628871541E+03  0.42211279945E+03  0.57746451373E+03  0.10566000000E+00 0.  1.
         13    1    1    2    0    0 -0.60028467863E+02  0.16730597501E+03 -0.17347114321E+03  0.24836858682E+03  0.10566000000E+00 0. -1.
          4    1    1    2  501    0  0.30796648594E+03 -0.47359469042E+03  0.13084913585E+03  0.57987652445E+03  0.00000000000E+00 0.  1.
</event>
<event>
 5    1  0.5158405E-005  0.4491469E+03  0.7818608E-02  0.9709526E-01
         21   -1    0    0  501  502  0.00000000000E+00  0.00000000000E+00  0.51550610257E+03  0.51550610257E+03  0.00000000000E+00 0. -1.
         -4   -1    0    0    0  501 -0.00000000000E+00 -0.00000000000E+00 -0.10493804492E+04  0.10493804492E+04  0.00000000000E+00 0. -1.
        -13    1    1    2    0    0  0.29782993880E+03  0.51986519761E+02 -0.41921095257E+03  0.51685888268E+03  0.10566000000E+00 0.  1.
         13    1    1    2    0    0  0.17562430004E+03  0.18706269579E+03 -0.37722259982E+03  0.45621622932E+03  0.10566000000E+00 0. -1.
         -4    1    1    2    0  502 -0.47345423883E+03 -0.23904921555E+03  0.26255920575E+03  0.59181143977E+03  0.00000000000E+00 0. -1.
</event>
<event>
 5    1  0.4866530E-005  0.2993520E+03  0.7818608E-02  0.1064609E+00
          4   -1    0    0  502    0 -0.00000000000E+00  0.00000000000E+00  0.18070983567E+04  0.18070983567E+04  0.00000000000E+00 0.  1.
         21   -1    0    0  501  502  0.00000000000E+00 -0.00000000000E+00 -0.16144966496E+03  0.16144966496E+03  0.00000000000E+00 0.  1.
        -13    1    1    2    0    0 -0.21509351311E+03 -0.20212522648E+03  0.21004178566E+02  0.29590710239E+03  0.10566000000E+00 0.  1.
         13    1    1    2    0    0 -0.51566203345E+02 -0.91757372563E+01  0.13910965567E+03  0.14864311268E+03  0.10566000000E+00 0. -1.
          4    1    1    2  501    0  0.26665971646E+03  0.21130096374E+03  0.14855348575E+04  0.15239978066E+04  0.00000000000E+00 0.  1.
</event>
<event>
 5    1  0.4866530E-005  0.5018272E+03  0.7818608E-02  0.9753246E-01
         -4   -1    0    0    0  501 -0.00000000000E+00  0.00000000000E+00  0.17085479248E+04  0.17085479248E+04  0.00000000000E+00 0. -1.
         21   -1    0    0  501  502  0.00000000000E+00 -0.00000000000E+00 -0.23411967928E+03  0.23411967928E+03  0.00000000000E+00 0. -1.
        -13    1    1    2    0    0 -0.16270018197E+03 -0.90806303275E+02  0.58628052296E+02  0.19533149671E+03  0.10566000000E+00 0.  1.
         13    1    1    2    0    0  0.45439663077E+03 -0.28646116150E+03  0.62746039447E+03  0.82597993492E+03  0.10566000000E+00 0. -1.
         -4    1    1    2    0  502 -0.29169644880E+03  0.37726746478E+03  0.78833979876E+03  0.92135617246E+03  0.00000000000E+00 0. -1.
</event>
<event>
 5    1  0.5217603E-005  0.4460740E+03  0.7818608E-02  0.1016658E+00
         21   -1    0    0  501  502  0.00000000000E+00  0.00000000000E+00  0.32317101090E+03  0.32317101090E+03  0.00000000000E+00 0.  1.
          4   -1    0    0  502    0 -0.00000000000E+00 -0.00000000000E+00 -0.96112385363E+03  0.96112385363E+03  0.00000000000E+00 0.  1.
        -13    1    1    2    0    0 -0.25846590758E+03 -0.32996431596E+03 -0.51899715874E+03  0.66711253708E+03  0.10566000000E+00 0.  1.
         13    1    1    2    0    0 -0.66989140525E+02  0.93913101045E+01 -0.14459927075E+03  0.15963928689E+03  0.10566000000E+00 0. -1.
          4    1    1    2  501    0  0.32545504811E+03  0.32057300585E+03  0.25643586767E+02  0.45754304056E+03  0.00000000000E+00 0.  1.
</event>
<event>
 5    1  0.4866530E-005  0.6357706E+02  0.7818608E-02  0.1244660E+00
          4   -1    0    0  502    0 -0.00000000000E+00  0.00000000000E+00  0.24101266266E+02  0.24101266266E+02  0.00000000000E+00 0.  1.
         21   -1    0    0  501  502  0.00000000000E+00 -0.00000000000E+00 -0.29142244719E+03  0.29142244719E+03  0.00000000000E+00 0. -1.
        -13    1    1    2    0    0 -0.22817182517E+02 -0.64430291966E+02 -0.80172130625E+02  0.10535401290E+03  0.10566000000E+00 0.  1.
         13    1    1    2    0    0  0.14511661765E+02  0.57856659207E+02 -0.67606988306E+02  0.90159288893E+02  0.10566000000E+00 0. -1.
          4    1    1    2  501    0  0.83055207522E+01  0.65736327585E+01 -0.11954206200E+03  0.12001041167E+03  0.00000000000E+00 0.  1.
</event>
<event>
 5    1  0.4866530E-005  0.2768468E+03  0.7818608E-02  0.1017348E+00
         21   -1    0    0  501  502  0.00000000000E+00  0.00000000000E+00  0.59135364406E+02  0.59135364406E+02  0.00000000000E+00 0. -1.
          4   -1    0    0  502    0 -0.00000000000E+00 -0.00000000000E+00 -0.21985339698E+04  0.21985339698E+04  0.00000000000E+00 0.  1.
        -13    1    1    2    0    0 -0.99169345150E+02 -0.28129097884E+03 -0.14087517118E+04  0.14399793646E+04  0.10566000000E+00 0.  1.
         13    1    1    2    0    0  0.11325454586E+03  0.22192398766E+03 -0.71131101997E+03  0.75368443446E+03  0.10566000000E+00 0. -1.
          4    1    1    2  501    0 -0.14085200710E+02  0.59366991178E+02 -0.19335873619E+02  0.64005535144E+02  0.00000000000E+00 0.  1.
</event>
<event>
 5    1  0.5257153E-005  0.4586991E+03  0.7818608E-02  0.1005814E+00
         21   -1    0    0  501  502  0.00000000000E+00  0.00000000000E+00  0.15441369105E+03  0.15441369105E+03  0.00000000000E+00 0.  1.
          4   -1    0    0  502    0 -0.00000000000E+00 -0.00000000000E+00 -0.20653692689E+04  0.20653692689E+04  0.00000000000E+00 0.  1.
        -13    1    1    2    0    0 -0.17993862936E+03 -0.37634894653E+03 -0.11546477094E+04  0.12276920558E+04  0.10566000000E+00 0.  1.
         13    1    1    2    0    0 -0.85595800593E+02 -0.20748015132E+02 -0.36234912525E+03  0.37289947834E+03  0.10566000000E+00 0. -1.
          4    1    1    2  501    0  0.26553442995E+03  0.39709696166E+03 -0.39395874319E+03  0.61919142580E+03  0.00000000000E+00 0.  1.
</event>
<event>
 5    1  0.4866530E-005  0.6102831E+02  0.7818608E-02  0.1252441E+00
         -4   -1    0    0    0  501 -0.00000000000E+00  0.00000000000E+00  0.25813687422E+02  0.25813687422E+02  0.00000000000E+00 0. -1.
         21   -1    0    0  501  502  0.00000000000E+00 -0.00000000000E+00 -0.43191056950E+03  0.43191056950E+03  0.00000000000E+00 0.  1.
        -13    1    1    2    0    0 -0.78376203642E+01  0.43377381472E+02 -0.20353353738E+03  0.20825210088E+03  0.10566000000E+00 0.  1.
         13    1    1    2    0    0  0.18432270415E+02 -0.62204097201E+02 -0.23335041718E+02  0.68946599896E+02  0.10566000000E+00 0. -1.
         -4    1    1    2    0  502 -0.10594650051E+02  0.18826715729E+02 -0.17922830298E+03  0.18052555615E+03  0.00000000000E+00 0. -1.
</event>
<event>
 5    1  0.4866530E-005  0.1926946E+03  0.7818608E-02  0.1065263E+00
         -4   -1    0    0    0  501 -0.00000000000E+00  0.00000000000E+00  0.67634938720E+02  0.67634938720E+02  0.00000000000E+00 0. -1.
         21   -1    0    0  501  502  0.00000000000E+00 -0.00000000000E+00 -0.13727891292E+04  0.13727891292E+04  0.00000000000E+00 0.  1.
        -13    1    1    2    0    0 -0.75798577963E+02 -0.17741762649E+03 -0.77837618635E+03  0.80193013240E+03  0.10566000000E+00 0.  1.
         13    1    1    2    0    0  0.64369633785E+02  0.18164348740E+03 -0.11071248110E+03  0.22225001890E+03  0.10566000000E+00 0. -1.
         -4    1    1    2    0  502  0.11428944179E+02 -0.42258609085E+01 -0.41606552307E+03  0.41624391666E+03  0.00000000000E+00 0. -1.
</event>
<event>
 5    1  0.4866530E-005  0.1894227E+03  0.7818608E-02  0.1071768E+00
         -4   -1    0    0    0  501 -0.00000000000E+00  0.00000000000E+00  0.61005424533E+03  0.61005424533E+03  0.00000000000E+00 0. -1.
         21   -1    0    0  501  502  0.00000000000E+00 -0.00000000000E+00 -0.22210154039E+03  0.22210154039E+03  0.00000000000E+00 0. -1.
        -13    1    1    2    0    0  0.14282923168E+03  0.89013637150E+02  0.14377727530E+03  0.22134934623E+03  0.10566000000E+00 0.  1.
         13    1    1    2    0    0 -0.77620494814E+02 -0.26008459313E+03  0.31383567115E+03  0.41492382006E+03  0.10566000000E+00 0. -1.
         -4    1    1    2    0  502 -0.65208736865E+02  0.17107095598E+03 -0.69660241516E+02  0.19588261942E+03  0.00000000000E+00 0. -1.
</event>
<event>
 5    1  0.4866530E-005  0.6604823E+02  0.7818608E-02  0.1237494E+00
         21   -1    0    0  501  502  0.00000000000E+00  0.00000000000E+00  0.77734999130E+02  0.77734999130E+02  0.00000000000E+00 0. -1.
         -4   -1    0    0    0  501 -0.00000000000E+00 -0.00000000000E+00 -0.63768519010E+03  0.63768519010E+03  0.00000000000E+00 0. -1.
        -13    1    1    2    0    0 -0.54549693903E+02  0.15802214619E+02 -0.31725168658E+03  0.32229493153E+03  0.10566000000E+00 0.  1.
         13    1    1    2    0    0  0.80141129193E+02 -0.54626279073E+02 -0.30233047369E+03  0.31750646834E+03  0.10566000000E+00 0. -1.
         -4    1    1    2    0  502 -0.25591435291E+02  0.38824064454E+02  0.59631969297E+02  0.75618789353E+02  0.00000000000E+00 0. -1.
</event>
<event>
 5    1  0.4866530E-005  0.1666786E+03  0.7818608E-02  0.1142736E+00
         21   -1    0    0  501  502  0.00000000000E+00  0.00000000000E+00  0.14622407856E+03  0.14622407856E+03  0.00000000000E+00 0. -1.
          4   -1    0    0  502    0 -0.00000000000E+00 -0.00000000000E+00 -0.10142460256E+04  0.10142460256E+04  0.00000000000E+00 0.  1.
        -13    1    1    2    0    0  0.14558704129E+03 -0.64356126903E+01 -0.66537183990E+03  0.68114367075E+03  0.10566000000E+00 0.  1.
         13    1    1    2    0    0  0.29663432571E+02 -0.22051798840E+02  0.11205326037E+03  0.11799214121E+03  0.10566000000E+00 0. -1.
          4    1    1    2  501    0 -0.17525047386E+03  0.28487411530E+02 -0.31470336752E+03  0.36133429222E+03  0.00000000000E+00 0.  1.
</event>
<event>
 5    1  0.4866530E-005  0.4761349E+03  0.7818608E-02  0.1007606E+00
         -4   -1    0    0    0  501 -0.00000000000E+00  0.00000000000E+00  0.33001022063E+03  0.33001022063E+03  0.00000000000E+00 0. -1.
         21   -1    0    0  501  502  0.00000000000E+00 -0.00000000000E+00 -0.10341076024E+04  0.10341076024E+04  0.00000000000E+00 0. -1.
        -13    1    1    2    0    0 -0.25221743250E+02  0.69903791189E+02  0.84213997019E+02  0.11231511391E+03  0.10566000000E+00 0.  1.
         13    1    1    2    0    0 -0.14635489498E+03 -0.47802683712E+03 -0.57001777814E+03  0.75818842701E+03  0.10566000000E+00 0. -1.
         -4    1    1    2    0  502  0.17157663823E+03  0.40812304593E+03 -0.21829360061E+03  0.49361428208E+03  0.00000000000E+00 0. -1.
</event>
<event>
 5    1  0.4866530E-005  0.2602082E+03  0.7818608E-02  0.1035189E+00
         -4   -1    0    0    0  501 -0.00000000000E+00  0.00000000000E+00  0.17245948395E+04  0.17245948395E+04  0.00000000000E+00 0. -1.
         21   -1    0    0  501  502  0.00000000000E+00 -0.00000000000E+00 -0.17749495267E+03  0.17749495267E+03  0.00000000000E+00 0.  1.
        -13    1    1    2    0    0  0.92203152499E+02  0.16764690407E+03 -0.24749485809E+00  0.19132950163E+03  0.10566000000E+00 0.  1.
         13    1    1    2    0    0 -0.24361786115E+03  0.59708963598E+02  0.13516657199E+04  0.13747418129E+04  0.10566000000E+00 0. -1.
         -4    1    1    2    0  502  0.15141470865E+03 -0.22735586767E+03  0.19568166178E+03  0.33601847764E+03  0.00000000000E+00 0. -1.
</event>
<event>
 5    1  0.4866530E-005  0.4713307E+03  0.7818608E-02  0.9632878E-01
         -4   -1    0    0    0  501 -0.00000000000E+00  0.00000000000E+00  0.30003591768E+04  0.30003591768E+04  0.00000000000E+00 0. -1.
         21   -1    0    0  501  502  0.00000000000E+00 -0.00000000000E+00 -0.18731991434E+03  0.18731991434E+03  0.00000000000E+00 0.  1.
        -13    1    1    2    0    0  0.89382806207E+02  0.33034321042E+03  0.12781727250E+04  0.13231936551E+04  0.10566000000E+00 0.  1.
         13    1    1    2    0    0  0.89791211285E+02 -0.66799247237E+03  0.10373890781E+04  0.12371145926E+04  0.10566000000E+00 0. -1.
         -4    1    1    2    0  502 -0.17917401749E+03  0.33764926195E+03  0.49747745935E+03  0.62737084344E+03  0.00000000000E+00 0. -1.
</event>
<event>
 5    1  0.4866530E-005  0.6770184E+03  0.7818608E-02  0.9156999E-01
         21   -1    0    0  501  502  0.00000000000E+00  0.00000000000E+00  0.11188944305E+04  0.11188944305E+04  0.00000000000E+00 0.  1.
          4   -1    0    0  502    0 -0.00000000000E+00 -0.00000000000E+00 -0.10199746425E+04  0.10199746425E+04  0.00000000000E+00 0.  1.
        -13    1    1    2    0    0  0.71854272504E+03  0.23162321114E+03  0.46826056426E+02  0.75640310044E+03  0.10566000000E+00 0.  1.
         13    1    1    2    0    0 -0.65479227773E+03  0.90923994579E-01 -0.47114303960E+03  0.80667757510E+03  0.10566000000E+00 0. -1.
          4    1    1    2  501    0 -0.63750447306E+02 -0.23171413513E+03  0.52323677120E+03  0.57578839750E+03  0.00000000000E+00 0.  1.
</event>
<event>
 5    1  0.4866530E-005  0.4818465E+03  0.7818608E-02  0.9528370E-01
         -4   -1    0    0    0  501 -0.00000000000E+00  0.00000000000E+00  0.29494039732E+04  0.29494039732E+04  0.00000000000E+00 0. -1.
         21   -1    0    0  501  502  0.00000000000E+00 -0.00000000000E+00 -0.23197242982E+03  0.23197242982E+03  0.00000000000E+00 0.  1.
        -13    1    1    2    0    0  0.43914341387E+03 -0.15364775131E+03  0.12796189425E+04  0.13615723332E+04  0.10566000000E+00 0.  1.
         13    1    1    2    0    0  0.19690318877E+03 -0.28005116885E+03  0.50918427353E+03  0.61357001108E+03  0.10566000000E+00 0. -1.
         -4    1    1    2    0  502 -0.63604660265E+03  0.43369892016E+03  0.92862832740E+03  0.12062340588E+04  0.00000000000E+00 0. -1.
</event>
<event>
 5    1  0.4866530E-005  0.2483000E+03  0.7818608E-02  0.1036508E+00
         21   -1    0    0  501  502  0.00000000000E+00  0.00000000000E+00  0.40105154824E+03  0.40105154824E+03  0.00000000000E+00 0. -1.
         -4   -1    0    0    0  501 -0.00000000000E+00 -0.00000000000E+00 -0.11277159661E+04  0.11277159661E+04  0.00000000000E+00 0. -1.
        -13    1    1    2    0    0 -0.80801983663E+02 -0.19546575335E+03 -0.42790642998E+03  0.47732561767E+03  0.10566000000E+00 0.  1.
         13    1    1    2    0    0  0.19460610301E+03 -0.35603362744E+02 -0.61357533203E+03  0.64468118788E+03  0.10566000000E+00 0. -1.
         -4    1    1    2    0  502 -0.11380411935E+03  0.23106911610E+03  0.31481734419E+03  0.40676070876E+03  0.00000000000E+00 0. -1.
</event>
<event>
 5    1  0.4866530E-005  0.5900761E+03  0.7818608E-02  0.9299794E-01
         -4   -1    0    0    0  501 -0.00000000000E+00  0.00000000000E+00  0.10279579618E+04  0.10279579618E+04  0.00000000000E+00 0. -1.
         21   -1    0    0  501  502  0.00000000000E+00 -0.00000000000E+00 -0.71713223322E+03  0.71713223322E+03  0.00000000000E+00 0. -1.
        -13    1    1    2    0    0  0.33992973381E+03 -0.43020626228E+03 -0.43950203716E+02  0.55005570955E+03  0.10566000000E+00 0.  1.
         13    1    1    2    0    0 -0.55644719676E+03  0.28602461934E+03  0.57835848230E+03  0.85202236524E+03  0.10566000000E+00 0. -1.
         -4    1    1    2    0  502  0.21651746295E+03  0.14418164294E+03 -0.22358255004E+03  0.34301212020E+03  0.00000000000E+00 0. -1.
</event>
<event>
 5    1  0.4866530E-005  0.8147337E+02  0.7818608E-02  0.1199479E+00
          4   -1    0    0  502    0 -0.00000000000E+00  0.00000000000E+00  0.79734242721E+03  0.79734242721E+03  0.00000000000E+00 0.  1.
         21   -1    0    0  501  502  0.00000000000E+00 -0.00000000000E+00 -0.12007805819E+02  0.12007805819E+02  0.00000000000E+00 0. -1.
        -13    1    1    2    0    0 -0.48303773787E+02  0.77931903422E+02  0.35791127237E+03  0.36946870799E+03  0.10566000000E+00 0.  1.
         13    1    1    2    0    0  0.34572151009E+02 -0.66981642356E+02  0.40184706960E+03  0.40885553995E+03  0.10566000000E+00 0. -1.
          4    1    1    2  501    0  0.13731622778E+02 -0.10950261067E+02  0.25576279428E+02  0.31025985092E+02  0.00000000000E+00 0.  1.
</event>
<event>
 5    1  0.4866530E-005  0.4427778E+03  0.7818608E-02  0.9881463E-01
         -4   -1    0    0    0  501 -0.00000000000E+00  0.00000000000E+00  0.18210642033E+04  0.18210642033E+04  0.00000000000E+00 0. -1.
         21   -1    0    0  501  502  0.00000000000E+00 -0.00000000000E+00 -0.17740101975E+03  0.17740101975E+03  0.00000000000E+00 0. -1.
        -13    1    1    2    0    0 -0.14396757777E+02  0.17477140320E+03  0.16304750780E+03  0.23945106175E+03  0.10566000000E+00 0.  1.
         13    1    1    2    0    0 -0.37325079306E+03  0.17051609234E+03  0.47805520275E+03  0.63002276174E+03  0.10566000000E+00 0. -1.
         -4    1    1    2    0  502  0.38764755084E+03 -0.34528749554E+03  0.10025604730E+04  0.11289913995E+04  0.00000000000E+00 0. -1.
</event>
<event>
 5    1  0.4866530E-005  0.3845821E+03  0.7818608E-02  0.1029954E+00
         21   -1    0    0  501  502  0.00000000000E+00  0.00000000000E+00  0.78167354158E+03  0.78167354158E+03  0.00000000000E+00 0.  1.
          4   -1    0    0  502    0 -0.00000000000E+00 -0.00000000000E+00 -0.35302113891E+03  0.35302113891E+03  0.00000000000E+00 0.  1.
        -13    1    1    2    0    0 -0.16487702801E+03  0.38952834110E+03 -0.89014832107E+02  0.43225040704E+03  0.10566000000E+00 0.  1.
         13    1    1    2    0    0  0.64084328916E+02 -0.27181392983E+02  0.95310854968E+01  0.70260103130E+02  0.10566000000E+00 0. -1.
          4    1    1    2  501    0  0.10079269910E+03 -0.36234694812E+03  0.50813614928E+03  0.63218417032E+03  0.00000000000E+00 0.  1.
</event>
<event>
 5    1  0.4866530E-005  0.3982166E+03  0.7818608E-02  0.1004941E+00
          4   -1    0    0  502    0 -0.00000000000E+00  0.00000000000E+00  0.16058736670E+04  0.16058736670E+04  0.00000000000E+00 0.  1.
         21   -1    0    0  501  502  0.00000000000E+00 -0.00000000000E+00 -0.24907857916E+03  0.24907857916E+03  0.00000000000E+00 0.  1.
        -13    1    1    2    0    0 -0.13123780950E+03 -0.40702020649E+03  0.79280470460E+03  0.90079305167E+03  0.10566000000E+00 0.  1.
         13    1    1    2    0    0  0.13798522721E+03  0.11652600700E+02  0.54058789757E+03  0.55804210611E+03  0.10566000000E+00 0. -1.
          4    1    1    2  501    0 -0.67474177066E+01  0.39536760579E+03  0.23402485653E+02  0.39611708836E+03  0.00000000000E+00 0.  1.
</event>
<event>
 5    1  0.4866530E-005  0.4572044E+03  0.7818608E-02  0.9577880E-01
         -4   -1    0    0    0  501 -0.00000000000E+00  0.00000000000E+00  0.93003559754E+03  0.93003559754E+03  0.00000000000E+00 0. -1.
         21   -1    0    0  501  502  0.00000000000E+00 -0.00000000000E+00 -0.88954539223E+03  0.88954539223E+03  0.00000000000E+00 0.  1.
        -13    1    1    2    0    0  0.13853497429E+03 -0.43429339317E+03  0.45615859058E+03  0.64489019327E+03  0.10566000000E+00 0.  1.
         13    1    1    2    0    0  0.77107726590E+02 -0.11775730255E+03  0.24784241562E+03  0.28502325861E+03  0.10566000000E+00 0. -1.
         -4    1    1    2    0  502 -0.21564270088E+03  0.55205069571E+03 -0.66351080090E+03  0.88966753790E+03  0.00000000000E+00 0. -1.
</event>
<event>
 5    1  0.4866530E-005  0.4980906E+03  0.7818608E-02  0.9758106E-01
         21   -1    0    0  501  502  0.00000000000E+00  0.00000000000E+00  0.20915692486E+03  0.20915692486E+03  0.00000000000E+00 0. -1.
         -4   -1    0    0    0  501 -0.00000000000E+00 -0.00000000000E+00 -0.18891827065E+04  0.18891827065E+04  0.00000000000E+00 0. -1.
        -13    1    1    2    0    0 -0.62916412820E+02 -0.17650939967E+03 -0.51494314721E+03  0.54797855724E+03  0.10566000000E+00 0.  1.
         13    1    1    2    0    0  0.45767674461E+03 -0.17428159933E+03 -0.48427618604E+03  0.68874197923E+03  0.10566000000E+00 0. -1.
         -4    1    1    2    0  502 -0.39476033179E+03  0.35079099900E+03 -0.68080644842E+03  0.86161909492E+03  0.00000000000E+00 0. -1.
</event>
<event>
 5    1  0.4866530E-005  0.4599388E+03  0.7818608E-02  0.9994003E-01
         21   -1    0    0  501  502  0.00000000000E+00  0.00000000000E+00  0.29081850715E+03  0.29081850715E+03  0.00000000000E+00 0. -1.
         -4   -1    0    0    0  501 -0.00000000000E+00 -0.00000000000E+00 -0.13732944497E+04  0.13732944497E+04  0.00000000000E+00 0. -1.
        -13    1    1    2    0    0  0.58364077437E+02  0.90493495791E+02 -0.49412123501E+03  0.50571854264E+03  0.10566000000E+00 0.  1.
         13    1    1    2    0    0  0.26103256827E+03 -0.40983367229E+03 -0.50183496065E+03  0.69852700702E+03  0.10566000000E+00 0. -1.
         -4    1    1    2    0  502 -0.31939664571E+03  0.31934017650E+03 -0.86519746900E+02  0.45986740721E+03  0.00000000000E+00 0. -1.
</event>
<event>
 5    1  0.4866530E-005  0.2290407E+03  0.7818608E-02  0.1041865E+00
         21   -1    0    0  501  502  0.00000000000E+00  0.00000000000E+00  0.14635231102E+03  0.14635231102E+03  0.00000000000E+00 0.  1.
         -4   -1    0    0    0  501 -0.00000000000E+00 -0.00000000000E+00 -0.56338686217E+03  0.56338686217E+03  0.00000000000E+00 0. -1.
        -13    1    1    2    0    0 -0.23821733203E+02 -0.25861808364E+03 -0.11914759094E+03  0.28573930032E+03  0.10566000000E+00 0.  1.
         13    1    1    2    0    0 -0.44058026311E+02  0.21267533299E+03 -0.23981123180E+03  0.32354496597E+03  0.10566000000E+00 0. -1.
         -4    1    1    2    0  502  0.67879759515E+02  0.45942750643E+02 -0.58075728414E+02  0.10045490689E+03  0.00000000000E+00 0. -1.
</event>
<event>
 5    1  0.4866530E-005  0.4812779E+03  0.7818608E-02  0.9866428E-01
         -4   -1    0    0    0  501 -0.00000000000E+00  0.00000000000E+00  0.17285621646E+04  0.17285621646E+04  0.00000000000E+00 0. -1.
         21   -1    0    0  501  502  0.00000000000E+00 -0.00000000000E+00 -0.20126873021E+03  0.20126873021E+03  0.00000000000E+00 0. -1.
        -13    1    1    2    0    0 -0.11971341281E+03  0.79375500492E+02  0.28202489527E+03  0.31649616744E+03  0.10566000000E+00 0.  1.
         13    1    1    2    0    0 -0.29977765246E+03 -0.34931889952E+03  0.88647474684E+03  0.99886326513E+03  0.10566000000E+00 0. -1.
         -4    1    1    2    0  502  0.41949106527E+03  0.26994339903E+03  0.35879379223E+03  0.61447146220E+03  0.00000000000E+00 0. -1.
</event>
<event>
 5    1  0.4866530E-005  0.6706521E+02  0.7818608E-02  0.1234645E+00
         21   -1    0    0  501  502  0.00000000000E+00  0.00000000000E+00  0.51271295374E+03  0.51271295374E+03  0.00000000000E+00 0.  1.
         -4   -1    0    0    0  501 -0.00000000000E+00 -0.00000000000E+00 -0.33606154948E+02  0.33606154948E+02  0.00000000000E+00 0. -1.
        -13    1    1    2    0    0 -0.28346392266E+02  0.61749696061E+02  0.19606915976E+03  0.20750823957E+03  0.10566000000E+00 0.  1.
         13    1    1    2    0    0  0.13761957426E+02 -0.65747771356E+02  0.13085378901E+02  0.68435365239E+02  0.10566000000E+00 0. -1.
         -4    1    1    2    0  502  0.14584434840E+02  0.39980752948E+01  0.26995226013E+03  0.27037550387E+03  0.00000000000E+00 0. -1.
</event>
<event>
 5    1  0.4866530E-005  0.2004738E+03  0.7818608E-02  0.1059812E+00
          4   -1    0    0  502    0 -0.00000000000E+00  0.00000000000E+00  0.66309894471E+03  0.66309894471E+03  0.00000000000E+00 0.  1.
         21   -1    0    0  501  502  0.00000000000E+00 -0.00000000000E+00 -0.24060594340E+03  0.24060594340E+03  0.00000000000E+00 0. -1.
        -13    1    1    2    0    0 -0.67911149025E+02 -0.19091366237E+03  0.59811564879E+03  0.63150795018E+03  0.10566000000E+00 0.  1.
         13    1    1    2    0    0  0.73766607033E+02  0.15986766364E+03 -0.15399953500E+03  0.23391248392E+03  0.10566000000E+00 0. -1.
          4    1    1    2  501    0 -0.58554580082E+01  0.31045998730E+02 -0.21623112477E+02  0.38284454010E+02  0.00000000000E+00 0.  1.
</event>
<event>
 5    1  0.4866530E-005  0.4857522E+03  0.7818608E-02  0.9712069E-01
         21   -1    0    0  501  502  0.00000000000E+00  0.00000000000E+00  0.19558729717E+03  0.19558729717E+03  0.00000000000E+00 0. -1.
         -4   -1    0    0    0  501 -0.00000000000E+00 -0.00000000000E+00 -0.22284038059E+04  0.22284038059E+04  0.00000000000E+00 0. -1.
        -13    1    1    2    0    0  0.81847985782E+02  0.22231338094E+03 -0.79275107711E+03  0.82739145121E+03  0.10566000000E+00 0.  1.
         13    1    1    2    0    0 -0.21971830497E+03 -0.54885198535E+03 -0.49326287003E+03  0.76994993699E+03  0.10566000000E+00 0. -1.
         -4    1    1    2    0  502  0.13787031919E+03  0.32653860442E+03 -0.74680256160E+03  0.82664971488E+03  0.00000000000E+00 0. -1.
</event>
<event>
 5    1  0.4866530E-005  0.1886326E+03  0.7818608E-02  0.1068221E+00
         -4   -1    0    0    0  501 -0.00000000000E+00  0.00000000000E+00  0.12976808622E+03  0.12976808622E+03  0.00000000000E+00 0. -1.
         21   -1    0    0  501  502  0.00000000000E+00 -0.00000000000E+00 -0.38443738561E+03  0.38443738561E+03  0.00000000000E+00 0.  1.
        -13    1    1    2    0    0  0.97260152475E+02 -0.14100548487E+03 -0.10436775509E+03  0.20058595038E+03  0.10566000000E+00 0.  1.
         13    1    1    2    0    0 -0.71864534276E+02  0.19824938788E+03 -0.10044816651E+03  0.23357477689E+03  0.10566000000E+00 0. -1.
         -4    1    1    2    0  502 -0.25395618199E+02 -0.57243903004E+02 -0.49853377782E+02  0.80044744557E+02  0.00000000000E+00 0. -1.
</event>
<event>
 5    1  0.4866530E-005  0.8550103E+02  0.7818608E-02  0.1191066E+00
          4   -1    0    0  502    0 -0.00000000000E+00  0.00000000000E+00  0.42903441295E+02  0.42903441295E+02  0.00000000000E+00 0.  1.
         21   -1    0    0  501  502  0.00000000000E+00 -0.00000000000E+00 -0.49384218567E+03  0.49384218567E+03  0.00000000000E+00 0. -1.
        -13    1    1    2    0    0  0.75457610955E+02 -0.21465185770E+02 -0.56964933302E+02  0.96951637641E+02  0.10566000000E+00 0.  1.
         13    1    1    2    0    0 -0.88429077595E+02  0.34133826691E+02 -0.76512752569E+02  0.12181556698E+03  0.10566000000E+00 0. -1.
          4    1    1    2  501    0  0.12971466640E+02 -0.12668640921E+02 -0.31746105851E+03  0.31797842235E+03  0.00000000000E+00 0.  1.
</event>
<event>
 5    1  0.4866530E-005  0.2000280E+03  0.7818608E-02  0.1060117E+00
         21   -1    0    0  501  502  0.00000000000E+00  0.00000000000E+00  0.30945986074E+02  0.30945986074E+02  0.00000000000E+00 0. -1.
          4   -1    0    0  502    0 -0.00000000000E+00 -0.00000000000E+00 -0.23610770372E+04  0.23610770372E+04  0.00000000000E+00 0.  1.
        -13    1    1    2    0    0 -0.36467583623E+02  0.20820468156E+03 -0.62714914820E+03  0.66181201208E+03  0.10566000000E+00 0.  1.
         13    1    1    2    0    0  0.12444123313E+03 -0.15976535743E+03 -0.10228470321E+04  0.10427016122E+04  0.10566000000E+00 0. -1.
          4    1    1    2  501    0 -0.87973649511E+02 -0.48439324127E+02 -0.68013487089E+03  0.68750939901E+03  0.00000000000E+00 0.  1.
</event>
<event>
 5    1  0.4866530E-005  0.2082127E+03  0.7818608E-02  0.1078201E+00
         21   -1    0    0  501  502  0.00000000000E+00  0.00000000000E+00  0.78189281721E+03  0.78189281721E+03  0.00000000000E+00 0.  1.
         -4   -1    0    0    0  501 -0.00000000000E+00 -0.00000000000E+00 -0.26921046198E+03  0.26921046198E+03  0.00000000000E+00 0. -1.
        -13    1    1    2    0    0 -0.10252697033E+03 -0.25246267102E+02  0.39758462677E+03  0.41136686820E+03  0.10566000000E+00 0.  1.
         13    1    1    2    0    0  0.29734224957E+03  0.14564324457E+02 -0.13136517086E+03  0.32539414901E+03  0.10566000000E+00 0. -1.
         -4    1    1    2    0  502 -0.19481527924E+03  0.10681942645E+02  0.24646289933E+03  0.31434226199E+03  0.00000000000E+00 0. -1.
</event>
<event>
 5    1  0.4866530E-005  0.4852324E+03  0.7818608E-02  0.9716009E-01
         21   -1    0    0  501  502  0.00000000000E+00  0.00000000000E+00  0.17926815973E+03  0.17926815973E+03  0.00000000000E+00 0.  1.
          4   -1    0    0  502    0 -0.00000000000E+00 -0.00000000000E+00 -0.27635836127E+04  0.27635836127E+04  0.00000000000E+00 0.  1.
        -13    1    1    2    0    0 -0.17147272948E+03  0.31064219645E+03 -0.96464652076E+03  0.10278348079E+04  0.10566000000E+00 0.  1.
         13    1    1    2    0    0 -0.20641029398E+03  0.11114852823E+03 -0.11661888417E+04  0.11895190752E+04  0.10566000000E+00 0. -1.
          4    1    1    2  501    0  0.37788302346E+03 -0.42179072468E+03 -0.45348009059E+03  0.72549788932E+03  0.00000000000E+00 0.  1.
</event>
<event>
 5    1  0.4866530E-005  0.4620259E+03  0.7818608E-02  0.9698960E-01
          4   -1    0    0  502    0 -0.00000000000E+00  0.00000000000E+00  0.18152381121E+04  0.18152381121E+04  0.00000000000E+00 0.  1.
         21   -1    0    0  501  502  0.00000000000E+00 -0.00000000000E+00 -0.38393879104E+03  0.38393879104E+03  0.00000000000E+00 0.  1.
        -13    1    1    2    0    0  0.14817054181E+03  0.39425467593E+03  0.36083215071E+03  0.55460897135E+03  0.10566000000E+00 0.  1.
         13    1    1    2    0    0  0.27017862968E+03 -0.10016979049E+03  0.10953233367E+04  0.11325915865E+04  0.10566000000E+00 0. -1.
          4    1    1    2  501    0 -0.41834917149E+03 -0.29408488543E+03 -0.24856166293E+02  0.51197634528E+03  0.00000000000E+00 0.  1.
</event>
<event>
 5    1  0.4866530E-005  0.2216278E+03  0.7818608E-02  0.1046242E+00
         -4   -1    0    0    0  501 -0.00000000000E+00  0.00000000000E+00  0.12623205654E+03  0.12623205654E+03  0.00000000000E+00 0. -1.
         21   -1    0    0  501  502  0.00000000000E+00 -0.00000000000E+00 -0.74229536052E+03  0.74229536052E+03  0.00000000000E+00 0.  1.
        -13    1    1    2    0    0  0.21147793623E+03  0.84032613311E+02 -0.51990853312E+03  0.56752911078E+03  0.10566000000E+00 0.  1.
         13    1    1    2    0    0 -0.20721651989E+03 -0.74936230208E+02 -0.16777352958E+02  0.22098781742E+03  0.10566000000E+00 0. -1.
         -4    1    1    2    0  502 -0.42614163423E+01 -0.90963831033E+01 -0.79377417906E+02  0.80010488864E+02  0.00000000000E+00 0. -1.
</event>
<event>
 5    1  0.4866530E-005  0.1213151E+03  0.7818608E-02  0.1139079E+00
          4   -1    0    0  502    0 -0.00000000000E+00  0.00000000000E+00  0.12082725583E+04  0.12082725583E+04  0.00000000000E+00 0.  1.
         21   -1    0    0  501  502  0.00000000000E+00 -0.00000000000E+00 -0.32220171267E+02  0.32220171267E+02  0.00000000000E+00 0.  1.
        -13    1    1    2    0    0  0.37790235658E+02 -0.16679939161E+03  0.53270877463E+03  0.55948975744E+03  0.10566000000E+00 0.  1.
         13    1    1    2    0    0 -0.80708287087E+02  0.67341701779E+02  0.41744761592E+03  0.43047793858E+03  0.10566000000E+00 0. -1.
          4    1    1    2  501    0  0.42918051430E+02  0.99457689828E+02  0.22589599647E+03  0.25052503353E+03  0.00000000000E+00 0.  1.
</event>
<event>
 5    1  0.4866530E-005  0.2864642E+03  0.7818608E-02  0.1019146E+00
          4   -1    0    0  502    0 -0.00000000000E+00  0.00000000000E+00  0.13376899787E+04  0.13376899787E+04  0.00000000000E+00 0.  1.
         21   -1    0    0  501  502  0.00000000000E+00 -0.00000000000E+00 -0.48137886565E+03  0.48137886565E+03  0.00000000000E+00 0.  1.
        -13    1    1    2    0    0  0.27121696721E+03 -0.30176741003E+02 -0.30975629420E+03  0.41281745598E+03  0.10566000000E+00 0.  1.
         13    1    1    2    0    0  0.16148965521E+03  0.17220169355E+03  0.76092516873E+03  0.79670537564E+03  0.10566000000E+00 0. -1.
          4    1    1    2  501    0 -0.43270662242E+03 -0.14202495255E+03  0.40514223856E+03  0.60954601278E+03  0.00000000000E+00 0.  1.
</event>
<event>
 5    1  0.4866530E-005  0.5766076E+03  0.7818608E-02  0.9324228E-01
          4   -1    0    0  502    0 -0.00000000000E+00  0.00000000000E+00  0.16328791067E+04  0.16328791067E+04  0.00000000000E+00 0.  1.
         21   -1    0    0  501  502  0.00000000000E+00 -0.00000000000E+00 -0.33332528192E+03  0.33332528192E+03  0.00000000000E+00 0. -1.
        -13    1    1    2    0    0 -0.70014036208E+03  0.11499881200E+02  0.80390380460E+03  0.10661098030E+04  0.10566000000E+00 0.  1.
         13    1    1    2    0    0  0.44381465144E+03  0.11730977348E+03  0.25175689105E+03  0.52355952016E+03  0.10566000000E+00 0. -1.
          4    1    1    2  501    0  0.25632571063E+03 -0.12880965468E+03  0.24389312909E+03  0.37653506542E+03  0.00000000000E+00 0.  1.
</event>
<event>
 5    1  0.4866530E-005  0.3742500E+03  0.7818608E-02  0.9806508E-01
         21   -1    0    0  501  502  0.00000000000E+00  0.00000000000E+00  0.27071470383E+03  0.27071470383E+03  0.00000000000E+00 0.  1.
          4   -1    0    0  502    0 -0.00000000000E+00 -0.00000000000E+00 -0.19408124056E+04  0.19408124056E+04  0.00000000000E+00 0.  1.
        -13    1    1    2    0    0 -0.67556923978E+02 -0.48166190073E+03 -0.10420811378E+04  0.11499979276E+04  0.10566000000E+00 0.  1.
         13    1    1    2    0    0  0.45167492703E+02  0.30823655596E+03 -0.77361509162E+03  0.83398453102E+03  0.10566000000E+00 0. -1.
          4    1    1    2  501    0  0.22389431274E+02  0.17342534478E+03  0.14559852767E+03  0.22754465079E+03  0.00000000000E+00 0.  1.
</event>
<event>
 5    1  0.4866530E-005  0.4435120E+03  0.7818608E-02  0.9917392E-01
         21   -1    0    0  501  502  0.00000000000E+00  0.00000000000E+00  0.74206634505E+02  0.74206634505E+02  0.00000000000E+00 0.  1.
          4   -1    0    0  502    0 -0.00000000000E+00 -0.00000000000E+00 -0.46511151343E+04  0.46511151343E+04  0.00000000000E+00 0.  1.
        -13    1    1    2    0    0  0.48621086883E+03 -0.18099712281E+03 -0.21381455282E+04  0.22001880098E+04  0.10566000000E+00 0.  1.
         13    1    1    2    0    0 -0.14032166454E+03  0.65199791635E+02 -0.18111581046E+03  0.23821026496E+03  0.10566000000E+00 0. -1.
          4    1    1    2  501    0 -0.34588920430E+03  0.11579733117E+03 -0.22576471611E+04  0.22869234940E+04  0.00000000000E+00 0.  1.
</event>
<event>
 5    1  0.4951324E-005  0.2887826E+03  0.7818608E-02  0.1049013E+00
         21   -1    0    0  501  502  0.00000000000E+00  0.00000000000E+00  0.17384881685E+03  0.17384881685E+03  0.00000000000E+00 0. -1.
         -4   -1    0    0    0  501 -0.00000000000E+00 -0.00000000000E+00 -0.18544446543E+04  0.18544446543E+04  0.00000000000E+00 0. -1.
        -13    1    1    2    0    0 -0.79906047596E+02  0.46040962678E+02 -0.31627296812E+03  0.32944399860E+03  0.10566000000E+00 0.  1.
         13    1    1    2    0    0  0.17248096422E+03 -0.31288398269E+03 -0.13705332852E+04  0.14163359653E+04  0.10566000000E+00 0. -1.
         -4    1    1    2    0  502 -0.92574916628E+02  0.26684302001E+03  0.62104158495E+01  0.28251350725E+03  0.00000000000E+00 0. -1.
</event>
<event>
 5    1  0.4866530E-005  0.1947898E+03  0.7818608E-02  0.1094600E+00
         21   -1    0    0  501  502  0.00000000000E+00  0.00000000000E+00  0.86787789729E+03  0.86787789729E+03  0.00000000000E+00 0. -1.
         -4   -1    0    0    0  501 -0.00000000000E+00 -0.00000000000E+00 -0.90233256122E+02  0.90233256122E+02  0.00000000000E+00 0. -1.
        -13    1    1    2    0    0  0.22279754903E+02 -0.78677236204E+02  0.10865342440E+01  0.81778277654E+02  0.10566000000E+00 0.  1.
         13    1    1    2    0    0 -0.16625560003E+03  0.14619039487E+03  0.59569613586E+03  0.63550488081E+03  0.10566000000E+00 0. -1.
         -4    1    1    2    0  502  0.14397584513E+03 -0.67513158665E+02  0.18086197107E+03  0.24082799495E+03  0.00000000000E+00 0. -1.
</event>
<event>
 5    1  0.4866530E-005  0.4958197E+03  0.7818608E-02  0.9737604E-01
         21   -1    0    0  501  502  0.00000000000E+00  0.00000000000E+00  0.37478959054E+03  0.37478959054E+03  0.00000000000E+00 0.  1.
          4   -1    0    0  502    0 -0.00000000000E+00 -0.00000000000E+00 -0.10007171747E+04  0.10007171747E+04  0.00000000000E+00 0.  1.
        -13    1    1    2    0    0 -0.48667507074E+03  0.25831079798E+03 -0.16776072366E+03  0.57595205044E+03  0.10566000000E+00 0.  1.
         13    1    1    2    0    0  0.49071678867E+02 -0.19790314513E+03 -0.83569246966E+02  0.22035769722E+03  0.10566000000E+00 0. -1.
          4    1    1    2  501    0  0.43760339188E+03 -0.60407652843E+02 -0.37459761351E+03  0.57919701756E+03  0.00000000000E+00 0.  1.
</event>
<event>
 5    1  0.4866530E-005  0.1056693E+03  0.7818608E-02  0.1155502E+00
         21   -1    0    0  501  502  0.00000000000E+00  0.00000000000E+00  0.28581502388E+02  0.28581502388E+02  0.00000000000E+00 0.  1.
         -4   -1    0    0    0  501 -0.00000000000E+00 -0.00000000000E+00 -0.48676450860E+03  0.48676450860E+03  0.00000000000E+00 0. -1.
        -13    1    1    2    0    0  0.93554364706E+02 -0.27960716969E+02 -0.17375047054E+03  0.19930744598E+03  0.10566000000E+00 0.  1.
         13    1    1    2    0    0 -0.10734670022E+03  0.33894780821E+02 -0.27757285655E+03  0.29953108699E+03  0.10566000000E+00 0. -1.
         -4    1    1    2    0  502  0.13792335517E+02 -0.59340638519E+01 -0.68596791304E+01  0.16507478020E+02  0.00000000000E+00 0. -1.
</event>
<event>
 5    1  0.4866530E-005  0.4266699E+02  0.7818608E-02  0.1355778E+00
         -4   -1    0    0    0  501 -0.00000000000E+00  0.00000000000E+00  0.37375712550E+03  0.37375712550E+03  0.00000000000E+00 0. -1.
         21   -1    0    0  501  502  0.00000000000E+00 -0.00000000000E+00 -0.10292343618E+02  0.10292343618E+02  0.00000000000E+00 0. -1.
        -13    1    1    2    0    0 -0.50930217276E+01 -0.23749683302E+02  0.96526897098E+02  0.99536120854E+02  0.10566000000E+00 0.  1.
         13    1    1    2    0    0  0.19982689940E+02  0.56616738740E+02  0.19499595461E+03  0.20402989115E+03  0.10566000000E+00 0. -1.
         -4    1    1    2    0  502 -0.14889668212E+02 -0.32867055438E+02  0.71941930178E+02  0.80483457123E+02  0.00000000000E+00 0. -1.
</event>
<event>
 5    1  0.4866530E-005  0.3463842E+03  0.7818608E-02  0.9969084E-01
          4   -1    0    0  502    0 -0.00000000000E+00  0.00000000000E+00  0.16500273081E+04  0.16500273081E+04  0.00000000000E+00 0.  1.
         21   -1    0    0  501  502  0.00000000000E+00 -0.00000000000E+00 -0.33485086455E+03  0.33485086455E+03  0.00000000000E+00 0.  1.
        -13    1    1    2    0    0  0.41588465887E+03  0.23693986269E+03  0.66643440222E+03  0.82050921484E+03  0.10566000000E+00 0.  1.
         13    1    1    2    0    0 -0.26614401883E+03  0.63594308405E+02  0.76229128521E+03  0.80991659416E+03  0.10566000000E+00 0. -1.
          4    1    1    2  501    0 -0.14974064004E+03 -0.30053417109E+03 -0.11354924393E+03  0.35445236361E+03  0.00000000000E+00 0.  1.
</event>
<event>
 5    1  0.4866530E-005  0.4260911E+03  0.7818608E-02  0.9844903E-01
         21   -1    0    0  501  502  0.00000000000E+00  0.00000000000E+00  0.16689035824E+03  0.16689035824E+03  0.00000000000E+00 0. -1.
         -4   -1    0    0    0  501 -0.00000000000E+00 -0.00000000000E+00 -0.23609421359E+04  0.23609421359E+04  0.00000000000E+00 0. -1.
        -13    1    1    2    0    0  0.35337293630E+02 -0.21976729460E+03 -0.64886533241E+03  0.68598295814E+03  0.10566000000E+00 0.  1.
         13    1    1    2    0    0  0.57976168176E+02  0.47686844266E+03 -0.29862269180E+03  0.56563262892E+03  0.10566000000E+00 0. -1.
         -4    1    1    2    0  502 -0.93313461806E+02 -0.25710114806E+03 -0.12465637534E+04  0.12762169070E+04  0.00000000000E+00 0. -1.
</event>
<event>
 5    1  0.4866530E-005  0.5222732E+03  0.7818608E-02  0.9430446E-01
         -4   -1    0    0    0  501 -0.00000000000E+00  0.00000000000E+00  0.79993626647E+03  0.79993626647E+03  0.00000000000E+00 0. -1.
         21   -1    0    0  501  502  0.00000000000E+00 -0.00000000000E+00 -0.11471003922E+04  0.11471003922E+04  0.00000000000E+00 0. -1.
        -13    1    1    2    0    0 -0.68387960686E+03  0.44403994144E+01 -0.94966732947E+02  0.69045617193E+03  0.10566000000E+00 0.  1.
         13    1    1    2    0    0  0.45805555679E+03 -0.13898918940E+03  0.35432139306E+03  0.59554726816E+03  0.10566000000E+00 0. -1.
         -4    1    1    2    0  502  0.22582405007E+03  0.13454878998E+03 -0.60651878583E+03  0.66103321856E+03  0.00000000000E+00 0. -1.
</event>
<event>
 5    1  0.4866530E-005  0.3773269E+03  0.7818608E-02  0.1004332E+00
         21   -1    0    0  501  502  0.00000000000E+00  0.00000000000E+00  0.40574641535E+03  0.40574641535E+03  0.00000000000E+00 0. -1.
         -4   -1    0    0    0  501 -0.00000000000E+00 -0.00000000000E+00 -0.13845144288E+04  0.13845144288E+04  0.00000000000E+00 0. -1.
        -13    1    1    2    0    0  0.16601651923E+03  0.15912264639E+01 -0.72201524657E+03  0.74085764091E+03  0.10566000000E+00 0.  1.
         13    1    1    2    0    0 -0.13281636295E+03 -0.37861489869E+03 -0.46760354330E+03  0.61615137154E+03  0.10566000000E+00 0. -1.
         -4    1    1    2    0  502 -0.33200156278E+02  0.37702367223E+03  0.21085077639E+03  0.43325183173E+03  0.00000000000E+00 0. -1.
</event>
<event>
 5    1  0.4866530E-005  0.3291265E+03  0.7818608E-02  0.9959596E-01
          4   -1    0    0  502    0 -0.00000000000E+00  0.00000000000E+00  0.26751289366E+04  0.26751289366E+04  0.00000000000E+00 0.  1.
         21   -1    0    0  501  502  0.00000000000E+00 -0.00000000000E+00 -0.46500114195E+02  0.46500114195E+02  0.00000000000E+00 0. -1.
        -13    1    1    2    0    0 -0.27285332912E+03  0.18566529721E+03  0.13967254360E+04  0.14351872688E+04  0.10566000000E+00 0.  1.
         13    1    1    2    0    0  0.29308665231E+03 -0.15034274384E+03  0.11160248265E+04  0.11636211372E+04  0.10566000000E+00 0. -1.
          4    1    1    2  501    0 -0.20233323188E+02 -0.35322553371E+02  0.11587855989E+03  0.12282064479E+03  0.00000000000E+00 0.  1.
</event>
<event>
 5    1  0.4866530E-005  0.2801369E+03  0.7818608E-02  0.1085202E+00
          4   -1    0    0  502    0 -0.00000000000E+00  0.00000000000E+00  0.95688283617E+03  0.95688283617E+03  0.00000000000E+00 0.  1.
         21   -1    0    0  501  502  0.00000000000E+00 -0.00000000000E+00 -0.29400089540E+03  0.29400089540E+03  0.00000000000E+00 0.  1.
        -13    1    1    2    0    0 -0.76712900234E+02 -0.27208372074E+03 -0.19614086230E+03  0.34407218600E+03  0.10566000000E+00 0.  1.
         13    1    1    2    0    0  0.27867364356E+02  0.22205411728E+02  0.11848889639E+03  0.12373075623E+03  0.10566000000E+00 0. -1.
          4    1    1    2  501    0  0.48845535877E+02  0.24987830901E+03  0.74053390668E+03  0.78308078934E+03  0.00000000000E+00 0.  1.
</event>
<event>
 5    1  0.5458333E-005  0.4985398E+03  0.7818608E-02  0.1007225E+00
         -4   -1    0    0    0  501 -0.00000000000E+00  0.00000000000E+00  0.18485296304E+04  0.18485296304E+04  0.00000000000E+00 0. -1.
         21   -1    0    0  501  502  0.00000000000E+00 -0.00000000000E+00 -0.16688727666E+03  0.16688727666E+03  0.00000000000E+00 0. -1.
        -13    1    1    2    0    0 -0.60804271174E+02 -0.24465343282E+02  0.30499148173E+03  0.31195436767E+03  0.10566000000E+00 0.  1.
         13    1    1    2    0    0  0.32506131113E+03 -0.39080057183E+03  0.76252899520E+03  0.91642807826E+03  0.10566000000E+00 0. -1.
         -4    1    1    2    0  502 -0.26425703996E+03  0.41526591512E+03  0.61412187679E+03  0.78703446112E+03  0.00000000000E+00 0. -1.
</event>
<event>
 5    1  0.4866530E-005  0.3209143E+03  0.7818608E-02  0.9990277E-01
         21   -1    0    0  501  502  0.00000000000E+00  0.00000000000E+00  0.27910093844E+03  0.27910093844E+03  0.00000000000E+00 0. -1.
         -4   -1    0    0    0  501 -0.00000000000E+00 -0.00000000000E+00 -0.26440397661E+04  0.26440397661E+04  0.00000000000E+00 0. -1.
        -13    1    1    2    0    0  0.39630319302E+03  0.91811241548E+02 -0.10907271471E+04  0.11641182266E+04  0.10566000000E+00 0.  1.
         13    1    1    2    0    0 -0.28204295582E+03 -0.60646638585E+02 -0.14874144757E+04  0.15151330230E+04  0.10566000000E+00 0. -1.
         -4    1    1    2    0  502 -0.11426023720E+03 -0.31164602962E+02  0.21320279525E+03  0.24388945485E+03  0.00000000000E+00 0. -1.
</event>
<event>
 5    1  0.4866530E-005  0.2182165E+02  0.7818608E-02  0.1510178E+00
         21   -1    0    0  501  502  0.00000000000E+00  0.00000000000E+00  0.19874471482E+03  0.19874471482E+03  0.00000000000E+00 0.  1.
          4   -1    0    0  502    0 -0.00000000000E+00 -0.00000000000E+00 -0.67373020851E+02  0.67373020851E+02  0.00000000000E+00 0.  1.
        -13    1    1    2    0    0  0.27065042558E+02 -0.69012923656E+01 -0.62320299250E+02  0.68293302949E+02  0.10566000000E+00 0.  1.
         13    1    1    2    0    0 -0.12301824976E+02 -0.91407168186E+01  0.44900317193E+02  0.47444043354E+02  0.10566000000E+00 0. -1.
          4    1    1    2  501    0 -0.14763217583E+02  0.16042009184E+02  0.14879167603E+03  0.15038038937E+03  0.00000000000E+00 0.  1.
</event>
<event>
 5    1  0.4866530E-005  0.1411987E+03  0.7818608E-02  0.1110131E+00
         21   -1    0    0  501  502  0.00000000000E+00  0.00000000000E+00  0.17258133321E+03  0.17258133321E+03  0.00000000000E+00 0. -1.
         -4   -1    0    0    0  501 -0.00000000000E+00 -0.00000000000E+00 -0.88423799404E+03  0.88423799404E+03  0.00000000000E+00 0. -1.
        -13    1    1    2    0    0 -0.18499577901E+03  0.13540680041E+02 -0.12744704552E+03  0.22505454637E+03  0.10566000000E+00 0.  1.
         13    1    1    2    0    0  0.13241879883E+03 -0.28581624577E+02 -0.69507096800E+03  0.70814921399E+03  0.10566000000E+00 0. -1.
         -4    1    1    2    0  502  0.52576980178E+02  0.15040944536E+02  0.11086135270E+03  0.12361556690E+03  0.00000000000E+00 0. -1.
</event>
<event>
 5    1  0.4866530E-005  0.3923487E+03  0.7818608E-02  0.9912328E-01
         21   -1    0    0  501  502  0.00000000000E+00  0.00000000000E+00  0.91625379689E+03  0.91625379689E+03  0.00000000000E+00 0. -1.
         -4   -1    0    0    0  501 -0.00000000000E+00 -0.00000000000E+00 -0.69665590212E+03  0.69665590212E+03  0.00000000000E+00 0. -1.
        -13    1    1    2    0    0 -0.80316842678E+02  0.21264176031E+03 -0.36241095184E+03  0.42779553834E+03  0.10566000000E+00 0.  1.
         13    1    1    2    0    0 -0.17561428110E+03  0.13669542903E+03 -0.19479426252E+03  0.29575468199E+03  0.10566000000E+00 0. -1.
         -4    1    1    2    0  502  0.25593112378E+03 -0.34933718934E+03  0.77680310912E+03  0.88935947868E+03  0.00000000000E+00 0. -1.
</event>
<event>
 5    1  0.4866530E-005  0.4934776E+03  0.7818608E-02  0.9750223E-01
          4   -1    0    0  502    0 -0.00000000000E+00  0.00000000000E+00  0.97770647918E+03  0.97770647918E+03  0.00000000000E+00 0.  1.
         21   -1    0    0  501  502  0.00000000000E+00 -0.00000000000E+00 -0.51618161452E+03  0.51618161452E+03  0.00000000000E+00 0.  1.
        -13    1    1    2    0    0 -0.23093830321E+03  0.47663376169E+03  0.80918499942E+02  0.53577985915E+03  0.10566000000E+00 0.  1.
         13    1    1    2    0    0 -0.12698433648E+03 -0.15191336680E+03  0.42893292275E+03  0.47242582075E+03  0.10566000000E+00 0. -1.
          4    1    1    2  501    0  0.35792263970E+03 -0.32472039489E+03 -0.48326558034E+02  0.48568241380E+03  0.00000000000E+00 0.  1.
</event>
<event>
 5    1  0.4866530E-005  0.4264919E+03  0.7818608E-02  0.9965358E-01
         21   -1    0    0  501  502  0.00000000000E+00  0.00000000000E+00  0.47587745319E+03  0.47587745319E+03  0.00000000000E+00 0. -1.
         -4   -1    0    0    0  501 -0.00000000000E+00 -0.00000000000E+00 -0.12552821327E+04  0.12552821327E+04  0.00000000000E+00 0. -1.
        -13    1    1    2    0    0  0.14825352538E+03 -0.67502462806E+01 -0.72916837987E+03  0.74411773999E+03  0.10566000000E+00 0.  1.
         13    1    1    2    0    0 -0.11092365133E+03 -0.42148340305E+03 -0.26129904388E+03  0.50816288429E+03  0.10566000000E+00 0. -1.
         -4    1    1    2    0  502 -0.37329874045E+02  0.42823364934E+03  0.21106274419E+03  0.47887896164E+03  0.00000000000E+00 0. -1.
</event>
<event>
 5    1  0.4866530E-005  0.7751465E+02  0.7818608E-02  0.1208286E+00
         21   -1    0    0  501  502  0.00000000000E+00  0.00000000000E+00  0.52418074154E+02  0.52418074154E+02  0.00000000000E+00 0.  1.
         -4   -1    0    0    0  501 -0.00000000000E+00 -0.00000000000E+00 -0.37275565948E+03  0.37275565948E+03  0.00000000000E+00 0. -1.
        -13    1    1    2    0    0 -0.56332459135E+02 -0.57703983751E+02  0.67703755569E+00  0.80644685112E+02  0.10566000000E+00 0.  1.
         13    1    1    2    0    0  0.60237543572E+02  0.48323937426E+02 -0.32467231930E+03  0.33373026633E+03  0.10566000000E+00 0. -1.
         -4    1    1    2    0  502 -0.39050844367E+01  0.93800463253E+01  0.36576964224E+01  0.10798782183E+02  0.00000000000E+00 0. -1.
</event>
<event>
 5    1  0.4866530E-005  0.2123347E+03  0.7818608E-02  0.1051994E+00
         -4   -1    0    0    0  501 -0.00000000000E+00  0.00000000000E+00  0.10804407305E+04  0.10804407305E+04  0.00000000000E+00 0. -1.
         21   -1    0    0  501  502  0.00000000000E+00 -0.00000000000E+00 -0.99263380617E+02  0.99263380617E+02  0.00000000000E+00 0.  1.
        -13    1    1    2    0    0  0.22303758255E+03 -0.70955166877E+02  0.17200100155E+03  0.29045611482E+03  0.10566000000E+00 0.  1.
         13    1    1    2    0    0 -0.20580778004E+03  0.30715987341E+02  0.81846290951E+03  0.84450095299E+03  0.10566000000E+00 0. -1.
         -4    1    1    2    0  502 -0.17229802516E+02  0.40239179536E+02 -0.92865611921E+01  0.44747043291E+02  0.00000000000E+00 0. -1.
</event>
<event>
 5    1  0.4866530E-005  0.5043358E+03  0.7818608E-02  0.9592125E-01
          4   -1    0    0  502    0 -0.00000000000E+00  0.00000000000E+00  0.25285751164E+04  0.25285751164E+04  0.00000000000E+00 0.  1.
         21   -1    0    0  501  502  0.00000000000E+00 -0.00000000000E+00 -0.51150625731E+03  0.51150625731E+03  0.00000000000E+00 0.  1.
        -13    1    1    2    0    0  0.39333142902E+02  0.37181165426E+03  0.13397100852E+03  0.39716400222E+03  0.10566000000E+00 0.  1.
         13    1    1    2    0    0 -0.16263683923E+03  0.27882193039E+03  0.19507324437E+04  0.19772580733E+04  0.10566000000E+00 0. -1.
          4    1    1    2  501    0  0.12330369633E+03 -0.65063358465E+03 -0.67634593184E+02  0.66565929814E+03  0.00000000000E+00 0.  1.
</event>
<event>
 5    1  0.4866530E-005  0.4241201E+03  0.7818608E-02  0.9661863E-01
         -4   -1    0    0    0  501 -0.00000000000E+00  0.00000000000E+00  0.10117251074E+04  0.10117251074E+04  0.00000000000E+00 0. -1.
         21   -1    0    0  501  502  0.00000000000E+00 -0.00000000000E+00 -0.36392281832E+03  0.36392281832E+03  0.00000000000E+00 0.  1.
        -13    1    1    2    0    0 -0.43123149708E+03 -0.47741713447E+02 -0.99029048787E+02  0.44502431276E+03  0.10566000000E+00 0.  1.
         13    1    1    2    0    0  0.41909402433E+03  0.51270688661E+02  0.78449312231E+03  0.89089727514E+03  0.10566000000E+00 0. -1.
         -4    1    1    2    0  502  0.12137472753E+02 -0.35289752148E+01 -0.37661784432E+02  0.39726337831E+02  0.00000000000E+00 0. -1.
</event>
<event>
 5    1  0.4866530E-005  0.4920928E+03  0.7818608E-02  0.9904714E-01
         21   -1    0    0  501  502  0.00000000000E+00  0.00000000000E+00  0.35688103687E+03  0.35688103687E+03  0.00000000000E+00 0.  1.
          4   -1    0    0  502    0 -0.00000000000E+00 -0.00000000000E+00 -0.13227350642E+04  0.13227350642E+04  0.00000000000E+00 0.  1.
        -13    1    1    2    0    0  0.40093067885E+03  0.23712688281E+03 -0.18207520065E+03  0.50012594179E+03  0.10566000000E+00 0.  1.
         13    1    1    2    0    0 -0.13506747032E+02  0.11740071795E+03 -0.61740269119E+03  0.62861073412E+03  0.10566000000E+00 0. -1.
          4    1    1    2  501    0 -0.38742393182E+03 -0.35452760076E+03 -0.16637613553E+03  0.55087942521E+03  0.00000000000E+00 0.  1.
</event>
<event>
 5    1  0.4866530E-005  0.1464450E+03  0.7818608E-02  0.1104671E+00
         -4   -1    0    0    0  501 -0.00000000000E+00  0.00000000000E+00  0.64989477139E+03  0.64989477139E+03  0.00000000000E+00 0. -1.
         21   -1    0    0  501  502  0.00000000000E+00 -0.00000000000E+00 -0.63323203482E+02  0.63323203482E+02  0.00000000000E+00 0.  1.
        -13    1    1    2    0    0 -0.80729373244E+02  0.12784209429E+03  0.10598537662E+03  0.18464491327E+03  0.10566000000E+00 0.  1.
         13    1    1    2    0    0  0.67234909839E+02 -0.12878482557E+03  0.49065405585E+03  0.51171034588E+03  0.10566000000E+00 0. -1.
         -4    1    1    2    0  502  0.13494463405E+02  0.94273128314E+00 -0.10067864554E+02  0.16862715722E+02  0.00000000000E+00 0. -1.
</event>
<event>
 5    1  0.4866530E-005  0.4797691E+03  0.7818608E-02  0.9523451E-01
         21   -1    0    0  501  502  0.00000000000E+00  0.00000000000E+00  0.30171153690E+03  0.30171153690E+03  0.00000000000E+00 0. -1.
         -4   -1    0    0    0  501 -0.00000000000E+00 -0.00000000000E+00 -0.20719522163E+04  0.20719522163E+04  0.00000000000E+00 0. -1.
        -13    1    1    2    0    0  0.38800122807E+03 -0.19176647950E+03 -0.75881947933E+03  0.87357103261E+03  0.10566000000E+00 0.  1.
         13    1    1    2    0    0 -0.66009618140E+03  0.13585316279E+03 -0.30253063912E+03  0.73872041349E+03  0.10566000000E+00 0. -1.
         -4    1    1    2    0  502  0.27209495333E+03  0.55913316713E+02 -0.70889056094E+03  0.76137230709E+03  0.00000000000E+00 0. -1.
</event>
<event>
 5    1  0.4866530E-005  0.4270563E+03  0.7818608E-02  0.9654008E-01
          4   -1    0    0  502    0 -0.00000000000E+00  0.00000000000E+00  0.14019022317E+04  0.14019022317E+04  0.00000000000E+00 0.  1.
         21   -1    0    0  501  502  0.00000000000E+00 -0.00000000000E+00 -0.53190226139E+03  0.53190226139E+03  0.00000000000E+00 0.  1.
        -13    1    1    2    0    0 -0.42815180837E+03 -0.15289977581E+03 -0.37737051378E+03  0.59084755080E+03  0.10566000000E+00 0.  1.
         13    1    1    2    0    0  0.40070477121E+03  0.13974507199E+03  0.90857310317E+03  0.10027951405E+04  0.10566000000E+00 0. -1.
          4    1    1    2  501    0  0.27447037159E+02  0.13154703811E+02  0.33879738094E+03  0.34016180181E+03  0.00000000000E+00 0.  1.
</event>
<event>
 5    1  0.4866530E-005  0.2215807E+03  0.7818608E-02  0.1046270E+00
         21   -1    0    0  501  502  0.00000000000E+00  0.00000000000E+00  0.77943044723E+02  0.77943044723E+02  0.00000000000E+00 0.  1.
          4   -1    0    0  502    0 -0.00000000000E+00 -0.00000000000E+00 -0.15492780776E+04  0.15492780776E+04  0.00000000000E+00 0.  1.
        -13    1    1    2    0    0  0.21296506647E+03  0.75553294844E+02 -0.11918965100E+04  0.12131280731E+04  0.10566000000E+00 0.  1.
         13    1    1    2    0    0 -0.19899001369E+03 -0.62635133130E+02 -0.31262412572E+03  0.37583778495E+03  0.10566000000E+00 0. -1.
          4    1    1    2  501    0 -0.13975052781E+02 -0.12918161714E+02  0.33185602915E+02  0.38255264254E+02  0.00000000000E+00 0.  1.
</event>
<event>
 5    1  0.4866530E-005  0.5021292E+03  0.7818608E-02  0.9821570E-01
          4   -1    0    0  502    0 -0.00000000000E+00  0.00000000000E+00  0.13150817379E+04  0.13150817379E+04  0.00000000000E+00 0.  1.
         21   -1    0    0  501  502  0.00000000000E+00 -0.00000000000E+00 -0.32394477280E+03  0.32394477280E+03  0.00000000000E+00 0.  1.
        -13    1    1    2    0    0  0.27991146904E+03  0.40145399127E+03  0.30548767651E+03  0.57692154516E+03  0.10566000000E+00 0.  1.
         13    1    1    2    0    0 -0.11326573265E+03  0.94026574550E+02  0.47708714196E+03  0.49928175923E+03  0.10566000000E+00 0. -1.
          4    1    1    2  501    0 -0.16664573639E+03 -0.49548056582E+03  0.20856214664E+03  0.56282320632E+03  0.00000000000E+00 0.  1.
</event>
<event>
 5    1  0.4866530E-005  0.3159244E+03  0.7818608E-02  0.1000940E+00
          4   -1    0    0  502    0 -0.00000000000E+00  0.00000000000E+00  0.62285980086E+03  0.62285980086E+03  0.00000000000E+00 0.  1.
         21   -1    0    0  501  502  0.00000000000E+00 -0.00000000000E+00 -0.55099479423E+03  0.55099479423E+03  0.00000000000E+00 0. -1.
        -13    1    1    2    0    0 -0.31051117998E+03  0.55232821276E+02  0.48403398358E+03  0.57771685614E+03  0.10566000000E+00 0.  1.
         13    1    1    2    0    0  0.32338009675E+03 -0.16792085353E+01 -0.20760364159E+03  0.38428737929E+03  0.10566000000E+00 0. -1.
          4    1    1    2  501    0 -0.12868916770E+02 -0.53553612741E+02 -0.20456533536E+03  0.21185035966E+03  0.00000000000E+00 0.  1.
</event>
<event>
 5    1  0.4866530E-005  0.4810707E+03  0.7818608E-02  0.9794759E-01
          4   -1    0    0  502    0 -0.00000000000E+00  0.00000000000E+00  0.21704267341E+04  0.21704267341E+04  0.00000000000E+00 0.  1.
         21   -1    0    0  501  502  0.00000000000E+00 -0.00000000000E+00 -0.16729932147E+03  0.16729932147E+03  0.00000000000E+00 0.  1.
        -13    1    1    2    0    0  0.27146508230E+03  0.24483302350E+03  0.11025341344E+04  0.11615584483E+04  0.10566000000E+00 0.  1.
         13    1    1    2    0    0  0.15704373131E+03  0.94755959136E+02  0.37647130162E+03  0.41877449474E+03  0.10566000000E+00 0. -1.
          4    1    1    2  501    0 -0.42850881360E+03 -0.33958898264E+03  0.52412197668E+03  0.75739311252E+03  0.00000000000E+00 0.  1.
</event>
<event>
 5    1  0.4866530E-005  0.4167486E+03  0.7818608E-02  0.9770176E-01
         21   -1    0    0  501  502  0.00000000000E+00  0.00000000000E+00  0.69932786007E+03  0.69932786007E+03  0.00000000000E+00 0.  1.
          4   -1    0    0  502    0 -0.00000000000E+00 -0.00000000000E+00 -0.15108393005E+04  0.15108393005E+04  0.00000000000E+00 0.  1.
        -13    1    1    2    0    0 -0.10973943215E+03 -0.33421562512E+03  0.35015712553E+03  0.49633945115E+03  0.10566000000E+00 0.  1.
         13    1    1    2    0    0 -0.45693371994E+03  0.16445097229E+03 -0.98211929158E+03  0.10956235032E+04  0.10566000000E+00 0. -1.
          4    1    1    2  501    0  0.56667315209E+03  0.16976465282E+03 -0.17954927436E+03  0.61820420621E+03  0.00000000000E+00 0.  1.
</event>
<event>
 5    1  0.4866530E-005  0.4335407E+03  0.7818608E-02  0.9701225E-01
          4   -1    0    0  502    0 -0.00000000000E+00  0.00000000000E+00  0.22127280715E+03  0.22127280715E+03  0.00000000000E+00 0.  1.
         21   -1    0    0  501  502  0.00000000000E+00 -0.00000000000E+00 -0.27950214288E+04  0.27950214288E+04  0.00000000000E+00 0.  1.
        -13    1    1    2    0    0 -0.77896582472E+02  0.28623069028E+03 -0.17555603270E+03  0.34469670350E+03  0.10566000000E+00 0.  1.
         13    1    1    2    0    0  0.30786978775E+03  0.15794607285E+03 -0.16549901935E+03  0.38356316912E+03  0.10566000000E+00 0. -1.
          4    1    1    2  501    0 -0.22997320528E+03 -0.44417676313E+03 -0.22326935696E+04  0.22880343633E+04  0.00000000000E+00 0.  1.
</event>
<event>
 5    1  0.4866530E-005  0.5246695E+03  0.7818608E-02  0.9867539E-01
         21   -1    0    0  501  502  0.00000000000E+00  0.00000000000E+00  0.35969782815E+03  0.35969782815E+03  0.00000000000E+00 0. -1.
         -4   -1    0    0    0  501 -0.00000000000E+00 -0.00000000000E+00 -0.10762566600E+04  0.10762566600E+04  0.00000000000E+00 0. -1.
        -13    1    1    2    0    0  0.10938227362E+03  0.15337033249E+02 -0.25277809383E+03  0.27585590850E+03  0.10566000000E+00 0.  1.
         13    1    1    2    0    0 -0.57248385738E+03 -0.13971009086E+02 -0.12455440729E+03  0.58604331546E+03  0.10566000000E+00 0. -1.
         -4    1    1    2    0  502  0.46310158376E+03 -0.13660241628E+01 -0.33922633077E+03  0.57405526423E+03  0.00000000000E+00 0. -1.
</event>
<event>
 5    1  0.4866530E-005  0.4379781E+02  0.7818608E-02  0.1319332E+00
         21   -1    0    0  501  502  0.00000000000E+00  0.00000000000E+00  0.10117565776E+03  0.10117565776E+03  0.00000000000E+00 0. -1.
         -4   -1    0    0    0  501 -0.00000000000E+00 -0.00000000000E+00 -0.31943689157E+02  0.31943689157E+02  0.00000000000E+00 0. -1.
        -13    1    1    2    0    0  0.30066838643E+02  0.14394036985E+02  0.36524516661E+02  0.49449515348E+02  0.10566000000E+00 0.  1.
         13    1    1    2    0    0 -0.48114597847E+02 -0.16381970596E+02  0.57269274386E+01  0.51148727731E+02  0.10566000000E+00 0. -1.
         -4    1    1    2    0  502  0.18047759204E+02  0.19879336111E+01  0.26980524499E+02  0.32521103834E+02  0.00000000000E+00 0. -1.
</event>
<event>
 5    1  0.4866530E-005  0.4197591E+03  0.7818608E-02  0.9958636E-01
         -4   -1    0    0    0  501 -0.00000000000E+00  0.00000000000E+00  0.67032274288E+03  0.67032274288E+03  0.00000000000E+00 0. -1.
         21   -1    0    0  501  502  0.00000000000E+00 -0.00000000000E+00 -0.68432352613E+03  0.68432352613E+03  0.00000000000E+00 0. -1.
        -13    1    1    2    0    0  0.15569796235E+03  0.33007780611E+02  0.27939752166E+03  0.32154992666E+03  0.10566000000E+00 0.  1.
         13    1    1    2    0    0  0.30145249828E+03 -0.33135879264E+01  0.19846799095E+03  0.36093509552E+03  0.10566000000E+00 0. -1.
         -4    1    1    2    0  502 -0.45715046063E+03 -0.29694192685E+02 -0.49186629586E+03  0.67216124683E+03  0.00000000000E+00 0. -1.
</event>
<event>
 5    1  0.4866530E-005  0.4231224E+03  0.7818608E-02  0.1000816E+00
         21   -1    0    0  501  502  0.00000000000E+00  0.00000000000E+00  0.49169311444E+03  0.49169311444E+03  0.00000000000E+00 0.  1.
          4   -1    0    0  502    0 -0.00000000000E+00 -0.00000000000E+00 -0.64959781816E+03  0.64959781816E+03  0.00000000000E+00 0.  1.
        -13    1    1    2    0    0 -0.51204887304E+03  0.10680499278E+03 -0.28135199011E+03  0.59393628309E+03  0.10566000000E+00 0.  1.
         13    1    1    2    0    0  0.12716634643E+03 -0.35532237651E+02 -0.13355550903E+02  0.13271096971E+03  0.10566000000E+00 0. -1.
          4    1    1    2  501    0  0.38488252662E+03 -0.71272755125E+02  0.13680283729E+03  0.41464367981E+03  0.00000000000E+00 0.  1.
</event>
<event>
 5    1  0.4866530E-005  0.1331993E+03  0.7818608E-02  0.1118974E+00
         21   -1    0    0  501  502  0.00000000000E+00  0.00000000000E+00  0.43872044939E+03  0.43872044939E+03  0.00000000000E+00 0. -1.
          4   -1    0    0  502    0 -0.00000000000E+00 -0.00000000000E+00 -0.50980937935E+02  0.50980937935E+02  0.00000000000E+00 0.  1.
        -13    1    1    2    0    0 -0.11899934724E+03 -0.61991277736E+02  0.11344455287E+03  0.17570839735E+03  0.10566000000E+00 0.  1.
         13    1    1    2    0    0  0.10686473680E+03  0.78275416245E+02  0.23515582512E+03  0.26989884403E+03  0.10566000000E+00 0. -1.
          4    1    1    2  501    0  0.12134610442E+02 -0.16284138510E+02  0.39139133466E+02  0.44094145939E+02  0.00000000000E+00 0.  1.
</event>
<event>
 5    1  0.4866530E-005  0.2921713E+03  0.7818608E-02  0.1010590E+00
         21   -1    0    0  501  502  0.00000000000E+00  0.00000000000E+00  0.62706289736E+02  0.62706289736E+02  0.00000000000E+00 0. -1.
          4   -1    0    0  502    0 -0.00000000000E+00 -0.00000000000E+00 -0.20958516163E+04  0.20958516163E+04  0.00000000000E+00 0.  1.
        -13    1    1    2    0    0  0.10736830619E+03  0.24063396608E+03 -0.97628942291E+03  0.10112238660E+04  0.10566000000E+00 0.  1.
         13    1    1    2    0    0 -0.12276546456E+03 -0.31573728591E+03 -0.98735763149E+03  0.10438565498E+04  0.10566000000E+00 0. -1.
          4    1    1    2  501    0  0.15397158376E+02  0.75103319832E+02 -0.69498272166E+02  0.10347749016E+03  0.00000000000E+00 0.  1.
</event>
<event>
 5    1  0.4866530E-005  0.5044784E+03  0.7818608E-02  0.9468210E-01
         21   -1    0    0  501  502  0.00000000000E+00  0.00000000000E+00  0.43966945680E+03  0.43966945680E+03  0.00000000000E+00 0. -1.
          4   -1    0    0  502    0 -0.00000000000E+00 -0.00000000000E+00 -0.13784756585E+04  0.13784756585E+04  0.00000000000E+00 0.  1.
        -13    1    1    2    0    0  0.50456009442E+03 -0.23402238193E+02 -0.11200740469E+04  0.12286962339E+04  0.10566000000E+00 0.  1.
         13    1    1    2    0    0 -0.50085526602E+03  0.13042141266E+02  0.10438594434E+03  0.51178367646E+03  0.10566000000E+00 0. -1.
          4    1    1    2  501    0 -0.37048283976E+01  0.10360096927E+02  0.76881900881E+02  0.77665204853E+02  0.00000000000E+00 0.  1.
</event>
<event>
 5    1  0.4866530E-005  0.4650232E+03  0.7818608E-02  0.1023206E+00
          4   -1    0    0  502    0 -0.00000000000E+00  0.00000000000E+00  0.24060737655E+04  0.24060737655E+04  0.00000000000E+00 0.  1.
         21   -1    0    0  501  502  0.00000000000E+00 -0.00000000000E+00 -0.11734013549E+03  0.11734013549E+03  0.00000000000E+00 0.  1.
        -13    1    1    2    0    0 -0.38747553894E+03 -0.27349444679E+03  0.15672873255E+04  0.16374755197E+04  0.10566000000E+00 0.  1.
         13    1    1    2    0    0 -0.14527459518E+02  0.46350073013E+02  0.10544702310E+03  0.11609677943E+03  0.10566000000E+00 0. -1.
          4    1    1    2  501    0  0.40200299846E+03  0.22714437378E+03  0.61599928147E+03  0.76984160194E+03  0.00000000000E+00 0.  1.
</event>
<event>
 5    1  0.4866530E-005  0.3377969E+03  0.7818608E-02  0.9928225E-01
         21   -1    0    0  501  502  0.00000000000E+00  0.00000000000E+00  0.56987131348E+03  0.56987131348E+03  0.00000000000E+00 0. -1.
         -4   -1    0    0    0  501 -0.00000000000E+00 -0.00000000000E+00 -0.16121700828E+04  0.16121700828E+04  0.00000000000E+00 0. -1.
        -13    1    1    2    0    0  0.21304116712E+03 -0.27544115875E+03 -0.11258731937E+04  0.11784926093E+04  0.10566000000E+00 0.  1.
         13    1    1    2    0    0  0.37065269011E+02  0.20084086701E+03  0.48414174025E+03  0.52545611030E+03  0.10566000000E+00 0. -1.
         -4    1    1    2    0  502 -0.25010643613E+03  0.74600291744E+02 -0.40056731591E+03  0.47809267668E+03  0.00000000000E+00 0. -1.
</event>
<event>
 5    1  0.4866530E-005  0.5209499E+03  0.7818608E-02  0.9433200E-01
         21   -1    0    0  501  502  0.00000000000E+00  0.00000000000E+00  0.15905342797E+03  0.15905342797E+03  0.00000000000E+00 0.  1.
         -4   -1    0    0    0  501 -0.00000000000E+00 -0.00000000000E+00 -0.24094504434E+04  0.24094504434E+04  0.00000000000E+00 0. -1.
        -13    1    1    2    0    0  0.50165120735E+03 -0.54461974831E+02 -0.58338372492E+03  0.77133431287E+03  0.10566000000E+00 0.  1.
         13    1    1    2    0    0 -0.52702249942E+03  0.34351123500E+02 -0.16809171823E+04  0.17619351008E+04  0.10566000000E+00 0. -1.
         -4    1    1    2    0  502  0.25371292070E+02  0.20110851331E+02  0.13903891780E+02  0.35234457697E+02  0.00000000000E+00 0. -1.
</event>
<event>
 5    1  0.4866530E-005  0.4707847E+03  0.7818608E-02  0.9544412E-01
         21   -1    0    0  501  502  0.00000000000E+00  0.00000000000E+00  0.29564352830E+03  0.29564352830E+03  0.00000000000E+00 0.  1.
          4   -1    0    0  502    0 -0.00000000000E+00 -0.00000000000E+00 -0.19237512224E+04  0.19237512224E+04  0.00000000000E+00 0.  1.
        -13    1    1    2    0    0  0.32611011207E+03 -0.52469674557E+03 -0.93003076342E+03  0.11165176721E+04  0.10566000000E+00 0.  1.
         13    1    1    2    0    0 -0.36978199872E+03  0.17200970326E+03 -0.61496397203E+03  0.73790701491E+03  0.10566000000E+00 0. -1.
          4    1    1    2  501    0  0.43671886650E+02  0.35268704231E+03 -0.83112958637E+02  0.36497006369E+03  0.00000000000E+00 0.  1.
</event>
<event>
 5    1  0.4866530E-005  0.4911826E+03  0.7818608E-02  0.9829685E-01
         21   -1    0    0  501  502  0.00000000000E+00  0.00000000000E+00  0.17318441544E+03  0.17318441544E+03  0.00000000000E+00 0.  1.
          4   -1    0    0  502    0 -0.00000000000E+00 -0.00000000000E+00 -0.19664919164E+04  0.19664919164E+04  0.00000000000E+00 0.  1.
        -13    1    1    2    0    0 -0.23701902348E+03  0.48887180809E+03 -0.96662812178E+03  0.11088478702E+04  0.10566000000E+00 0.  1.
         13    1    1    2    0    0  0.14892885670E+03 -0.35040802391E+02 -0.18790033817E+03  0.24231015339E+03  0.10566000000E+00 0. -1.
          4    1    1    2  501    0  0.88090166776E+02 -0.45383100570E+03 -0.63877904099E+03  0.78851830824E+03  0.00000000000E+00 0.  1.
</event>
<event>
 5    1  0.4866530E-005  0.7229232E+02  0.7818608E-02  0.1220838E+00
         21   -1    0    0  501  502  0.00000000000E+00  0.00000000000E+00  0.15849579049E+03  0.15849579049E+03  0.00000000000E+00 0.  1.
          4   -1    0    0  502    0 -0.00000000000E+00 -0.00000000000E+00 -0.25014370305E+03  0.25014370305E+03  0.00000000000E+00 0.  1.
        -13    1    1    2    0    0 -0.71103087026E+02 -0.16143906526E+02 -0.22916795714E+03  0.24048750164E+03  0.10566000000E+00 0.  1.
         13    1    1    2    0    0  0.64986468747E+02  0.45165616182E+01  0.56978539753E+02  0.86545973941E+02  0.10566000000E+00 0. -1.
          4    1    1    2  501    0  0.61166182796E+01  0.11627344908E+02  0.80541504824E+02  0.81606017964E+02  0.00000000000E+00 0.  1.
</event>
<event>
 5    1  0.4866530E-005  0.3799313E+03  0.7818608E-02  0.1008385E+00
         21   -1    0    0  501  502  0.00000000000E+00  0.00000000000E+00  0.14767550620E+03  0.14767550620E+03  0.00000000000E+00 0. -1.
         -4   -1    0    0    0  501 -0.00000000000E+00 -0.00000000000E+00 -0.24533472368E+04  0.24533472368E+04  0.00000000000E+00 0. -1.
        -13    1    1    2    0    0  0.36007015655E+02 -0.13802072508E+03 -0.60249512876E+03  0.61914991486E+03  0.10566000000E+00 0.  1.
         13    1    1    2    0    0 -0.26309689598E+03  0.30390205433E+03 -0.19329744416E+03  0.44602729556E+03  0.10566000000E+00 0. -1.
         -4    1    1    2    0  502  0.22708988033E+03 -0.16588132926E+03 -0.15098791577E+04  0.15358455326E+04  0.00000000000E+00 0. -1.
</event>
<event>
 5    1  0.4866530E-005  0.3462787E+03  0.7818608E-02  0.1001613E+00
          4   -1    0    0  502    0 -0.00000000000E+00  0.00000000000E+00  0.15094133015E+04  0.15094133015E+04  0.00000000000E+00 0.  1.
         21   -1    0    0  501  502  0.00000000000E+00 -0.00000000000E+00 -0.33552532964E+03  0.33552532964E+03  0.00000000000E+00 0.  1.
        -13    1    1    2    0    0  0.76529748590E+02 -0.21674527307E+03  0.69249085004E+03  0.72964299789E+03  0.10566000000E+00 0.  1.
         13    1    1    2    0    0 -0.18980236701E+03 -0.13804421513E+03  0.66128300000E+03  0.70169534779E+03  0.10566000000E+00 0. -1.
          4    1    1    2  501    0  0.11327261842E+03  0.35478948820E+03 -0.17988587813E+03  0.41360028551E+03  0.00000000000E+00 0.  1.
</event>
<event>
 5    1  0.4866530E-005  0.3822862E+03  0.7818608E-02  0.1003521E+00
         -4   -1    0    0    0  501 -0.00000000000E+00  0.00000000000E+00  0.14861222399E+04  0.14861222399E+04  0.00000000000E+00 0. -1.
         21   -1    0    0  501  502  0.00000000000E+00 -0.00000000000E+00 -0.36416668998E+03  0.36416668998E+03  0.00000000000E+00 0. -1.
        -13    1    1    2    0    0  0.14774624007E+03 -0.70977455310E+02  0.75216897800E+03  0.76982136450E+03  0.10566000000E+00 0.  1.
         13    1    1    2    0    0 -0.49240953898E+03  0.15144637590E+03  0.48570694703E+03  0.70803559827E+03  0.10566000000E+00 0. -1.
         -4    1    1    2    0  502  0.34466329891E+03 -0.80468920593E+02 -0.11592037508E+03  0.37243196715E+03  0.00000000000E+00 0. -1.
</event>
<event>
 5    1  0.4866530E-005  0.9051401E+02  0.7818608E-02  0.1192505E+00
          4   -1    0    0  502    0 -0.00000000000E+00  0.00000000000E+00  0.78320813241E+03  0.78320813241E+03  0.00000000000E+00 0.  1.
         21   -1    0    0  501  502  0.00000000000E+00 -0.00000000000E+00 -0.38193432609E+03  0.38193432609E+03  0.00000000000E+00 0.  1.
        -13    1    1    2    0    0  0.86990977735E+02 -0.25897717983E+02 -0.36227482854E+03  0.37347179889E+03  0.10566000000E+00 0.  1.
         13    1    1    2    0    0 -0.46988082021E+02 -0.51499671646E+02  0.97006560712E+02  0.11945869586E+03  0.10566000000E+00 0. -1.
          4    1    1    2  501    0 -0.40002895714E+02  0.77397389630E+02  0.66654207415E+03  0.67221196375E+03  0.00000000000E+00 0.  1.
</event>
<event>
 5    1  0.4866530E-005  0.1207262E+03  0.7818608E-02  0.1134197E+00
         21   -1    0    0  501  502  0.00000000000E+00  0.00000000000E+00  0.51615397883E+02  0.51615397883E+02  0.00000000000E+00 0.  1.
         -4   -1    0    0    0  501 -0.00000000000E+00 -0.00000000000E+00 -0.40166080160E+03  0.40166080160E+03  0.00000000000E+00 0. -1.
        -13    1    1    2    0    0  0.96382889484E+02  0.59693901748E+02 -0.49639768732E+02  0.12376243814E+03  0.10566000000E+00 0.  1.
         13    1    1    2    0    0 -0.10576827306E+03 -0.63217378696E+02 -0.28985835518E+03  0.31496228630E+03  0.10566000000E+00 0. -1.
         -4    1    1    2    0  502  0.93853835803E+01  0.35234769476E+01 -0.10547279805E+02  0.14551475047E+02  0.00000000000E+00 0. -1.
</event>
<event>
 5    1  0.4866530E-005  0.2409404E+03  0.7818608E-02  0.1050418E+00
          4   -1    0    0  502    0 -0.00000000000E+00  0.00000000000E+00  0.83202551459E+02  0.83202551459E+02  0.00000000000E+00 0.  1.
         21   -1    0    0  501  502  0.00000000000E+00 -0.00000000000E+00 -0.13697646579E+04  0.13697646579E+04  0.00000000000E+00 0.  1.
        -13    1    1    2    0    0  0.23635721686E+03  0.89629270320E+02 -0.37801180010E+03  0.45474286387E+03  0.10566000000E+00 0.  1.
         13    1    1    2    0    0  0.82447304200E+01 -0.15206329574E+03 -0.44581663691E+03  0.47110901753E+03  0.10566000000E+00 0. -1.
          4    1    1    2  501    0 -0.24460194728E+03  0.62434025417E+02 -0.46273366943E+03  0.52711532796E+03  0.00000000000E+00 0.  1.
</event>
<event>
 5    1  0.4866530E-005  0.4151301E+03  0.7818608E-02  0.9785479E-01
         21   -1    0    0  501  502  0.00000000000E+00  0.00000000000E+00  0.39640029182E+03  0.39640029182E+03  0.00000000000E+00 0.  1.
          4   -1    0    0  502    0 -0.00000000000E+00 -0.00000000000E+00 -0.33436596567E+04  0.33436596567E+04  0.00000000000E+00 0.  1.
        -13    1    1    2    0    0  0.31551837243E+03 -0.14323471600E+03  0.13241708364E+03  0.37094787021E+03  0.10566000000E+00 0.  1.
         13    1    1    2    0    0 -0.22848453501E+03 -0.43657546728E+03 -0.24873287458E+04  0.25356670961E+04  0.10566000000E+00 0. -1.
          4    1    1    2  501    0 -0.87033837412E+02  0.57981018328E+03 -0.59234770272E+03  0.83344498223E+03  0.00000000000E+00 0.  1.
</event>
<event>
 5    1  0.4866530E-005  0.3151128E+02  0.7818608E-02  0.1393169E+00
          4   -1    0    0  502    0 -0.00000000000E+00  0.00000000000E+00  0.21808528369E+02  0.21808528369E+02  0.00000000000E+00 0.  1.
         21   -1    0    0  501  502  0.00000000000E+00 -0.00000000000E+00 -0.19168580824E+03  0.19168580824E+03  0.00000000000E+00 0. -1.
        -13    1    1    2    0    0  0.27680571289E+02 -0.15022745752E+02  0.33812587926E+01  0.31675558273E+02  0.10566000000E+00 0.  1.
         13    1    1    2    0    0 -0.35251750035E+02  0.44717617648E-01 -0.85713482469E+02  0.92679556112E+02  0.10566000000E+00 0. -1.
          4    1    1    2  501    0  0.75711787459E+01  0.14978028134E+02 -0.87545056194E+02  0.89139222222E+02  0.00000000000E+00 0.  1.
</event>
<event>
 5    1  0.4866530E-005  0.3340554E+03  0.7818608E-02  0.1010286E+00
         21   -1    0    0  501  502  0.00000000000E+00  0.00000000000E+00  0.99391723724E+03  0.99391723724E+03  0.00000000000E+00 0.  1.
         -4   -1    0    0    0  501 -0.00000000000E+00 -0.00000000000E+00 -0.48744047621E+03  0.48744047621E+03  0.00000000000E+00 0. -1.
        -13    1    1    2    0    0 -0.38783617600E+02  0.19355060523E+03  0.42476837477E+03  0.46839533425E+03  0.10566000000E+00 0.  1.
         13    1    1    2    0    0 -0.30028344843E+03 -0.17493476253E+03 -0.33002646809E+03  0.47925963876E+03  0.10566000000E+00 0. -1.
         -4    1    1    2    0  502  0.33906706603E+03 -0.18615842694E+02  0.41173485435E+03  0.53370274044E+03  0.00000000000E+00 0. -1.
</event>
<event>
 5    1  0.4866530E-005  0.6535653E+03  0.7818608E-02  0.9422967E-01
         21   -1    0    0  501  502  0.00000000000E+00  0.00000000000E+00  0.73825951638E+03  0.73825951638E+03  0.00000000000E+00 0. -1.
         -4   -1    0    0    0  501 -0.00000000000E+00 -0.00000000000E+00 -0.11246459037E+04  0.11246459037E+04  0.00000000000E+00 0. -1.
        -13    1    1    2    0    0  0.16224094888E+03  0.22076846042E+03 -0.10071115837E+03  0.29189653508E+03  0.10566000000E+00 0.  1.
         13    1    1    2    0    0  0.42407724921E+03 -0.52501402847E+03 -0.53882573634E+03  0.86360548209E+03  0.10566000000E+00 0. -1.
         -4    1    1    2    0  502 -0.58631819809E+03  0.30424556805E+03  0.25315050737E+03  0.70740340293E+03  0.00000000000E+00 0. -1.
</event>
<event>
 5    1  0.4866530E-005  0.3980520E+03  0.7818608E-02  0.9901716E-01
         21   -1    0    0  501  502  0.00000000000E+00  0.00000000000E+00  0.15670659453E+04  0.15670659453E+04  0.00000000000E+00 0. -1.
         -4   -1    0    0    0  501 -0.00000000000E+00 -0.00000000000E+00 -0.25186988154E+03  0.25186988154E+03  0.00000000000E+00 0. -1.
        -13    1    1    2    0    0 -0.22261992108E+03  0.36101235268E+02  0.22742607450E+03  0.32028980467E+03  0.10566000000E+00 0.  1.
         13    1    1    2    0    0  0.17668299729E+03 -0.42712715435E+03  0.15722222090E+03  0.48823490804E+03  0.10566000000E+00 0. -1.
         -4    1    1    2    0  502  0.45936923790E+02  0.39102591909E+03  0.93054776838E+03  0.10104111142E+04  0.00000000000E+00 0. -1.
</event>
<event>
 5    1  0.4866530E-005  0.4958268E+03  0.7818608E-02  0.9487166E-01
         -4   -1    0    0    0  501 -0.00000000000E+00  0.00000000000E+00  0.25414100733E+04  0.25414100733E+04  0.00000000000E+00 0. -1.
         21   -1    0    0  501  502  0.00000000000E+00 -0.00000000000E+00 -0.29173528041E+03  0.29173528041E+03  0.00000000000E+00 0. -1.
        -13    1    1    2    0    0 -0.47370953114E+03 -0.45227828369E+01  0.12810119831E+04  0.13658011889E+04  0.10566000000E+00 0.  1.
         13    1    1    2    0    0  0.53542332668E+03  0.42095417707E+03  0.58861854184E+03  0.90019573255E+03  0.10566000000E+00 0. -1.
         -4    1    1    2    0  502 -0.61713795532E+02 -0.41643139424E+03  0.38004426792E+03  0.56714843229E+03  0.00000000000E+00 0. -1.
</event>
<event>
 5    1  0.4866530E-005  0.3352441E+03  0.7818608E-02  0.1012525E+00
         -4   -1    0    0    0  501 -0.00000000000E+00  0.00000000000E+00  0.29226583619E+03  0.29226583619E+03  0.00000000000E+00 0. -1.
         21   -1    0    0  501  502  0.00000000000E+00 -0.00000000000E+00 -0.12350116095E+04  0.12350116095E+04  0.00000000000E+00 0. -1.
        -13    1    1    2    0    0 -0.14467601302E+03 -0.11006222411E+03 -0.13220573737E+03  0.22477368635E+03  0.10566000000E+00 0.  1.
         13    1    1    2    0    0  0.35504865055E+03 -0.14896783583E+03  0.41678243600E+02  0.38728290373E+03  0.10566000000E+00 0. -1.
         -4    1    1    2    0  502 -0.21037263753E+03  0.25903005994E+03 -0.85221827958E+03  0.91522085565E+03  0.00000000000E+00 0. -1.
</event>
<event>
 5    1  0.4866530E-005  0.1176041E+03  0.7818608E-02  0.1138324E+00
          4   -1    0    0  502    0 -0.00000000000E+00  0.00000000000E+00  0.20207574889E+03  0.20207574889E+03  0.00000000000E+00 0.  1.
         21   -1    0    0  501  502  0.00000000000E+00 -0.00000000000E+00 -0.12529231577E+03  0.12529231577E+03  0.00000000000E+00 0.  1.
        -13    1    1    2    0    0  0.11144284315E+03  0.44915172516E+02  0.13179510166E+03  0.17834472236E+03  0.10566000000E+00 0.  1.
         13    1    1    2    0    0 -0.97544658721E+02 -0.52300714361E+02 -0.22560741544E+02  0.11295717503E+03  0.10566000000E+00 0. -1.
          4    1    1    2  501    0 -0.13898184425E+02  0.73855418447E+01 -0.32450926996E+02  0.36066167270E+02  0.00000000000E+00 0.  1.
</event>
<event>
 5    1  0.4866530E-005  0.4470709E+03  0.7818608E-02  0.9803261E-01
         -4   -1    0    0    0  501 -0.00000000000E+00  0.00000000000E+00  0.23654490110E+04  0.23654490110E+04  0.00000000000E+00 0. -1.
         21   -1    0    0  501  502  0.00000000000E+00 -0.00000000000E+00 -0.17955646625E+03  0.17955646625E+03  0.00000000000E+00 0. -1.
        -13    1    1    2    0    0 -0.20059345007E+03 -0.95080590818E+02  0.22706664861E+03  0.31754893329E+03  0.10566000000E+00 0.  1.
         13    1    1    2    0    0 -0.35761405629E+03  0.20820361127E+03  0.43366297343E+03  0.59941650185E+03  0.10566000000E+00 0. -1.
         -4    1    1    2    0  502  0.55820750636E+03 -0.11312302045E+03  0.15251629227E+04  0.16280400421E+04  0.00000000000E+00 0. -1.
</event>
<event>
 5    1  0.4866530E-005  0.4083677E+03  0.7818608E-02  0.9922050E-01
         -4   -1    0    0    0  501 -0.00000000000E+00  0.00000000000E+00  0.82620115782E+03  0.82620115782E+03  0.00000000000E+00 0. -1.
         21   -1    0    0  501  502  0.00000000000E+00 -0.00000000000E+00 -0.51386949271E+03  0.51386949271E+03  0.00000000000E+00 0. -1.
        -13    1    1    2    0    0  0.67669890288E+02 -0.18305429685E+03  0.30279486965E+03  0.36023996710E+03  0.10566000000E+00 0.  1.
         13    1    1    2    0    0  0.35653827117E+03  0.15259791680E+03  0.27774759798E+03  0.47702138565E+03  0.10566000000E+00 0. -1.
         -4    1    1    2    0  502 -0.42420816146E+03  0.30456380055E+02 -0.26821080252E+03  0.50280929777E+03  0.00000000000E+00 0. -1.
</event>
<event>
 5    1  0.4866530E-005  0.4935475E+03  0.7818608E-02  0.9577086E-01
         21   -1    0    0  501  502  0.00000000000E+00  0.00000000000E+00  0.15202731499E+03  0.15202731499E+03  0.00000000000E+00 0. -1.
          4   -1    0    0  502    0 -0.00000000000E+00 -0.00000000000E+00 -0.36126977731E+04  0.36126977731E+04  0.00000000000E+00 0.  1.
        -13    1    1    2    0    0  0.12307942380E+03 -0.46223928729E+03 -0.87722875698E+03  0.99917166018E+03  0.10566000000E+00 0.  1.
         13    1    1    2    0    0  0.34444066494E+03  0.11589138111E+03 -0.14058780571E+04  0.14520892901E+04  0.10566000000E+00 0. -1.
          4    1    1    2  501    0 -0.46752008874E+03  0.34634790619E+03 -0.11775636441E+04  0.13134641378E+04  0.00000000000E+00 0.  1.
</event>
<event>
 5    1  0.4866530E-005  0.5017549E+03  0.7818608E-02  0.9788191E-01
         -4   -1    0    0    0  501 -0.00000000000E+00  0.00000000000E+00  0.87152096135E+03  0.87152096135E+03  0.00000000000E+00 0. -1.
         21   -1    0    0  501  502  0.00000000000E+00 -0.00000000000E+00 -0.46084838616E+03  0.46084838616E+03  0.00000000000E+00 0. -1.
        -13    1    1    2    0    0  0.65008924501E+02 -0.15200933765E+03 -0.85575409667E+02  0.18616165260E+03  0.10566000000E+00 0.  1.
         13    1    1    2    0    0 -0.53465687892E+03  0.16117216810E+02  0.33612439241E+03  0.63174153037E+03  0.10566000000E+00 0. -1.
         -4    1    1    2    0  502  0.46964795442E+03  0.13589212084E+03  0.16012359245E+03  0.51446616454E+03  0.00000000000E+00 0. -1.
</event>
<event>
 5    1  0.4866530E-005  0.5047309E+03  0.7818608E-02  0.9626104E-01
         21   -1    0    0  501  502  0.00000000000E+00  0.00000000000E+00  0.14147262131E+03  0.14147262131E+03  0.00000000000E+00 0. -1.
          4   -1    0    0  502    0 -0.00000000000E+00 -0.00000000000E+00 -0.31473146841E+04  0.31473146841E+04  0.00000000000E+00 0.  1.
        -13    1    1    2    0    0 -0.32760009676E+02  0.38684047069E+03 -0.11897597702E+04  0.12514979384E+04  0.10566000000E+00 0.  1.
         13    1    1    2    0    0  0.16451705317E+03  0.23325235480E+03 -0.65312435884E+03  0.71277202602E+03  0.10566000000E+00 0. -1.
          4    1    1    2  501    0 -0.13175704349E+03 -0.62009282550E+03 -0.11629579337E+04  0.13245173409E+04  0.00000000000E+00 0.  1.
</event>
<event>
 5    1  0.4866530E-005  0.4359896E+03  0.7818608E-02  0.9630519E-01
         21   -1    0    0  501  502  0.00000000000E+00  0.00000000000E+00  0.43407715850E+03  0.43407715850E+03  0.00000000000E+00 0.  1.
          4   -1    0    0  502    0 -0.00000000000E+00 -0.00000000000E+00 -0.21378776934E+04  0.21378776934E+04  0.00000000000E+00 0.  1.
        -13    1    1    2    0    0  0.30440780270E+03 -0.28798382963E+03 -0.72260344383E+03  0.83531703243E+03  0.10566000000E+00 0.  1.
         13    1    1    2    0    0 -0.34243413566E+03  0.28787143373E+03 -0.13210100640E+04  0.13947038036E+04  0.10566000000E+00 0. -1.
          4    1    1    2  501    0  0.38026332964E+02  0.11239590316E+00  0.33981297290E+03  0.34193401583E+03  0.00000000000E+00 0.  1.
</event>
<event>
 5    1  0.4866530E-005  0.2352850E+02  0.7818608E-02  0.1465973E+00
          4   -1    0    0  502    0 -0.00000000000E+00  0.00000000000E+00  0.55500657193E+02  0.55500657193E+02  0.00000000000E+00 0.  1.
         21   -1    0    0  501  502  0.00000000000E+00 -0.00000000000E+00 -0.34972356100E+02  0.34972356100E+02  0.00000000000E+00 0.  1.
        -13    1    1    2    0    0  0.13380190676E+02 -0.35401120473E+02  0.95975594771E+01  0.39043477627E+02  0.10566000000E+00 0.  1.
         13    1    1    2    0    0 -0.52592315460E+01  0.19177416312E+02  0.22409507282E+02  0.29960473853E+02  0.10566000000E+00 0. -1.
          4    1    1    2  501    0 -0.81209591301E+01  0.16223704161E+02 -0.11478765666E+02  0.21469061812E+02  0.00000000000E+00 0.  1.
</event>
<event>
 5    1  0.4866530E-005  0.1353278E+03  0.7818608E-02  0.1116557E+00
         21   -1    0    0  501  502  0.00000000000E+00  0.00000000000E+00  0.10217484847E+04  0.10217484847E+04  0.00000000000E+00 0. -1.
          4   -1    0    0  502    0 -0.00000000000E+00 -0.00000000000E+00 -0.40220159031E+02  0.40220159031E+02  0.00000000000E+00 0.  1.
        -13    1    1    2    0    0 -0.13291015328E+03  0.33133627556E+02  0.12745734411E+03  0.18710513582E+03  0.10566000000E+00 0.  1.
         13    1    1    2    0    0  0.12374584513E+03 -0.44167584783E+02  0.40953521862E+03  0.43009640336E+03  0.10566000000E+00 0. -1.
          4    1    1    2  501    0  0.91643081514E+01  0.11033957227E+02  0.44453576295E+03  0.44476710455E+03  0.00000000000E+00 0.  1.
</event>
<event>
 5    1  0.4866530E-005  0.4948202E+03  0.7818608E-02  0.9760171E-01
          4   -1    0    0  502    0 -0.00000000000E+00  0.00000000000E+00  0.66404381329E+03  0.66404381329E+03  0.00000000000E+00 0.  1.
         21   -1    0    0  501  502  0.00000000000E+00 -0.00000000000E+00 -0.59124727422E+03  0.59124727422E+03  0.00000000000E+00 0.  1.
        -13    1    1    2    0    0 -0.45774182254E+03  0.22173218239E+03  0.20579862107E+03  0.54867642596E+03  0.10566000000E+00 0.  1.
         13    1    1    2    0    0  0.12007317118E+03  0.14695739282E+03 -0.19998751227E+01  0.18978422592E+03  0.10566000000E+00 0. -1.
          4    1    1    2  501    0  0.33766865135E+03 -0.36868957522E+03 -0.13100220688E+03  0.51683043563E+03  0.00000000000E+00 0.  1.
</event>
<event>
 5    1  0.4866530E-005  0.5000564E+03  0.7818608E-02  0.9680528E-01
         -4   -1    0    0    0  501 -0.00000000000E+00  0.00000000000E+00  0.31489168267E+03  0.31489168267E+03  0.00000000000E+00 0. -1.
         21   -1    0    0  501  502  0.00000000000E+00 -0.00000000000E+00 -0.12923451805E+04  0.12923451805E+04  0.00000000000E+00 0. -1.
        -13    1    1    2    0    0  0.23644277994E+03 -0.53315338216E+02 -0.22386215085E+03  0.32994239985E+03  0.10566000000E+00 0.  1.
         13    1    1    2    0    0  0.11592171995E+03  0.46597903460E+03 -0.27256158095E+03  0.55214502843E+03  0.10566000000E+00 0. -1.
         -4    1    1    2    0  502 -0.35236449989E+03 -0.41266369639E+03 -0.48102976600E+03  0.72514943486E+03  0.00000000000E+00 0. -1.
</event>
<event>
 5    1  0.4866530E-005  0.4164907E+03  0.7818608E-02  0.9683351E-01
         21   -1    0    0  501  502  0.00000000000E+00  0.00000000000E+00  0.34865656161E+03  0.34865656161E+03  0.00000000000E+00 0. -1.
          4   -1    0    0  502    0 -0.00000000000E+00 -0.00000000000E+00 -0.16224587411E+04  0.16224587411E+04  0.00000000000E+00 0.  1.
        -13    1    1    2    0    0 -0.13085437838E+02  0.35248606550E+03 -0.11859602715E+03  0.37213261598E+03  0.10566000000E+00 0.  1.
         13    1    1    2    0    0  0.32576765681E+03  0.26038670189E+03 -0.45890082098E+03  0.62009336023E+03  0.10566000000E+00 0. -1.
          4    1    1    2  501    0 -0.31268221897E+03 -0.61287276739E+03 -0.69630533137E+03  0.97888932651E+03  0.00000000000E+00 0.  1.
</event>
<event>
 5    1  0.4866530E-005  0.3013894E+03  0.7818608E-02  0.1032443E+00
         -4   -1    0    0    0  501 -0.00000000000E+00  0.00000000000E+00  0.61801532370E+03  0.61801532370E+03  0.00000000000E+00 0. -1.
         21   -1    0    0  501  502  0.00000000000E+00 -0.00000000000E+00 -0.54372408830E+03  0.54372408830E+03  0.00000000000E+00 0. -1.
        -13    1    1    2    0    0  0.59547807554E+02 -0.11998562078E+03  0.80762286508E+02  0.15641307064E+03  0.10566000000E+00 0.  1.
         13    1    1    2    0    0 -0.16887738299E+03  0.38618366375E+03  0.34952486558E+03  0.54756281416E+03  0.10566000000E+00 0. -1.
         -4    1    1    2    0  502  0.10932957543E+03 -0.26619804296E+03 -0.35599591669E+03  0.45776352721E+03  0.00000000000E+00 0. -1.
</event>
<event>
 5    1  0.6395897E-005  0.4936409E+03  0.7818608E-02  0.9838207E-01
         21   -1    0    0  501  502  0.00000000000E+00  0.00000000000E+00  0.19468316861E+03  0.19468316861E+03  0.00000000000E+00 0. -1.
         -4   -1    0    0    0  501 -0.00000000000E+00 -0.00000000000E+00 -0.20055253725E+04  0.20055253725E+04  0.00000000000E+00 0. -1.
        -13    1    1    2    0    0  0.10244190954E+03 -0.10462743353E+03 -0.64584909050E+03  0.66224036689E+03  0.10566000000E+00 0.  1.
         13    1    1    2    0    0  0.37126832913E+03 -0.18765808006E+03 -0.69249772348E+03  0.80784208569E+03  0.10566000000E+00 0. -1.
         -4    1    1    2    0  502 -0.47371023867E+03  0.29228551359E+03 -0.47249538995E+03  0.73012608856E+03  0.00000000000E+00 0. -1.
</event>
<event>
 5    1  0.4866530E-005  0.2432743E+02  0.7818608E-02  0.1457269E+00
          4   -1    0    0  502    0 -0.00000000000E+00  0.00000000000E+00  0.47437800063E+02  0.47437800063E+02  0.00000000000E+00 0.  1.
         21   -1    0    0  501  502  0.00000000000E+00 -0.00000000000E+00 -0.40662149970E+02  0.40662149970E+02  0.00000000000E+00 0. -1.
        -13    1    1    2    0    0 -0.13274615808E+02  0.19150934798E+02  0.17938824243E+02  0.29407249238E+02  0.10566000000E+00 0.  1.
         13    1    1    2    0    0 -0.46617824490E+01 -0.33285228394E+02 -0.81213665444E+00  0.33620073986E+02  0.10566000000E+00 0. -1.
          4    1    1    2  501    0  0.17936398257E+02  0.14134293596E+02 -0.10351037496E+02  0.25072626810E+02  0.00000000000E+00 0.  1.
</event>
<event>
 5    1  0.4866530E-005  0.1457673E+03  0.7818608E-02  0.1105362E+00
         -4   -1    0    0    0  501 -0.00000000000E+00  0.00000000000E+00  0.27256272743E+03  0.27256272743E+03  0.00000000000E+00 0. -1.
         21   -1    0    0  501  502  0.00000000000E+00 -0.00000000000E+00 -0.14245372225E+03  0.14245372225E+03  0.00000000000E+00 0.  1.
        -13    1    1    2    0    0  0.16950133395E+02 -0.14927719289E+03  0.19274650080E+03  0.24438128421E+03  0.10566000000E+00 0.  1.
         13    1    1    2    0    0 -0.92839469182E+01  0.13089248189E+03 -0.33656380507E+02  0.13546880304E+03  0.10566000000E+00 0. -1.
         -4    1    1    2    0  502 -0.76661864765E+01  0.18384710998E+02 -0.28981115107E+02  0.35166362428E+02  0.00000000000E+00 0. -1.
</event>
<event>
 5    1  0.4866530E-005  0.4903956E+03  0.7818608E-02  0.9652255E-01
         -4   -1    0    0    0  501 -0.00000000000E+00  0.00000000000E+00  0.21093733374E+04  0.21093733374E+04  0.00000000000E+00 0. -1.
         21   -1    0    0  501  502  0.00000000000E+00 -0.00000000000E+00 -0.21058849961E+03  0.21058849961E+03  0.00000000000E+00 0. -1.
        -13    1    1    2    0    0  0.24692663294E+03 -0.13984723489E+03  0.58558853427E+03  0.65072571318E+03  0.10566000000E+00 0.  1.
         13    1    1    2    0    0 -0.46703629017E+03 -0.27189872639E+03  0.52687895765E+03  0.75475377503E+03  0.10566000000E+00 0. -1.
         -4    1    1    2    0  502  0.22010965723E+03  0.41174596128E+03  0.78631734585E+03  0.91448234877E+03  0.00000000000E+00 0. -1.
</event>
<event>
 5    1  0.4866530E-005  0.5780397E+02  0.7818608E-02  0.1262916E+00
         21   -1    0    0  501  502  0.00000000000E+00  0.00000000000E+00  0.77195794407E+02  0.77195794407E+02  0.00000000000E+00 0.  1.
          4   -1    0    0  502    0 -0.00000000000E+00 -0.00000000000E+00 -0.12194969852E+03  0.12194969852E+03  0.00000000000E+00 0.  1.
        -13    1    1    2    0    0 -0.75490235229E+02  0.22593780753E+01 -0.62321231024E+02  0.97917451992E+02  0.10566000000E+00 0.  1.
         13    1    1    2    0    0  0.37601263898E+02 -0.25232816906E+02 -0.13336086593E+02  0.47206063862E+02  0.10566000000E+00 0. -1.
          4    1    1    2  501    0  0.37888971332E+02  0.22973438831E+02  0.30903413506E+02  0.54021977071E+02  0.00000000000E+00 0.  1.
</event>
<event>
 5    1  0.4866530E-005  0.4989867E+03  0.7818608E-02  0.9590952E-01
          4   -1    0    0  502    0 -0.00000000000E+00  0.00000000000E+00  0.12933863901E+04  0.12933863901E+04  0.00000000000E+00 0.  1.
         21   -1    0    0  501  502  0.00000000000E+00 -0.00000000000E+00 -0.51822938713E+03  0.51822938713E+03  0.00000000000E+00 0.  1.
        -13    1    1    2    0    0 -0.20695593278E+03  0.45977369265E+03  0.11649968286E+02  0.50433950816E+03  0.10566000000E+00 0.  1.
         13    1    1    2    0    0  0.32503308659E+03  0.79767743026E+02  0.66747240886E+03  0.74667853053E+03  0.10566000000E+00 0. -1.
          4    1    1    2  501    0 -0.11807715380E+03 -0.53954143567E+03  0.96034625779E+02  0.56059773850E+03  0.00000000000E+00 0.  1.
</event>
<event>
 5    1  0.4866530E-005  0.4852406E+03  0.7818608E-02  0.9633251E-01
         21   -1    0    0  501  502  0.00000000000E+00  0.00000000000E+00  0.34057549169E+03  0.34057549169E+03  0.00000000000E+00 0. -1.
         -4   -1    0    0    0  501 -0.00000000000E+00 -0.00000000000E+00 -0.23663958976E+04  0.23663958976E+04  0.00000000000E+00 0. -1.
        -13    1    1    2    0    0 -0.23654114606E+03  0.20530727188E+03 -0.14949537548E+04  0.15274126914E+04  0.10566000000E+00 0.  1.
         13    1    1    2    0    0 -0.39400638997E+03 -0.13631447104E+02 -0.19224715684E+03  0.43861809375E+03  0.10566000000E+00 0. -1.
         -4    1    1    2    0  502  0.63054753604E+03 -0.19167582478E+03 -0.33861949430E+03  0.74094060418E+03  0.00000000000E+00 0. -1.
</event>
<event>
 5    1  0.4866530E-005  0.1204927E+03  0.7818608E-02  0.1134501E+00
          4   -1    0    0  502    0 -0.00000000000E+00  0.00000000000E+00  0.43157751271E+03  0.43157751271E+03  0.00000000000E+00 0.  1.
         21   -1    0    0  501  502  0.00000000000E+00 -0.00000000000E+00 -0.63485367500E+02  0.63485367500E+02  0.00000000000E+00 0. -1.
        -13    1    1    2    0    0  0.36735800786E+02 -0.11617574735E+03  0.34605300638E+03  0.36687738785E+03  0.10566000000E+00 0.  1.
         13    1    1    2    0    0 -0.27052931477E+02  0.11143284581E+03  0.24183825280E+02  0.11719218744E+03  0.10566000000E+00 0. -1.
          4    1    1    2  501    0 -0.96828693091E+01  0.47429015307E+01 -0.21446864494E+01  0.10993304915E+02  0.00000000000E+00 0.  1.
</event>
<event>
 5    1  0.5984714E-005  0.1770739E+03  0.7818608E-02  0.1112186E+00
          4   -1    0    0  502    0 -0.00000000000E+00  0.00000000000E+00  0.14860985255E+04  0.14860985255E+04  0.00000000000E+00 0.  1.
         21   -1    0    0  501  502  0.00000000000E+00 -0.00000000000E+00 -0.20415682048E+03  0.20415682048E+03  0.00000000000E+00 0.  1.
        -13    1    1    2    0    0 -0.13155053055E+03 -0.11612541450E+03 -0.14742342342E+03  0.22918187301E+03  0.10566000000E+00 0.  1.
         13    1    1    2    0    0 -0.58797253874E+01 -0.67535322786E+02  0.22234119987E+03  0.23244614714E+03  0.10566000000E+00 0. -1.
          4    1    1    2  501    0  0.13743025594E+03  0.18366073729E+03  0.12070239286E+04  0.12286273259E+04  0.00000000000E+00 0.  1.
</event>
<event>
 5    1  0.4866530E-005  0.3631057E+03  0.7818608E-02  0.1018695E+00
         21   -1    0    0  501  502  0.00000000000E+00  0.00000000000E+00  0.18453535284E+03  0.18453535284E+03  0.00000000000E+00 0. -1.
         -4   -1    0    0    0  501 -0.00000000000E+00 -0.00000000000E+00 -0.17608368650E+04  0.17608368650E+04  0.00000000000E+00 0. -1.
        -13    1    1    2    0    0 -0.32720968475E+02  0.11294023408E+03 -0.17210467731E+03  0.20843749511E+03  0.10566000000E+00 0.  1.
         13    1    1    2    0    0 -0.13879132636E+03  0.22669157804E+03 -0.13209827565E+04  0.13474596684E+04  0.10566000000E+00 0. -1.
         -4    1    1    2    0  502  0.17151229484E+03 -0.33963181212E+03 -0.83214078298E+02  0.38947505428E+03  0.00000000000E+00 0. -1.
</event>
<event>
 5    1  0.4866530E-005  0.4261015E+03  0.7818608E-02  0.9886218E-01
          4   -1    0    0  502    0 -0.00000000000E+00  0.00000000000E+00  0.42762087190E+03  0.42762087190E+03  0.00000000000E+00 0.  1.
         21   -1    0    0  501  502  0.00000000000E+00 -0.00000000000E+00 -0.86786841071E+03  0.86786841071E+03  0.00000000000E+00 0.  1.
        -13    1    1    2    0    0 -0.33817851173E+03  0.44744571064E+03  0.93712868336E+01  0.56094581017E+03  0.10566000000E+00 0.  1.
         13    1    1    2    0    0  0.55052852837E+02 -0.18566324185E+03 -0.12499926441E+03  0.23049182902E+03  0.10566000000E+00 0. -1.
          4    1    1    2  501    0  0.28312565889E+03 -0.26178246880E+03 -0.32461956125E+03  0.50405164342E+03  0.00000000000E+00 0.  1.
</event>
<event>
 5    1  0.4866530E-005  0.4849553E+02  0.7818608E-02  0.1312821E+00
          4   -1    0    0  502    0 -0.00000000000E+00  0.00000000000E+00  0.33525828750E+02  0.33525828750E+02  0.00000000000E+00 0.  1.
         21   -1    0    0  501  502  0.00000000000E+00 -0.00000000000E+00 -0.34346923353E+03  0.34346923353E+03  0.00000000000E+00 0.  1.
        -13    1    1    2    0    0 -0.32432526314E+02 -0.37908826547E+02  0.26252121428E+01  0.49958490731E+02  0.10566000000E+00 0.  1.
         13    1    1    2    0    0  0.34610545223E+02 -0.11566594569E+02 -0.64815856728E+02  0.74382675388E+02  0.10566000000E+00 0. -1.
          4    1    1    2  501    0 -0.21780189091E+01  0.49475421115E+02 -0.24775276019E+03  0.25265389616E+03  0.00000000000E+00 0.  1.
</event>
<event>
 5    1  0.4866530E-005  0.4744135E+03  0.7818608E-02  0.9750532E-01
         -4   -1    0    0    0  501 -0.00000000000E+00  0.00000000000E+00  0.11215413576E+04  0.11215413576E+04  0.00000000000E+00 0. -1.
         21   -1    0    0  501  502  0.00000000000E+00 -0.00000000000E+00 -0.56356318257E+03  0.56356318257E+03  0.00000000000E+00 0. -1.
        -13    1    1    2    0    0 -0.19005674745E+03 -0.11588660322E+03  0.61955007467E+03  0.65832634631E+03  0.10566000000E+00 0.  1.
         13    1    1    2    0    0 -0.61587420891E+02 -0.35979201810E+03  0.21301364651E+03  0.42263238336E+03  0.10566000000E+00 0. -1.
         -4    1    1    2    0  502  0.25164416834E+03  0.47567862133E+03 -0.27458554612E+03  0.60414581053E+03  0.00000000000E+00 0. -1.
</event>
<event>
 5    1  0.4866530E-005  0.4162478E+03  0.7818608E-02  0.9805316E-01
         21   -1    0    0  501  502  0.00000000000E+00  0.00000000000E+00  0.40050755824E+03  0.40050755824E+03  0.00000000000E+00 0.  1.
          4   -1    0    0  502    0 -0.00000000000E+00 -0.00000000000E+00 -0.14296752040E+04  0.14296752040E+04  0.00000000000E+00 0.  1.
        -13    1    1    2    0    0 -0.24924697867E+03 -0.29963834927E+02 -0.57186141554E+03  0.62453773107E+03  0.10566000000E+00 0.  1.
         13    1    1    2    0    0 -0.18486719856E+03  0.20104573236E+03 -0.64674243671E+03  0.70204776063E+03  0.10566000000E+00 0. -1.
          4    1    1    2  501    0  0.43411417723E+03 -0.17108189743E+03  0.18943620654E+03  0.50359727049E+03  0.00000000000E+00 0.  1.
</event>
<event>
 5    1  0.4866530E-005  0.3346354E+02  0.7818608E-02  0.1395642E+00
         21   -1    0    0  501  502  0.00000000000E+00  0.00000000000E+00  0.20658639737E+03  0.20658639737E+03  0.00000000000E+00 0.  1.
          4   -1    0    0  502    0 -0.00000000000E+00 -0.00000000000E+00 -0.29523219538E+02  0.29523219538E+02  0.00000000000E+00 0.  1.
        -13    1    1    2    0    0  0.13091348138E+02 -0.46558632898E+02 -0.12442836313E+01  0.48380255262E+02  0.10566000000E+00 0.  1.
         13    1    1    2    0    0  0.97303246117E+01  0.23285673731E+02  0.61968870898E+02  0.66910790927E+02  0.10566000000E+00 0. -1.
          4    1    1    2  501    0 -0.22821672750E+02  0.23272959168E+02  0.11633859056E+03  0.12081857071E+03  0.00000000000E+00 0.  1.
</event>
<event>
 5    1  0.4866530E-005  0.5111235E+02  0.7818608E-02  0.1319990E+00
         -4   -1    0    0    0  501 -0.00000000000E+00  0.00000000000E+00  0.19090765090E+03  0.19090765090E+03  0.00000000000E+00 0. -1.
         21   -1    0    0  501  502  0.00000000000E+00 -0.00000000000E+00 -0.73455572544E+02  0.73455572544E+02  0.00000000000E+00 0. -1.
        -13    1    1    2    0    0 -0.14400995587E+02  0.23095273525E+02 -0.47077125914E+02  0.54378739241E+02  0.10566000000E+00 0.  1.
         13    1    1    2    0    0 -0.23174612975E+02 -0.56001510070E+02  0.14353144658E+03  0.15580282134E+03  0.10566000000E+00 0. -1.
         -4    1    1    2    0  502  0.37575608562E+02  0.32906236545E+02  0.20997757690E+02  0.54181662861E+02  0.00000000000E+00 0. -1.
</event>
<event>
 5    1  0.4866530E-005  0.7226582E+03  0.7818608E-02  0.9090742E-01
         21   -1    0    0  501  502  0.00000000000E+00  0.00000000000E+00  0.37710430397E+03  0.37710430397E+03  0.00000000000E+00 0.  1.
          4   -1    0    0  502    0 -0.00000000000E+00 -0.00000000000E+00 -0.18714123778E+04  0.18714123778E+04  0.00000000000E+00 0.  1.
        -13    1    1    2    0    0  0.73678677541E+03 -0.85238484198E+02 -0.11146303332E+04  0.13388506797E+04  0.10566000000E+00 0.  1.
         13    1    1    2    0    0 -0.68783237646E+03  0.64698616073E+02 -0.44779953772E+03  0.82330050782E+03  0.10566000000E+00 0. -1.
          4    1    1    2  501    0 -0.48954398951E+02  0.20539868125E+02  0.68121797100E+02  0.86365494263E+02  0.00000000000E+00 0.  1.
</event>
<event>
 5    1  0.4866530E-005  0.7017132E+02  0.7818608E-02  0.1226278E+00
          4   -1    0    0  502    0 -0.00000000000E+00  0.00000000000E+00  0.90791399177E+01  0.90791399177E+01  0.00000000000E+00 0.  1.
         21   -1    0    0  501  502  0.00000000000E+00 -0.00000000000E+00 -0.84908973503E+03  0.84908973503E+03  0.00000000000E+00 0. -1.
        -13    1    1    2    0    0  0.56196675229E+02 -0.39189186766E+02 -0.20645471220E+03  0.21752567210E+03  0.10566000000E+00 0.  1.
         13    1    1    2    0    0 -0.66221975976E+02  0.32688371069E+02 -0.39859261175E+03  0.40537632024E+03  0.10566000000E+00 0. -1.
          4    1    1    2  501    0  0.10025300747E+02  0.65008156973E+01 -0.23496327116E+03  0.23526688262E+03  0.00000000000E+00 0.  1.
</event>
<event>
 5    1  0.4866530E-005  0.3679684E+03  0.7818608E-02  0.9826406E-01
         21   -1    0    0  501  502  0.00000000000E+00  0.00000000000E+00  0.21320835689E+03  0.21320835689E+03  0.00000000000E+00 0. -1.
          4   -1    0    0  502    0 -0.00000000000E+00 -0.00000000000E+00 -0.17457847055E+04  0.17457847055E+04  0.00000000000E+00 0.  1.
        -13    1    1    2    0    0  0.10600513495E+03 -0.35832718479E+03 -0.15122098125E+04  0.15576950883E+04  0.10566000000E+00 0.  1.
         13    1    1    2    0    0 -0.43947376983E+02  0.32926908303E+03 -0.19662027342E+02  0.33277035245E+03  0.10566000000E+00 0. -1.
          4    1    1    2  501    0 -0.62057757969E+02  0.29058101761E+02 -0.70450885171E+00  0.68527621692E+02  0.00000000000E+00 0.  1.
</event>
<event>
 5    1  0.4866530E-005  0.4998563E+03  0.7818608E-02  0.9627619E-01
         -4   -1    0    0    0  501 -0.00000000000E+00  0.00000000000E+00  0.20880321292E+04  0.20880321292E+04  0.00000000000E+00 0. -1.
         21   -1    0    0  501  502  0.00000000000E+00 -0.00000000000E+00 -0.28798347194E+03  0.28798347194E+03  0.00000000000E+00 0. -1.
        -13    1    1    2    0    0 -0.21350821328E+03  0.19962588041E+03  0.10566638618E+04  0.10963461028E+04  0.10566000000E+00 0.  1.
         13    1    1    2    0    0 -0.39010007720E+03 -0.14642199478E+03  0.42494023095E+03  0.59514005228E+03  0.10566000000E+00 0. -1.
         -4    1    1    2    0  502  0.60360829048E+03 -0.53203885624E+02  0.31844456452E+03  0.68452944601E+03  0.00000000000E+00 0. -1.
</event>
<event>
 5    1  0.4866530E-005  0.3907719E+03  0.7818608E-02  0.9896418E-01
         -4   -1    0    0    0  501 -0.00000000000E+00  0.00000000000E+00  0.22848872415E+04  0.22848872415E+04  0.00000000000E+00 0. -1.
         21   -1    0    0  501  502  0.00000000000E+00 -0.00000000000E+00 -0.40357015698E+03  0.40357015698E+03  0.00000000000E+00 0.  1.
        -13    1    1    2    0    0 -0.24387363705E+03 -0.56230671906E+03  0.11364260213E+04  0.12911728429E+04  0.10566000000E+00 0.  1.
         13    1    1    2    0    0 -0.12861791394E+03  0.23491526043E+03  0.84927185837E+03  0.89050011115E+03  0.10566000000E+00 0. -1.
         -4    1    1    2    0  502  0.37249155100E+03  0.32739145863E+03 -0.10438079515E+03  0.50678444446E+03  0.00000000000E+00 0. -1.
</event>
<event>
 5    1  0.4866530E-005  0.4634860E+03  0.7818608E-02  0.9561808E-01
         -4   -1    0    0    0  501 -0.00000000000E+00  0.00000000000E+00  0.73292358271E+03  0.73292358271E+03  0.00000000000E+00 0. -1.
         21   -1    0    0  501  502  0.00000000000E+00 -0.00000000000E+00 -0.77599405186E+03  0.77599405186E+03  0.00000000000E+00 0.  1.
        -13    1    1    2    0    0  0.26435660101E+03 -0.30440294262E+03  0.22108446816E+03  0.45980856582E+03  0.10566000000E+00 0.  1.
         13    1    1    2    0    0 -0.29095431582E+03  0.62314161199E+03 -0.11930771553E+03  0.69799299756E+03  0.10566000000E+00 0. -1.
         -4    1    1    2    0  502  0.26597714808E+02 -0.31873866938E+03 -0.14484722178E+03  0.35111607119E+03  0.00000000000E+00 0. -1.
</event>
<event>
 5    1  0.4866530E-005  0.2146716E+03  0.7818608E-02  0.1050518E+00
          4   -1    0    0  502    0 -0.00000000000E+00  0.00000000000E+00  0.33083900804E+03  0.33083900804E+03  0.00000000000E+00 0.  1.
         21   -1    0    0  501  502  0.00000000000E+00 -0.00000000000E+00 -0.11632610107E+04  0.11632610107E+04  0.00000000000E+00 0.  1.
        -13    1    1    2    0    0 -0.26573255623E+03  0.29432271627E+03 -0.75780537404E+03  0.85528278881E+03  0.10566000000E+00 0.  1.
         13    1    1    2    0    0  0.16897765306E+03 -0.11716750465E+03  0.20736668762E+03  0.29203189154E+03  0.10566000000E+00 0. -1.
          4    1    1    2  501    0  0.96754903172E+02 -0.17715521162E+03 -0.28198331628E+03  0.34678533843E+03  0.00000000000E+00 0.  1.
</event>
<event>
 5    1  0.4866530E-005  0.4311229E+03  0.7818608E-02  0.9643241E-01
          4   -1    0    0  502    0 -0.00000000000E+00  0.00000000000E+00  0.39592753966E+03  0.39592753966E+03  0.00000000000E+00 0.  1.
         21   -1    0    0  501  502  0.00000000000E+00 -0.00000000000E+00 -0.16548329085E+04  0.16548329085E+04  0.00000000000E+00 0.  1.
        -13    1    1    2    0    0  0.11257582395E+03  0.32163518778E+03 -0.12794559186E+04  0.13240581441E+04  0.10566000000E+00 0.  1.
         13    1    1    2    0    0  0.10033916635E+03 -0.44770370137E+03 -0.68153103986E+02  0.46384416486E+03  0.10566000000E+00 0. -1.
          4    1    1    2  501    0 -0.21291499030E+03  0.12606851359E+03  0.88703653663E+02  0.26285813928E+03  0.00000000000E+00 0.  1.
</event>
<event>
 5    1  0.4866530E-005  0.1744103E+03  0.7818608E-02  0.1144974E+00
         -4   -1    0    0    0  501 -0.00000000000E+00  0.00000000000E+00  0.20881184654E+03  0.20881184654E+03  0.00000000000E+00 0. -1.
         21   -1    0    0  501  502  0.00000000000E+00 -0.00000000000E+00 -0.12234146619E+04  0.12234146619E+04  0.00000000000E+00 0. -1.
        -13    1    1    2    0    0 -0.12512209853E+01  0.30476390096E+02  0.26397467520E+01  0.30616259311E+02  0.10566000000E+00 0.  1.
         13    1    1    2    0    0  0.32947701358E+02  0.14205483924E+03  0.15703563414E+03  0.21430195970E+03  0.10566000000E+00 0. -1.
         -4    1    1    2    0  502 -0.31696480373E+02 -0.17253122933E+03 -0.11742781963E+04  0.11873082895E+04  0.00000000000E+00 0. -1.
</event>
<event>
 5    1  0.4866530E-005  0.3898590E+03  0.7818608E-02  0.9804929E-01
          4   -1    0    0  502    0 -0.00000000000E+00  0.00000000000E+00  0.29306477526E+04  0.29306477526E+04  0.00000000000E+00 0.  1.
         21   -1    0    0  501  502  0.00000000000E+00 -0.00000000000E+00 -0.18011470858E+03  0.18011470858E+03  0.00000000000E+00 0.  1.
        -13    1    1    2    0    0  0.45712823987E+03  0.19153844253E+03  0.13965507591E+04  0.14818931259E+04  0.10566000000E+00 0.  1.
         13    1    1    2    0    0 -0.29172528239E+03  0.16028812271E+03  0.11347192417E+04  0.11825327443E+04  0.10566000000E+00 0. -1.
          4    1    1    2  501    0 -0.16540295748E+03 -0.35182656524E+03  0.21926304323E+03  0.44633659101E+03  0.00000000000E+00 0.  1.
</event>
<event>
 5    1  0.4866530E-005  0.1101181E+03  0.7818608E-02  0.1154402E+00
          4   -1    0    0  502    0 -0.00000000000E+00  0.00000000000E+00  0.76749942633E+02  0.76749942633E+02  0.00000000000E+00 0.  1.
         21   -1    0    0  501  502  0.00000000000E+00 -0.00000000000E+00 -0.95235775036E+03  0.95235775036E+03  0.00000000000E+00 0. -1.
        -13    1    1    2    0    0 -0.15815866003E+03  0.69130786482E+02 -0.50783265256E+02  0.17992270167E+03  0.10566000000E+00 0.  1.
         13    1    1    2    0    0  0.52770115212E+02 -0.80110242361E+02 -0.38232318402E+03  0.39417428150E+03  0.10566000000E+00 0. -1.
          4    1    1    2  501    0  0.10538854481E+03  0.10979455879E+02 -0.44250135845E+03  0.45501070983E+03  0.00000000000E+00 0.  1.
</event>
<event>
 5    1  0.4866530E-005  0.7529552E+03  0.7818608E-02  0.9565708E-01
         -4   -1    0    0    0  501 -0.00000000000E+00  0.00000000000E+00  0.11008753511E+04  0.11008753511E+04  0.00000000000E+00 0. -1.
         21   -1    0    0  501  502  0.00000000000E+00 -0.00000000000E+00 -0.63456573974E+03  0.63456573974E+03  0.00000000000E+00 0. -1.
        -13    1    1    2    0    0  0.28108352742E+02 -0.10282974748E+03 -0.75510083173E+02  0.13063621353E+03  0.10566000000E+00 0.  1.
         13    1    1    2    0    0  0.73172011760E+03 -0.47008068906E+02  0.31305890731E+03  0.79726405892E+03  0.10566000000E+00 0. -1.
         -4    1    1    2    0  502 -0.75982847034E+03  0.14983781639E+03  0.22876078721E+03  0.80754081836E+03  0.00000000000E+00 0. -1.
</event>
<event>
 5    1  0.4866530E-005  0.1275203E+03  0.7818608E-02  0.1125670E+00
         -4   -1    0    0    0  501 -0.00000000000E+00  0.00000000000E+00  0.14987572651E+03  0.14987572651E+03  0.00000000000E+00 0. -1.
         21   -1    0    0  501  502  0.00000000000E+00 -0.00000000000E+00 -0.14044097162E+03  0.14044097162E+03  0.00000000000E+00 0.  1.
        -13    1    1    2    0    0 -0.11199412992E+03  0.66674166799E+02 -0.30485872493E+02  0.13385637542E+03  0.10566000000E+00 0.  1.
         13    1    1    2    0    0  0.11382265336E+03 -0.54663637545E+02  0.54460922718E+02  0.13751259199E+03  0.10566000000E+00 0. -1.
         -4    1    1    2    0  502 -0.18285234367E+01 -0.12010529254E+02 -0.14540295333E+02  0.18947730716E+02  0.00000000000E+00 0. -1.
</event>
<event>
 5    1  0.4866530E-005  0.4327812E+03  0.7818608E-02  0.9922277E-01
          4   -1    0    0  502    0 -0.00000000000E+00  0.00000000000E+00  0.16802250803E+04  0.16802250803E+04  0.00000000000E+00 0.  1.
         21   -1    0    0  501  502  0.00000000000E+00 -0.00000000000E+00 -0.20850138790E+03  0.20850138790E+03  0.00000000000E+00 0.  1.
        -13    1    1    2    0    0  0.39348851224E+02 -0.31008422237E+03  0.10609440133E+04  0.11060301838E+04  0.10566000000E+00 0.  1.
         13    1    1    2    0    0 -0.25352926265E+02 -0.16186443471E+03  0.21799491920E+03  0.27269884865E+03  0.10566000000E+00 0. -1.
          4    1    1    2  501    0 -0.13995924959E+02  0.47194865707E+03  0.19278475999E+03  0.50999743579E+03  0.00000000000E+00 0.  1.
</event>
<event>
 5    1  0.4866530E-005  0.4484796E+03  0.7818608E-02  0.9951770E-01
         -4   -1    0    0    0  501 -0.00000000000E+00  0.00000000000E+00  0.15400289684E+04  0.15400289684E+04  0.00000000000E+00 0. -1.
         21   -1    0    0  501  502  0.00000000000E+00 -0.00000000000E+00 -0.22527409393E+03  0.22527409393E+03  0.00000000000E+00 0. -1.
        -13    1    1    2    0    0  0.96925397953E+02  0.91795664194E+02  0.40284758032E+03  0.42439034021E+03  0.10566000000E+00 0.  1.
         13    1    1    2    0    0 -0.51581811726E+03 -0.60351472939E+02  0.69657706317E+03  0.86886722027E+03  0.10566000000E+00 0. -1.
         -4    1    1    2    0  502  0.41889271930E+03 -0.31444191255E+02  0.21533023100E+03  0.47204550186E+03  0.00000000000E+00 0. -1.
</event>
<event>
 5    1  0.4866530E-005  0.2718557E+02  0.7818608E-02  0.1429041E+00
          4   -1    0    0  502    0 -0.00000000000E+00  0.00000000000E+00  0.32058862011E+02  0.32058862011E+02  0.00000000000E+00 0.  1.
         21   -1    0    0  501  502  0.00000000000E+00 -0.00000000000E+00 -0.22797120517E+03  0.22797120517E+03  0.00000000000E+00 0.  1.
        -13    1    1    2    0    0  0.25854446200E+02 -0.78301026470E+01  0.22355176448E+02  0.35064625676E+02  0.10566000000E+00 0.  1.
         13    1    1    2    0    0 -0.23990940061E+02  0.22093677977E+02 -0.87004469145E+02  0.92916546572E+02  0.10566000000E+00 0. -1.
          4    1    1    2  501    0 -0.18635061383E+01 -0.14263575330E+02 -0.13126305046E+03  0.13204889493E+03  0.00000000000E+00 0.  1.
</event>
<event>
 5    1  0.4866530E-005  0.4699088E+03  0.7818608E-02  0.9673995E-01
         21   -1    0    0  501  502  0.00000000000E+00  0.00000000000E+00  0.26605811099E+03  0.26605811099E+03  0.00000000000E+00 0. -1.
         -4   -1    0    0    0  501 -0.00000000000E+00 -0.00000000000E+00 -0.17468703868E+04  0.17468703868E+04  0.00000000000E+00 0. -1.
        -13    1    1    2    0    0  0.25527388664E+03 -0.15537551435E+03 -0.55006745979E+03  0.62600361752E+03  0.10566000000E+00 0.  1.
         13    1    1    2    0    0  0.24441028987E+03  0.33061207094E+03 -0.69454085997E+03  0.80711074121E+03  0.10566000000E+00 0. -1.
         -4    1    1    2    0  502 -0.49968417651E+03 -0.17523655659E+03 -0.23620395607E+03  0.57981413909E+03  0.00000000000E+00 0. -1.
</event>
<event>
 5    1  0.4866530E-005  0.2612797E+03  0.7818608E-02  0.1024708E+00
         -4   -1    0    0    0  501 -0.00000000000E+00  0.00000000000E+00  0.12055523502E+04  0.12055523502E+04  0.00000000000E+00 0. -1.
         21   -1    0    0  501  502  0.00000000000E+00 -0.00000000000E+00 -0.53538744560E+03  0.53538744560E+03  0.00000000000E+00 0. -1.
        -13    1    1    2    0    0 -0.12312478229E+03 -0.22477366165E+03 -0.69971694950E+02  0.26566701008E+03  0.10566000000E+00 0.  1.
         13    1    1    2    0    0  0.90367782673E+02  0.24590232933E+03  0.10911204257E+04  0.11221310468E+04  0.10566000000E+00 0. -1.
         -4    1    1    2    0  502  0.32756999614E+02 -0.21128667683E+02 -0.35098382608E+03  0.35314173896E+03  0.00000000000E+00 0. -1.
</event>
<event>
 5    1  0.4866530E-005  0.3427322E+03  0.7818608E-02  0.9910813E-01
         21   -1    0    0  501  502  0.00000000000E+00  0.00000000000E+00  0.51320021508E+03  0.51320021508E+03  0.00000000000E+00 0.  1.
          4   -1    0    0  502    0 -0.00000000000E+00 -0.00000000000E+00 -0.11923622285E+04  0.11923622285E+04  0.00000000000E+00 0.  1.
        -13    1    1    2    0    0  0.16089441640E+03 -0.33405332689E+03  0.36918786071E+03  0.52323830717E+03  0.10566000000E+00 0.  1.
         13    1    1    2    0    0 -0.28733752636E+03  0.19058847803E+03 -0.55715335460E+03  0.65521499809E+03  0.10566000000E+00 0. -1.
          4    1    1    2  501    0  0.12644310996E+03  0.14346484886E+03 -0.49119651950E+03  0.52710913830E+03  0.00000000000E+00 0.  1.
</event>
<event>
 5    1  0.4866530E-005  0.3064487E+03  0.7818608E-02  0.1004679E+00
          4   -1    0    0  502    0 -0.00000000000E+00  0.00000000000E+00  0.62798689084E+03  0.62798689084E+03  0.00000000000E+00 0.  1.
         21   -1    0    0  501  502  0.00000000000E+00 -0.00000000000E+00 -0.47712429621E+03  0.47712429621E+03  0.00000000000E+00 0. -1.
        -13    1    1    2    0    0 -0.16133085615E+03  0.26786416998E+03  0.49634431842E+03  0.58663153026E+03  0.10566000000E+00 0.  1.
         13    1    1    2    0    0  0.19391312563E+03 -0.20004043611E+03 -0.16708242670E+03  0.32486154720E+03  0.10566000000E+00 0. -1.
          4    1    1    2  501    0 -0.32582269477E+02 -0.67823733872E+02 -0.17839929708E+03  0.19361810959E+03  0.00000000000E+00 0.  1.
</event>
<event>
 5    1  0.4866530E-005  0.3661143E+03  0.7818608E-02  0.9832360E-01
         21   -1    0    0  501  502  0.00000000000E+00  0.00000000000E+00  0.28319907516E+03  0.28319907516E+03  0.00000000000E+00 0.  1.
          4   -1    0    0  502    0 -0.00000000000E+00 -0.00000000000E+00 -0.22097380210E+04  0.22097380210E+04  0.00000000000E+00 0.  1.
        -13    1    1    2    0    0  0.58491448000E+03 -0.17616143711E+03 -0.80692358399E+03  0.10120689119E+04  0.10566000000E+00 0.  1.
         13    1    1    2    0    0 -0.28812994049E+03  0.12870608545E+03 -0.11368345562E+04  0.11798207230E+04  0.10566000000E+00 0. -1.
          4    1    1    2  501    0 -0.29678453950E+03  0.47455351662E+02  0.17219194355E+02  0.30104746128E+03  0.00000000000E+00 0.  1.
</event>
<event>
 5    1  0.4866530E-005  0.4922923E+03  0.7818608E-02  0.9611860E-01
         -4   -1    0    0    0  501 -0.00000000000E+00  0.00000000000E+00  0.15953129639E+04  0.15953129639E+04  0.00000000000E+00 0. -1.
         21   -1    0    0  501  502  0.00000000000E+00 -0.00000000000E+00 -0.29356164037E+03  0.29356164037E+03  0.00000000000E+00 0. -1.
        -13    1    1    2    0    0  0.27176232753E+03  0.17557145473E+03  0.35078767041E+03  0.47721284481E+03  0.10566000000E+00 0.  1.
         13    1    1    2    0    0  0.89227576755E+02  0.33057344353E+03  0.61777071144E+03  0.70631510326E+03  0.10566000000E+00 0. -1.
         -4    1    1    2    0  502 -0.36098990428E+03 -0.50614489826E+03  0.33319294169E+03  0.70534665620E+03  0.00000000000E+00 0. -1.
</event>
<event>
 5    1  0.4866530E-005  0.8169024E+03  0.7818608E-02  0.8968758E-01
         21   -1    0    0  501  502  0.00000000000E+00  0.00000000000E+00  0.26603153967E+03  0.26603153967E+03  0.00000000000E+00 0.  1.
         -4   -1    0    0    0  501 -0.00000000000E+00 -0.00000000000E+00 -0.42114473635E+04  0.42114473635E+04  0.00000000000E+00 0. -1.
        -13    1    1    2    0    0 -0.65264355267E+03  0.51959934120E+03 -0.16550897975E+04  0.18534425622E+04  0.10566000000E+00 0.  1.
         13    1    1    2    0    0  0.83491819333E+03 -0.15550471212E+03 -0.17711321269E+04  0.19642248158E+04  0.10566000000E+00 0. -1.
         -4    1    1    2    0  502 -0.18227464067E+03 -0.36409462908E+03 -0.51919389935E+03  0.65981152512E+03  0.00000000000E+00 0. -1.
</event>
<event>
 5    1  0.4866530E-005  0.3170641E+03  0.7818608E-02  0.1012258E+00
         21   -1    0    0  501  502  0.00000000000E+00  0.00000000000E+00  0.43200395874E+03  0.43200395874E+03  0.00000000000E+00 0.  1.
          4   -1    0    0  502    0 -0.00000000000E+00 -0.00000000000E+00 -0.12316548670E+04  0.12316548670E+04  0.00000000000E+00 0.  1.
        -13    1    1    2    0    0  0.13778694612E+03  0.28429440729E+03  0.27529742127E+03  0.41904323626E+03  0.10566000000E+00 0.  1.
         13    1    1    2    0    0 -0.19420651935E+03  0.96185954254E+02 -0.57032317782E+03  0.61011183260E+03  0.10566000000E+00 0. -1.
          4    1    1    2  501    0  0.56419573235E+02 -0.38048036154E+03 -0.50462515175E+03  0.63450375692E+03  0.00000000000E+00 0.  1.
</event>
<event>
 5    1  0.4866530E-005  0.1729600E+03  0.7818608E-02  0.1080440E+00
         -4   -1    0    0    0  501 -0.00000000000E+00  0.00000000000E+00  0.18684568613E+04  0.18684568613E+04  0.00000000000E+00 0. -1.
         21   -1    0    0  501  502  0.00000000000E+00 -0.00000000000E+00 -0.74924166591E+02  0.74924166591E+02  0.00000000000E+00 0. -1.
        -13    1    1    2    0    0 -0.14452648811E+03  0.10207672358E+03  0.84252441413E+03  0.86090357348E+03  0.10566000000E+00 0.  1.
         13    1    1    2    0    0  0.16701343631E+03 -0.10964669097E+02  0.47325853335E+02  0.17393521620E+03  0.10566000000E+00 0. -1.
         -4    1    1    2    0  502 -0.22486948198E+02 -0.91112054481E+02  0.90368242727E+03  0.90854223824E+03  0.00000000000E+00 0. -1.
</event>
<event>
 5    1  0.4866530E-005  0.1676924E+03  0.7818608E-02  0.1084863E+00
         21   -1    0    0  501  502  0.00000000000E+00  0.00000000000E+00  0.45890732741E+02  0.45890732741E+02  0.00000000000E+00 0. -1.
         -4   -1    0    0    0  501 -0.00000000000E+00 -0.00000000000E+00 -0.17340412223E+04  0.17340412223E+04  0.00000000000E+00 0. -1.
        -13    1    1    2    0    0  0.68988643532E+02  0.11378665830E+03 -0.61659507939E+03  0.63079025012E+03  0.10566000000E+00 0.  1.
         13    1    1    2    0    0 -0.15556181319E+03 -0.21128758890E+03 -0.87320426469E+03  0.91177169400E+03  0.10566000000E+00 0. -1.
         -4    1    1    2    0  502  0.86573169654E+02  0.97500930599E+02 -0.19835114542E+03  0.23737001088E+03  0.00000000000E+00 0. -1.
</event>
<event>
 5    1  0.4866530E-005  0.3465262E+03  0.7818608E-02  0.9897639E-01
         -4   -1    0    0    0  501 -0.00000000000E+00  0.00000000000E+00  0.64866667536E+03  0.64866667536E+03  0.00000000000E+00 0. -1.
         21   -1    0    0  501  502  0.00000000000E+00 -0.00000000000E+00 -0.14440599761E+04  0.14440599761E+04  0.00000000000E+00 0. -1.
        -13    1    1    2    0    0 -0.33094847774E+03 -0.61132808649E+02  0.38842833963E+03  0.51394620478E+03  0.10566000000E+00 0.  1.
         13    1    1    2    0    0  0.42501608106E+03 -0.22084566584E+03 -0.14824574984E+03  0.50138636877E+03  0.10566000000E+00 0. -1.
         -4    1    1    2    0  502 -0.94067603312E+02  0.28197847449E+03 -0.10355758905E+04  0.10773940779E+04  0.00000000000E+00 0. -1.
</event>
<event>
 5    1  0.4866530E-005  0.5334177E+02  0.7818608E-02  0.1278750E+00
         21   -1    0    0  501  502  0.00000000000E+00  0.00000000000E+00  0.45040004794E+02  0.45040004794E+02  0.00000000000E+00 0. -1.
         -4   -1    0    0    0  501 -0.00000000000E+00 -0.00000000000E+00 -0.84515558163E+02  0.84515558163E+02  0.00000000000E+00 0. -1.
        -13    1    1    2    0    0  0.11699882020E+02  0.47029567166E+02 -0.89637892726E+01  0.49285171292E+02  0.10566000000E+00 0.  1.
         13    1    1    2    0    0 -0.26091028951E+02 -0.52240827926E+02 -0.28000127762E+02  0.64760051057E+02  0.10566000000E+00 0. -1.
         -4    1    1    2    0  502  0.14391146931E+02  0.52112607604E+01 -0.25116363339E+01  0.15510340608E+02  0.00000000000E+00 0. -1.
</event>
<event>
 5    1  0.4866530E-005  0.4914070E+03  0.7818608E-02  0.1006208E+00
         21   -1    0    0  501  502  0.00000000000E+00  0.00000000000E+00  0.21456602470E+03  0.21456602470E+03  0.00000000000E+00 0. -1.
         -4   -1    0    0    0  501 -0.00000000000E+00 -0.00000000000E+00 -0.15513278187E+04  0.15513278187E+04  0.00000000000E+00 0. -1.
        -13    1    1    2    0    0  0.16709560128E+02 -0.68723001417E+02 -0.38671330381E+03  0.39312752490E+03  0.10566000000E+00 0.  1.
         13    1    1    2    0    0  0.37788345206E+03  0.33565248228E+03 -0.39615040544E+03  0.64217882797E+03  0.10566000000E+00 0. -1.
         -4    1    1    2    0  502 -0.39459301219E+03 -0.26692948086E+03 -0.55389808475E+03  0.73058749052E+03  0.00000000000E+00 0. -1.
</event>
<event>
 5    1  0.4866530E-005  0.3295059E+03  0.7818608E-02  0.1036771E+00
          4   -1    0    0  502    0 -0.00000000000E+00  0.00000000000E+00  0.44560783097E+03  0.44560783097E+03  0.00000000000E+00 0.  1.
         21   -1    0    0  501  502  0.00000000000E+00 -0.00000000000E+00 -0.69366053096E+03  0.69366053096E+03  0.00000000000E+00 0.  1.
        -13    1    1    2    0    0 -0.62691999896E+02 -0.31658318412E+03 -0.50258958624E+03  0.59728678428E+03  0.10566000000E+00 0.  1.
         13    1    1    2    0    0  0.59129443225E+02 -0.67560444947E+02  0.20320657394E+02  0.92052403871E+02  0.10566000000E+00 0. -1.
          4    1    1    2  501    0  0.35625566713E+01  0.38414362906E+03  0.23421622885E+03  0.44992917378E+03  0.00000000000E+00 0.  1.
</event>
<event>
 5    1  0.4866530E-005  0.3962507E+03  0.7818608E-02  0.9856627E-01
          4   -1    0    0  502    0 -0.00000000000E+00  0.00000000000E+00  0.40496584034E+03  0.40496584034E+03  0.00000000000E+00 0.  1.
         21   -1    0    0  501  502  0.00000000000E+00 -0.00000000000E+00 -0.17097023295E+04  0.17097023295E+04  0.00000000000E+00 0.  1.
        -13    1    1    2    0    0  0.41805082922E+03  0.17204162242E+03 -0.25685435971E+03  0.51994133220E+03  0.10566000000E+00 0.  1.
         13    1    1    2    0    0 -0.20715593324E+03  0.16687705059E+03  0.16825329443E+03  0.31475500463E+03  0.10566000000E+00 0. -1.
          4    1    1    2  501    0 -0.21089489598E+03 -0.33891867301E+03 -0.12161354239E+04  0.12799718330E+04  0.00000000000E+00 0.  1.
</event>
<event>
 5    1  0.4866530E-005  0.5034932E+03  0.7818608E-02  0.9858254E-01
         21   -1    0    0  501  502  0.00000000000E+00  0.00000000000E+00  0.21845381742E+03  0.21845381742E+03  0.00000000000E+00 0.  1.
          4   -1    0    0  502    0 -0.00000000000E+00 -0.00000000000E+00 -0.16280298390E+04  0.16280298390E+04  0.00000000000E+00 0.  1.
        -13    1    1    2    0    0 -0.48314571245E+03 -0.18692779253E+02 -0.48774402431E+03  0.68678485996E+03  0.10566000000E+00 0.  1.
         13    1    1    2    0    0 -0.30314683142E+02 -0.12534268938E+03 -0.37206820268E+03  0.39378233633E+03  0.10566000000E+00 0. -1.
          4    1    1    2  501    0  0.51346039559E+03  0.14403546863E+03 -0.54976379458E+03  0.76591646013E+03  0.00000000000E+00 0.  1.
</event>
<event>
 5    1  0.4866530E-005  0.4726311E+03  0.7818608E-02  0.1008350E+00
          4   -1    0    0  502    0 -0.00000000000E+00  0.00000000000E+00  0.81548937706E+03  0.81548937706E+03  0.00000000000E+00 0.  1.
         21   -1    0    0  501  502  0.00000000000E+00 -0.00000000000E+00 -0.39075076518E+03  0.39075076518E+03  0.00000000000E+00 0.  1.
        -13    1    1    2    0    0 -0.18699107518E+03  0.46134562377E+03 -0.54251021605E+02  0.50074807166E+03  0.10566000000E+00 0.  1.
         13    1    1    2    0    0  0.19180901017E+02 -0.71656978768E+02  0.15436976397E+03  0.17126781590E+03  0.10566000000E+00 0. -1.
          4    1    1    2  501    0  0.16781017416E+03 -0.38968864500E+03  0.32461986951E+03  0.53422425467E+03  0.00000000000E+00 0.  1.
</event>
<event>
 5    1  0.4866530E-005  0.4474110E+03  0.7818608E-02  0.9723980E-01
         21   -1    0    0  501  502  0.00000000000E+00  0.00000000000E+00  0.33755803333E+03  0.33755803333E+03  0.00000000000E+00 0.  1.
          4   -1    0    0  502    0 -0.00000000000E+00 -0.00000000000E+00 -0.14067753440E+04  0.14067753440E+04  0.00000000000E+00 0.  1.
        -13    1    1    2    0    0  0.11934892368E+03 -0.53881790416E+03 -0.55002730522E+03  0.77916554536E+03  0.10566000000E+00 0.  1.
         13    1    1    2    0    0  0.17781259663E+03  0.23022763450E+03 -0.44309898066E+03  0.53005546977E+03  0.10566000000E+00 0. -1.
          4    1    1    2  501    0 -0.29716152031E+03  0.30859026966E+03 -0.76091024785E+02  0.43511236220E+03  0.00000000000E+00 0.  1.
</event>
<event>
 5    1  0.4866530E-005  0.2649250E+03  0.7818608E-02  0.1022936E+00
         -4   -1    0    0    0  501 -0.00000000000E+00  0.00000000000E+00  0.34089501557E+03  0.34089501557E+03  0.00000000000E+00 0. -1.
         21   -1    0    0  501  502  0.00000000000E+00 -0.00000000000E+00 -0.30110793982E+03  0.30110793982E+03  0.00000000000E+00 0.  1.
        -13    1    1    2    0    0 -0.25352555275E+03  0.10660105044E+03 -0.27545154264E+02  0.27640140474E+03  0.10566000000E+00 0.  1.
         13    1    1    2    0    0  0.24868258167E+03 -0.76270283023E+02  0.13370419552E+03  0.29246710168E+03  0.10566000000E+00 0. -1.
         -4    1    1    2    0  502  0.48429710813E+01 -0.30330767415E+02 -0.66371965506E+02  0.73134448969E+02  0.00000000000E+00 0. -1.
</event>
<event>
 5    1  0.4866530E-005  0.3501982E+03  0.7818608E-02  0.9983888E-01
         21   -1    0    0  501  502  0.00000000000E+00  0.00000000000E+00  0.13875555365E+03  0.13875555365E+03  0.00000000000E+00 0. -1.
         -4   -1    0    0    0  501 -0.00000000000E+00 -0.00000000000E+00 -0.33272974421E+04  0.33272974421E+04  0.00000000000E+00 0. -1.
        -13    1    1    2    0    0  0.27749456811E+02  0.25066166076E+03 -0.13796115054E+04  0.14024725372E+04  0.10566000000E+00 0.  1.
         13    1    1    2    0    0 -0.31207736468E+03 -0.12885843665E+02 -0.16156503446E+04  0.16455650621E+04  0.10566000000E+00 0. -1.
         -4    1    1    2    0  502  0.28432790787E+03 -0.23777581709E+03 -0.19328003841E+03  0.41801539641E+03  0.00000000000E+00 0. -1.
</event>
<event>
 5    1  0.4866530E-005  0.4227937E+03  0.7818608E-02  0.9919880E-01
         -4   -1    0    0    0  501 -0.00000000000E+00  0.00000000000E+00  0.26626057946E+03  0.26626057946E+03  0.00000000000E+00 0. -1.
         21   -1    0    0  501  502  0.00000000000E+00 -0.00000000000E+00 -0.10894889633E+04  0.10894889633E+04  0.00000000000E+00 0. -1.
        -13    1    1    2    0    0  0.15435952097E+03  0.86887837320E+02 -0.22809590520E+03  0.28879769930E+03  0.10566000000E+00 0.  1.
         13    1    1    2    0    0 -0.45308232462E+03  0.17077559262E+03 -0.26154156508E+03  0.55031981370E+03  0.10566000000E+00 0. -1.
         -4    1    1    2    0  502  0.29872280366E+03 -0.25766342995E+03 -0.33359091355E+03  0.51663202975E+03  0.00000000000E+00 0. -1.
</event>
<event>
 5    1  0.4866530E-005  0.5671500E+02  0.7818608E-02  0.1266628E+00
         21   -1    0    0  501  502  0.00000000000E+00  0.00000000000E+00  0.22217381823E+03  0.22217381823E+03  0.00000000000E+00 0.  1.
         -4   -1    0    0    0  501 -0.00000000000E+00 -0.00000000000E+00 -0.25509461162E+02  0.25509461162E+02  0.00000000000E+00 0. -1.
        -13    1    1    2    0    0 -0.50041798942E+02 -0.36366179023E+02  0.12171644813E+03  0.13653419179E+03  0.10566000000E+00 0.  1.
         13    1    1    2    0    0  0.38274590651E+02  0.39775980368E+02  0.26603832856E+02  0.61276814460E+02  0.10566000000E+00 0. -1.
         -4    1    1    2    0  502  0.11767208291E+02 -0.34098013451E+01  0.48344076089E+02  0.49872273149E+02  0.00000000000E+00 0. -1.
</event>
<event>
 5    1  0.4866530E-005  0.4374559E+03  0.7818608E-02  0.9654882E-01
         21   -1    0    0  501  502  0.00000000000E+00  0.00000000000E+00  0.10667638695E+04  0.10667638695E+04  0.00000000000E+00 0.  1.
          4   -1    0    0  502    0 -0.00000000000E+00 -0.00000000000E+00 -0.82117059532E+03  0.82117059532E+03  0.00000000000E+00 0.  1.
        -13    1    1    2    0    0 -0.86051748541E+02  0.24417735837E+03 -0.16097557473E+03  0.30486166139E+03  0.10566000000E+00 0.  1.
         13    1    1    2    0    0 -0.41700524221E+03 -0.19353415533E+03 -0.41438210533E+03  0.61891952763E+03  0.10566000000E+00 0. -1.
          4    1    1    2  501    0  0.50305699075E+03 -0.50643203037E+02  0.82095095421E+03  0.96415327577E+03  0.00000000000E+00 0.  1.
</event>
<event>
 5    1  0.4866530E-005  0.5010043E+03  0.7818608E-02  0.9542763E-01
         -4   -1    0    0    0  501 -0.00000000000E+00  0.00000000000E+00  0.25641171873E+04  0.25641171873E+04  0.00000000000E+00 0. -1.
         21   -1    0    0  501  502  0.00000000000E+00 -0.00000000000E+00 -0.25069944557E+03  0.25069944557E+03  0.00000000000E+00 0. -1.
        -13    1    1    2    0    0  0.33895861025E+03 -0.19880085327E+03  0.11784439148E+04  0.12422337905E+04  0.10566000000E+00 0.  1.
         13    1    1    2    0    0  0.88522334267E+02  0.52812658984E+03  0.44241201631E+03  0.69460945998E+03  0.10566000000E+00 0. -1.
         -4    1    1    2    0  502 -0.42748094452E+03 -0.32932573656E+03  0.69256181063E+03  0.87797338242E+03  0.00000000000E+00 0. -1.
</event>
<event>
 5    1  0.4866530E-005  0.6055446E+03  0.7818608E-02  0.9272567E-01
         21   -1    0    0  501  502  0.00000000000E+00  0.00000000000E+00  0.51088888172E+03  0.51088888172E+03  0.00000000000E+00 0.  1.
          4   -1    0    0  502    0 -0.00000000000E+00 -0.00000000000E+00 -0.18970430937E+04  0.18970430937E+04  0.00000000000E+00 0.  1.
        -13    1    1    2    0    0 -0.63069696832E+03 -0.75692804021E+02 -0.83939218045E+03  0.10526572615E+04  0.10566000000E+00 0.  1.
         13    1    1    2    0    0  0.52763144576E+03 -0.44647347125E+03 -0.19814064753E+03  0.71902241304E+03  0.10566000000E+00 0. -1.
          4    1    1    2  501    0  0.10306552256E+03  0.52216627527E+03 -0.34862138397E+03  0.63625230085E+03  0.00000000000E+00 0.  1.
</event>
<event>
 5    1  0.4866530E-005  0.1531932E+03  0.7818608E-02  0.1098005E+00
         -4   -1    0    0    0  501 -0.00000000000E+00  0.00000000000E+00  0.33721503092E+03  0.33721503092E+03  0.00000000000E+00 0. -1.
         21   -1    0    0  501  502  0.00000000000E+00 -0.00000000000E+00 -0.14070559624E+03  0.14070559624E+03  0.00000000000E+00 0. -1.
        -13    1    1    2    0    0 -0.10191866660E+03 -0.74692091732E+02  0.28900337801E+02  0.12962084654E+03  0.10566000000E+00 0.  1.
         13    1    1    2    0    0  0.82774664883E+02  0.15759075451E+03  0.18996332334E+03  0.26033164701E+03  0.10566000000E+00 0. -1.
         -4    1    1    2    0  502  0.19144001713E+02 -0.82898662782E+02 -0.22354226461E+02  0.87968133624E+02  0.00000000000E+00 0. -1.
</event>
<event>
 5    1  0.4866530E-005  0.5241669E+03  0.7818608E-02  0.9837431E-01
          4   -1    0    0  502    0 -0.00000000000E+00  0.00000000000E+00  0.19552641866E+04  0.19552641866E+04  0.00000000000E+00 0.  1.
         21   -1    0    0  501  502  0.00000000000E+00 -0.00000000000E+00 -0.22704309875E+03  0.22704309875E+03  0.00000000000E+00 0.  1.
        -13    1    1    2    0    0  0.13063378154E+03 -0.56609773190E+03  0.48856461225E+03  0.75909631698E+03  0.10566000000E+00 0.  1.
         13    1    1    2    0    0 -0.66726124209E+02  0.10288545167E+03  0.69336382756E+03  0.70412442108E+03  0.10566000000E+00 0. -1.
          4    1    1    2  501    0 -0.63907657330E+02  0.46321228022E+03  0.54629264805E+03  0.71908654731E+03  0.00000000000E+00 0.  1.
</event>
<event>
 5    1  0.4866530E-005  0.1432945E+03  0.7818608E-02  0.1185563E+00
         21   -1    0    0  501  502  0.00000000000E+00  0.00000000000E+00  0.43884713171E+03  0.43884713171E+03  0.00000000000E+00 0. -1.
         -4   -1    0    0    0  501 -0.00000000000E+00 -0.00000000000E+00 -0.12761142637E+03  0.12761142637E+03  0.00000000000E+00 0. -1.
        -13    1    1    2    0    0  0.20610857130E+02  0.10534594662E+01 -0.59153877461E+02  0.62650695057E+02  0.10566000000E+00 0.  1.
         13    1    1    2    0    0  0.68962127004E+01  0.14258088782E+03  0.31781356222E+03  0.34839968257E+03  0.10566000000E+00 0. -1.
         -4    1    1    2    0  502 -0.27507069830E+02 -0.14363434729E+03  0.52576020575E+02  0.15540818045E+03  0.00000000000E+00 0. -1.
</event>
<event>
 5    1  0.4866530E-005  0.4640735E+03  0.7818608E-02  0.9842162E-01
         -4   -1    0    0    0  501 -0.00000000000E+00  0.00000000000E+00  0.79330211215E+03  0.79330211215E+03  0.00000000000E+00 0. -1.
         21   -1    0    0  501  502  0.00000000000E+00 -0.00000000000E+00 -0.46740833582E+03  0.46740833582E+03  0.00000000000E+00 0. -1.
        -13    1    1    2    0    0 -0.16043448317E+03  0.67078580494E+02  0.15044995732E+03  0.22994338471E+03  0.10566000000E+00 0.  1.
         13    1    1    2    0    0  0.57382563429E+03 -0.25461880338E+02  0.21521901638E+03  0.61338682909E+03  0.10566000000E+00 0. -1.
         -4    1    1    2    0  502 -0.41339115112E+03 -0.41616700157E+02 -0.39775197365E+02  0.41738023417E+03  0.00000000000E+00 0. -1.
</event>
<event>
 5    1  0.4866530E-005  0.4727246E+03  0.7818608E-02  0.9797256E-01
         -4   -1    0    0    0  501 -0.00000000000E+00  0.00000000000E+00  0.13782179130E+03  0.13782179130E+03  0.00000000000E+00 0. -1.
         21   -1    0    0  501  502  0.00000000000E+00 -0.00000000000E+00 -0.33492308737E+04  0.33492308737E+04  0.00000000000E+00 0. -1.
        -13    1    1    2    0    0 -0.17919859666E+03 -0.67984074543E+02 -0.95338779855E+02  0.21406416222E+03  0.10566000000E+00 0.  1.
         13    1    1    2    0    0  0.40487769420E+03  0.35342252347E+03 -0.25031412530E+04  0.25601854564E+04  0.10566000000E+00 0. -1.
         -4    1    1    2    0  502 -0.22567909753E+03 -0.28543844893E+03 -0.61292904952E+03  0.71280304638E+03  0.00000000000E+00 0. -1.
</event>
<event>
 5    1  0.4866530E-005  0.2956947E+02  0.7818608E-02  0.1451975E+00
         -4   -1    0    0    0  501 -0.00000000000E+00  0.00000000000E+00  0.11750820733E+03  0.11750820733E+03  0.00000000000E+00 0. -1.
         21   -1    0    0  501  502  0.00000000000E+00 -0.00000000000E+00 -0.40659396386E+02  0.40659396386E+02  0.00000000000E+00 0.  1.
        -13    1    1    2    0    0  0.30811369640E+01 -0.14378279901E+02 -0.12470196686E+02  0.19280697792E+02  0.10566000000E+00 0.  1.
         13    1    1    2    0    0  0.26036739280E+02  0.66656622828E+01  0.10253077077E+03  0.10599487235E+03  0.10566000000E+00 0. -1.
         -4    1    1    2    0  502 -0.29117876244E+02  0.77126176186E+01 -0.13211763138E+02  0.32892033575E+02  0.00000000000E+00 0. -1.
</event>
<event>
 5    1  0.4866530E-005  0.1245354E+03  0.7818608E-02  0.1129343E+00
         21   -1    0    0  501  502  0.00000000000E+00  0.00000000000E+00  0.37606774439E+03  0.37606774439E+03  0.00000000000E+00 0. -1.
          4   -1    0    0  502    0 -0.00000000000E+00 -0.00000000000E+00 -0.10794737955E+03  0.10794737955E+03  0.00000000000E+00 0.  1.
        -13    1    1    2    0    0  0.83200664605E+02  0.93737284646E+02 -0.53779453259E+02  0.13638647250E+03  0.10566000000E+00 0.  1.
         13    1    1    2    0    0 -0.71150410261E+02 -0.95316190981E+02  0.29661319835E+03  0.31957308670E+03  0.10566000000E+00 0. -1.
          4    1    1    2  501    0 -0.12050254344E+02  0.15789063349E+01  0.25286619753E+02  0.28055564751E+02  0.00000000000E+00 0.  1.
</event>
<event>
 5    1  0.4866530E-005  0.4988853E+03  0.7818608E-02  0.9630232E-01
         21   -1    0    0  501  502  0.00000000000E+00  0.00000000000E+00  0.32407617717E+03  0.32407617717E+03  0.00000000000E+00 0. -1.
         -4   -1    0    0    0  501 -0.00000000000E+00 -0.00000000000E+00 -0.14280020521E+04  0.14280020521E+04  0.00000000000E+00 0. -1.
        -13    1    1    2    0    0 -0.29069113272E+03 -0.18851450775E+02 -0.23700393937E+03  0.37553640340E+03  0.10566000000E+00 0.  1.
         13    1    1    2    0    0  0.43588455551E+03  0.38478800686E+03 -0.22486201985E+03  0.62339401272E+03  0.10566000000E+00 0. -1.
         -4    1    1    2    0  502 -0.14519342278E+03 -0.36593655609E+03 -0.64205991574E+03  0.75314781319E+03  0.00000000000E+00 0. -1.
</event>
<event>
 5    1  0.4866530E-005  0.3209999E+03  0.7818608E-02  0.1001199E+00
         21   -1    0    0  501  502  0.00000000000E+00  0.00000000000E+00  0.11030639138E+04  0.11030639138E+04  0.00000000000E+00 0.  1.
          4   -1    0    0  502    0 -0.00000000000E+00 -0.00000000000E+00 -0.60434756541E+03  0.60434756541E+03  0.00000000000E+00 0.  1.
        -13    1    1    2    0    0  0.59187382839E+02 -0.29500278151E+03  0.71158592459E+03  0.77258289304E+03  0.10566000000E+00 0.  1.
         13    1    1    2    0    0 -0.21142049658E+03 -0.21092098821E+03 -0.27104911432E+03  0.40330376043E+03  0.10566000000E+00 0. -1.
          4    1    1    2  501    0  0.15223311374E+03  0.50592376972E+03  0.58179538080E+02  0.53152482570E+03  0.00000000000E+00 0.  1.
</event>
<event>
 5    1  0.4866530E-005  0.6058749E+02  0.7818608E-02  0.1253830E+00
         21   -1    0    0  501  502  0.00000000000E+00  0.00000000000E+00  0.53392859878E+02  0.53392859878E+02  0.00000000000E+00 0. -1.
         -4   -1    0    0    0  501 -0.00000000000E+00 -0.00000000000E+00 -0.24120258582E+03  0.24120258582E+03  0.00000000000E+00 0. -1.
        -13    1    1    2    0    0  0.43167516433E+02  0.61294865090E+02 -0.13735213432E+03  0.15648039790E+03  0.10566000000E+00 0.  1.
         13    1    1    2    0    0  0.57361720895E+01 -0.53896295742E+02 -0.66801691217E+02  0.86024365609E+02  0.10566000000E+00 0. -1.
         -4    1    1    2    0  502 -0.48903688523E+02 -0.73985693483E+01  0.16344099590E+02  0.52090682189E+02  0.00000000000E+00 0. -1.
</event>
<event>
 5    1  0.4866530E-005  0.4826473E+03  0.7818608E-02  0.1023238E+00
         21   -1    0    0  501  502  0.00000000000E+00  0.00000000000E+00  0.43197592327E+03  0.43197592327E+03  0.00000000000E+00 0.  1.
          4   -1    0    0  502    0 -0.00000000000E+00 -0.00000000000E+00 -0.62662995579E+03  0.62662995579E+03  0.00000000000E+00 0.  1.
        -13    1    1    2    0    0 -0.74300737822E+02 -0.49921279701E+03 -0.19036813680E+03  0.53942010994E+03  0.10566000000E+00 0.  1.
         13    1    1    2    0    0  0.29209240298E+02  0.32099247643E+02 -0.23796031848E+02  0.49495491853E+02  0.10566000000E+00 0. -1.
          4    1    1    2  501    0  0.45091497525E+02  0.46711354936E+03  0.19510136138E+02  0.46969027727E+03  0.00000000000E+00 0.  1.
</event>
<event>
 5    1  0.4866530E-005  0.3093906E+02  0.7818608E-02  0.1397523E+00
         21   -1    0    0  501  502  0.00000000000E+00  0.00000000000E+00  0.22716306304E+03  0.22716306304E+03  0.00000000000E+00 0.  1.
         -4   -1    0    0    0  501 -0.00000000000E+00 -0.00000000000E+00 -0.84722455423E+01  0.84722455423E+01  0.00000000000E+00 0. -1.
        -13    1    1    2    0    0  0.13579827698E+02 -0.15669195996E+02  0.11348656786E+03  0.11536527932E+03  0.10566000000E+00 0.  1.
         13    1    1    2    0    0 -0.18938265471E+02  0.29563291840E+02  0.39275428436E+02  0.52680324281E+02  0.10566000000E+00 0. -1.
         -4    1    1    2    0  502  0.53584377728E+01 -0.13894095844E+02  0.65928821208E+02  0.67589704989E+02  0.00000000000E+00 0. -1.
</event>
<event>
 5    1  0.4866530E-005  0.5969178E+02  0.7818608E-02  0.1267675E+00
         -4   -1    0    0    0  501 -0.00000000000E+00  0.00000000000E+00  0.39905906019E+02  0.39905906019E+02  0.00000000000E+00 0. -1.
         21   -1    0    0  501  502  0.00000000000E+00 -0.00000000000E+00 -0.25815409132E+03  0.25815409132E+03  0.00000000000E+00 0. -1.
        -13    1    1    2    0    0 -0.66504527330E+02  0.66099674593E+01 -0.10379327702E+03  0.12344877215E+03  0.10566000000E+00 0.  1.
         13    1    1    2    0    0  0.15808882096E+02 -0.55144066070E+02 -0.73905567520E+02  0.93556575666E+02  0.10566000000E+00 0. -1.
         -4    1    1    2    0  502  0.50695645235E+02  0.48534098611E+02 -0.40549340757E+02  0.81054649525E+02  0.00000000000E+00 0. -1.
</event>
<event>
 5    1  0.4866530E-005  0.1193374E+03  0.7818608E-02  0.1136016E+00
         -4   -1    0    0    0  501 -0.00000000000E+00  0.00000000000E+00  0.26500940674E+03  0.26500940674E+03  0.00000000000E+00 0. -1.
         21   -1    0    0  501  502  0.00000000000E+00 -0.00000000000E+00 -0.14873581405E+03  0.14873581405E+03  0.00000000000E+00 0.  1.
        -13    1    1    2    0    0 -0.33648437258E+01 -0.11383548422E+03 -0.18791569578E+02  0.11542518742E+03  0.10566000000E+00 0.  1.
         13    1    1    2    0    0  0.47720692727E+02  0.11278013916E+03  0.19102343679E+03  0.22690656418E+03  0.10566000000E+00 0. -1.
         -4    1    1    2    0  502 -0.44355849001E+02  0.10553450569E+01 -0.55958274515E+02  0.71413469182E+02  0.00000000000E+00 0. -1.
</event>
<event>
 5    1  0.4866530E-005  0.6552079E+02  0.7818608E-02  0.1238994E+00
         21   -1    0    0  501  502  0.00000000000E+00  0.00000000000E+00  0.87052114420E+02  0.87052114420E+02  0.00000000000E+00 0. -1.
         -4   -1    0    0    0  501 -0.00000000000E+00 -0.00000000000E+00 -0.18393505339E+03  0.18393505339E+03  0.00000000000E+00 0. -1.
        -13    1    1    2    0    0 -0.57325831721E+01 -0.68862369489E+02 -0.36150747850E+02  0.77985743413E+02  0.10566000000E+00 0.  1.
         13    1    1    2    0    0 -0.62441522092E+01  0.64119472497E+02 -0.11792552949E+03  0.13437536180E+03  0.10566000000E+00 0. -1.
         -4    1    1    2    0  502  0.11976735381E+02  0.47428969927E+01  0.57193338367E+02  0.58626062599E+02  0.00000000000E+00 0. -1.
</event>
<event>
 5    1  0.4866530E-005  0.4742333E+03  0.7818608E-02  0.9536309E-01
          4   -1    0    0  502    0 -0.00000000000E+00  0.00000000000E+00  0.19084041671E+04  0.19084041671E+04  0.00000000000E+00 0.  1.
         21   -1    0    0  501  502  0.00000000000E+00 -0.00000000000E+00 -0.29546345971E+03  0.29546345971E+03  0.00000000000E+00 0.  1.
        -13    1    1    2    0    0  0.64655652634E+03  0.28141571815E+03  0.77966283975E+03  0.10512394128E+04  0.10566000000E+00 0.  1.
         13    1    1    2    0    0 -0.38019420221E+03 -0.86326108164E+02  0.69039673206E+03  0.79287293254E+03  0.10566000000E+00 0. -1.
          4    1    1    2  501    0 -0.26636232414E+03 -0.19508960999E+03  0.14288113559E+03  0.35975528148E+03  0.00000000000E+00 0.  1.
</event>
<event>
 5    1  0.4866530E-005  0.4629479E+03  0.7818608E-02  0.1009361E+00
         21   -1    0    0  501  502  0.00000000000E+00  0.00000000000E+00  0.10837052034E+04  0.10837052034E+04  0.00000000000E+00 0. -1.
         -4   -1    0    0    0  501 -0.00000000000E+00 -0.00000000000E+00 -0.23626472086E+03  0.23626472086E+03  0.00000000000E+00 0. -1.
        -13    1    1    2    0    0  0.72866942528E+02  0.22973388979E+02  0.31420210610E+02  0.82611190001E+02  0.10566000000E+00 0.  1.
         13    1    1    2    0    0  0.42070678338E+03 -0.94390368082E+02  0.36367381649E+03  0.56405885786E+03  0.10566000000E+00 0. -1.
         -4    1    1    2    0  502 -0.49357372590E+03  0.71416979103E+02  0.45234645544E+03  0.67329987640E+03  0.00000000000E+00 0. -1.
</event>
<event>
 5    1  0.4866530E-005  0.5310501E+02  0.7818608E-02  0.1279638E+00
         21   -1    0    0  501  502  0.00000000000E+00  0.00000000000E+00  0.19461163990E+03  0.19461163990E+03  0.00000000000E+00 0.  1.
         -4   -1    0    0    0  501 -0.00000000000E+00 -0.00000000000E+00 -0.55261838209E+02  0.55261838209E+02  0.00000000000E+00 0. -1.
        -13    1    1    2    0    0  0.10639529374E+02 -0.34878210136E+02  0.13640469777E+03  0.14119469490E+03  0.10566000000E+00 0.  1.
         13    1    1    2    0    0  0.70789926485E+00  0.55116392743E+02 -0.34209978923E+02  0.64874121901E+02  0.10566000000E+00 0. -1.
         -4    1    1    2    0  502 -0.11347428639E+02 -0.20238182607E+02  0.37155082838E+02  0.43804661311E+02  0.00000000000E+00 0. -1.
</event>
<event>
 5    1  0.4866530E-005  0.1719989E+03  0.7818608E-02  0.1081234E+00
         21   -1    0    0  501  502  0.00000000000E+00  0.00000000000E+00  0.17848366950E+03  0.17848366950E+03  0.00000000000E+00 0.  1.
         -4   -1    0    0    0  501 -0.00000000000E+00 -0.00000000000E+00 -0.38082303215E+03  0.38082303215E+03  0.00000000000E+00 0. -1.
        -13    1    1    2    0    0  0.18082190650E+03 -0.77359580344E+00 -0.21843841281E+03  0.28357099936E+03  0.10566000000E+00 0.  1.
         13    1    1    2    0    0 -0.15813816108E+03  0.18030336864E+02 -0.78119581534E+02  0.17730045465E+03  0.10566000000E+00 0. -1.
         -4    1    1    2    0  502 -0.22683745423E+02 -0.17256741060E+02  0.94218631700E+02  0.98435247640E+02  0.00000000000E+00 0. -1.
</event>
<event>
 5    1  0.4866530E-005  0.1079010E+03  0.7818608E-02  0.1189762E+00
         21   -1    0    0  501  502  0.00000000000E+00  0.00000000000E+00  0.33125695276E+03  0.33125695276E+03  0.00000000000E+00 0.  1.
          4   -1    0    0  502    0 -0.00000000000E+00 -0.00000000000E+00 -0.20221816609E+03  0.20221816609E+03  0.00000000000E+00 0.  1.
        -13    1    1    2    0    0 -0.94058225311E+02  0.99196286746E+02 -0.15824426863E+03  0.20911267961E+03  0.10566000000E+00 0.  1.
         13    1    1    2    0    0  0.43462716004E+02 -0.57697477352E+01  0.72233484121E+02  0.84498432315E+02  0.10566000000E+00 0. -1.
          4    1    1    2  501    0  0.50595509307E+02 -0.93426539011E+02  0.21504957119E+03  0.23986400693E+03  0.00000000000E+00 0.  1.
</event>
<event>
 5    1  0.4866530E-005  0.1456166E+03  0.7818608E-02  0.1125115E+00
          4   -1    0    0  502    0 -0.00000000000E+00  0.00000000000E+00  0.60018678889E+02  0.60018678889E+02  0.00000000000E+00 0.  1.
         21   -1    0    0  501  502  0.00000000000E+00 -0.00000000000E+00 -0.84306471008E+03  0.84306471008E+03  0.00000000000E+00 0.  1.
        -13    1    1    2    0    0  0.62973775797E+02  0.12711263783E+03 -0.17248368371E+03  0.22332476675E+03  0.10566000000E+00 0.  1.
         13    1    1    2    0    0  0.70953929612E+02 -0.50136863563E+02 -0.54316373353E+02  0.10246191875E+03  0.10566000000E+00 0. -1.
          4    1    1    2  501    0 -0.13392770541E+03 -0.76975774269E+02 -0.55624597414E+03  0.57729670347E+03  0.00000000000E+00 0.  1.
</event>
<event>
 5    1  0.4866530E-005  0.4549942E+03  0.7818608E-02  0.9660556E-01
         21   -1    0    0  501  502  0.00000000000E+00  0.00000000000E+00  0.25991862651E+03  0.25991862651E+03  0.00000000000E+00 0. -1.
         -4   -1    0    0    0  501 -0.00000000000E+00 -0.00000000000E+00 -0.21625750222E+04  0.21625750222E+04  0.00000000000E+00 0. -1.
        -13    1    1    2    0    0  0.25422319532E+02  0.34415087662E+03 -0.93208851180E+03  0.99391907377E+03  0.10566000000E+00 0.  1.
         13    1    1    2    0    0  0.39836577669E+03 -0.30961005962E+03 -0.18888095620E+03  0.53872971687E+03  0.10566000000E+00 0. -1.
         -4    1    1    2    0  502 -0.42378809622E+03 -0.34540817003E+02 -0.78168692772E+03  0.88984485811E+03  0.00000000000E+00 0. -1.
</event>
<event>
 5    1  0.4866530E-005  0.2258193E+03  0.7818608E-02  0.1047154E+00
         -4   -1    0    0    0  501 -0.00000000000E+00  0.00000000000E+00  0.25375104097E+04  0.25375104097E+04  0.00000000000E+00 0. -1.
         21   -1    0    0  501  502  0.00000000000E+00 -0.00000000000E+00 -0.18732966288E+03  0.18732966288E+03  0.00000000000E+00 0. -1.
        -13    1    1    2    0    0 -0.12903556025E+03 -0.15784031401E+03  0.10458759855E+04  0.10655610395E+04  0.10566000000E+00 0.  1.
         13    1    1    2    0    0  0.13203965483E+03  0.37502875846E+03  0.13746254581E+04  0.14309703706E+04  0.10566000000E+00 0. -1.
         -4    1    1    2    0  502 -0.30040945818E+01 -0.21718844445E+03 -0.70320696853E+02  0.22830866254E+03  0.00000000000E+00 0. -1.
</event>
<event>
 5    1  0.4866530E-005  0.4539376E+03  0.7818608E-02  0.9778246E-01
          4   -1    0    0  502    0 -0.00000000000E+00  0.00000000000E+00  0.22136812816E+04  0.22136812816E+04  0.00000000000E+00 0.  1.
         21   -1    0    0  501  502  0.00000000000E+00 -0.00000000000E+00 -0.18509623516E+03  0.18509623516E+03  0.00000000000E+00 0. -1.
        -13    1    1    2    0    0  0.21578285361E+03  0.42725386072E+03  0.34785000050E+03  0.59169902436E+03  0.10566000000E+00 0.  1.
         13    1    1    2    0    0 -0.23098324236E+03  0.33137748751E+01  0.52163054128E+03  0.57049335852E+03  0.10566000000E+00 0. -1.
          4    1    1    2  501    0  0.15200388748E+02 -0.43056763559E+03  0.11591045047E+04  0.12365851339E+04  0.00000000000E+00 0.  1.
</event>
<event>
 5    1  0.4866530E-005  0.2055565E+03  0.7818608E-02  0.1056392E+00
         21   -1    0    0  501  502  0.00000000000E+00  0.00000000000E+00  0.13856605173E+03  0.13856605173E+03  0.00000000000E+00 0.  1.
         -4   -1    0    0    0  501 -0.00000000000E+00 -0.00000000000E+00 -0.10363591990E+04  0.10363591990E+04  0.00000000000E+00 0. -1.
        -13    1    1    2    0    0 -0.23362088334E+01  0.20913489422E+03 -0.31594049292E+02  0.21152081923E+03  0.10566000000E+00 0.  1.
         13    1    1    2    0    0 -0.61889433553E+02 -0.19679463350E+03 -0.87356216707E+03  0.89759083142E+03  0.10566000000E+00 0. -1.
         -4    1    1    2    0  502  0.64225642386E+02 -0.12340260723E+02  0.73630690477E+01  0.65813600118E+02  0.00000000000E+00 0. -1.
</event>
<event>
 5    1  0.4866530E-005  0.3980905E+03  0.7818608E-02  0.9734577E-01
         21   -1    0    0  501  502  0.00000000000E+00  0.00000000000E+00  0.66363170553E+03  0.66363170553E+03  0.00000000000E+00 0.  1.
          4   -1    0    0  502    0 -0.00000000000E+00 -0.00000000000E+00 -0.49191410297E+03  0.49191410297E+03  0.00000000000E+00 0.  1.
        -13    1    1    2    0    0 -0.37941100326E+03  0.10863626318E+03  0.11773947377E+02  0.39483310914E+03  0.10566000000E+00 0.  1.
         13    1    1    2    0    0  0.38871641212E+03 -0.96222138440E+02 -0.16665694264E+03  0.43374381456E+03  0.10566000000E+00 0. -1.
          4    1    1    2  501    0 -0.93054088632E+01 -0.12414124738E+02  0.32660059782E+03  0.32696888480E+03  0.00000000000E+00 0.  1.
</event>
<event>
 5    1  0.4866530E-005  0.1613554E+03  0.7818608E-02  0.1090423E+00
          4   -1    0    0  502    0 -0.00000000000E+00  0.00000000000E+00  0.15333784918E+04  0.15333784918E+04  0.00000000000E+00 0.  1.
         21   -1    0    0  501  502  0.00000000000E+00 -0.00000000000E+00 -0.20388721496E+02  0.20388721496E+02  0.00000000000E+00 0. -1.
        -13    1    1    2    0    0 -0.51936674466E+02  0.16209514975E+03  0.55776443029E+03  0.58315814886E+03  0.10566000000E+00 0.  1.
         13    1    1    2    0    0  0.50974400843E+02 -0.14815190005E+03  0.90559776657E+03  0.91905097846E+03  0.10566000000E+00 0. -1.
          4    1    1    2  501    0  0.96227362302E+00 -0.13943249698E+02  0.49627573404E+02  0.51558085929E+02  0.00000000000E+00 0.  1.
</event>
<event>
 5    1  0.4866530E-005  0.5595743E+03  0.7818608E-02  0.9356158E-01
         -4   -1    0    0    0  501 -0.00000000000E+00  0.00000000000E+00  0.78144051175E+03  0.78144051175E+03  0.00000000000E+00 0. -1.
         21   -1    0    0  501  502  0.00000000000E+00 -0.00000000000E+00 -0.48586154668E+03  0.48586154668E+03  0.00000000000E+00 0.  1.
        -13    1    1    2    0    0 -0.54956384300E+03  0.12618359087E+03  0.12704229130E+03  0.57799867740E+03  0.10566000000E+00 0.  1.
         13    1    1    2    0    0  0.53578712736E+03 -0.15005149368E+03  0.24505296224E+03  0.60797554397E+03  0.10566000000E+00 0. -1.
         -4    1    1    2    0  502  0.13776715637E+02  0.23867902810E+02 -0.76516288474E+02  0.81327837055E+02  0.00000000000E+00 0. -1.
</event>
<event>
 5    1  0.4866530E-005  0.4489469E+03  0.7818608E-02  0.9909858E-01
          4   -1    0    0  502    0 -0.00000000000E+00  0.00000000000E+00  0.28168558720E+03  0.28168558720E+03  0.00000000000E+00 0.  1.
         21   -1    0    0  501  502  0.00000000000E+00 -0.00000000000E+00 -0.24904389221E+04  0.24904389221E+04  0.00000000000E+00 0.  1.
        -13    1    1    2    0    0 -0.36023375973E+03 -0.31652135215E+03 -0.19064406003E+04  0.19658255013E+04  0.10566000000E+00 0.  1.
         13    1    1    2    0    0  0.15266089791E+03 -0.97892370398E+01  0.14790432047E+03  0.21278364150E+03  0.10566000000E+00 0. -1.
          4    1    1    2  501    0  0.20757286181E+03  0.32631058919E+03 -0.45021705506E+03  0.59351536648E+03  0.00000000000E+00 0.  1.
</event>
<event>
 5    1  0.4866530E-005  0.8135559E+03  0.7818608E-02  0.8972789E-01
         21   -1    0    0  501  502  0.00000000000E+00  0.00000000000E+00  0.49901206609E+03  0.49901206609E+03  0.00000000000E+00 0. -1.
          4   -1    0    0  502    0 -0.00000000000E+00 -0.00000000000E+00 -0.20885618175E+04  0.20885618175E+04  0.00000000000E+00 0.  1.
        -13    1    1    2    0    0  0.74117395274E+03 -0.42421653518E+03 -0.10126240282E+04  0.13246531360E+04  0.10566000000E+00 0.  1.
         13    1    1    2    0    0 -0.73318153552E+03  0.25525090650E+03 -0.70661774853E+03  0.10497699000E+04  0.10566000000E+00 0. -1.
          4    1    1    2  501    0 -0.79924172208E+01  0.16896562868E+03  0.12969202531E+03  0.21315084761E+03  0.00000000000E+00 0.  1.
</event>
<event>
 5    1  0.4866530E-005  0.4046847E+03  0.7818608E-02  0.1004270E+00
         -4   -1    0    0    0  501 -0.00000000000E+00  0.00000000000E+00  0.99745023820E+03  0.99745023820E+03  0.00000000000E+00 0. -1.
         21   -1    0    0  501  502  0.00000000000E+00 -0.00000000000E+00 -0.36654141650E+03  0.36654141650E+03  0.00000000000E+00 0. -1.
        -13    1    1    2    0    0  0.15041211602E+02 -0.13400494087E+03  0.30408026876E+03  0.33263851737E+03  0.10566000000E+00 0.  1.
         13    1    1    2    0    0  0.32591546799E+03 -0.20504898424E+03 -0.89502089809E+02  0.39531836975E+03  0.10566000000E+00 0. -1.
         -4    1    1    2    0  502 -0.34095667960E+03  0.33905392511E+03  0.41633064275E+03  0.63603476759E+03  0.00000000000E+00 0. -1.
</event>
<event>
 5    1  0.4866530E-005  0.1456581E+03  0.7818608E-02  0.1105474E+00
         21   -1    0    0  501  502  0.00000000000E+00  0.00000000000E+00  0.16880182033E+03  0.16880182033E+03  0.00000000000E+00 0.  1.
          4   -1    0    0  502    0 -0.00000000000E+00 -0.00000000000E+00 -0.19366353891E+04  0.19366353891E+04  0.00000000000E+00 0.  1.
        -13    1    1    2    0    0  0.94976925341E+01 -0.21297190867E+03  0.52777468663E+02  0.21961947183E+03  0.10566000000E+00 0.  1.
         13    1    1    2    0    0 -0.45661132500E+02  0.12370465410E+03 -0.10785014882E+03  0.17035095019E+03  0.10566000000E+00 0. -1.
          4    1    1    2  501    0  0.36163439965E+02  0.89267254574E+02 -0.17127608887E+04  0.17154667874E+04  0.00000000000E+00 0.  1.
</event>
<event>
 5    1  0.4866530E-005  0.1091977E+03  0.7818608E-02  0.1170829E+00
         21   -1    0    0  501  502  0.00000000000E+00  0.00000000000E+00  0.46651430909E+03  0.46651430909E+03  0.00000000000E+00 0.  1.
          4   -1    0    0  502    0 -0.00000000000E+00 -0.00000000000E+00 -0.71339155220E+02  0.71339155220E+02  0.00000000000E+00 0.  1.
        -13    1    1    2    0    0 -0.65168181342E+02  0.14568013084E+02 -0.30022832656E+02  0.73215439009E+02  0.10566000000E+00 0.  1.
         13    1    1    2    0    0 -0.32138192333E+02  0.57698337813E+02  0.15673737500E+03  0.17008403064E+03  0.10566000000E+00 0. -1.
          4    1    1    2  501    0  0.97306373675E+02 -0.72266350897E+02  0.26846061152E+03  0.29455399466E+03  0.00000000000E+00 0.  1.
</event>
<event>
 5    1  0.4866530E-005  0.1202452E+03  0.7818608E-02  0.1134824E+00
         21   -1    0    0  501  502  0.00000000000E+00  0.00000000000E+00  0.49986266447E+03  0.49986266447E+03  0.00000000000E+00 0.  1.
          4   -1    0    0  502    0 -0.00000000000E+00 -0.00000000000E+00 -0.99144186904E+02  0.99144186904E+02  0.00000000000E+00 0.  1.
        -13    1    1    2    0    0 -0.11070735693E+03  0.42831190056E+02  0.13731571143E+02  0.11949559377E+03  0.10566000000E+00 0.  1.
         13    1    1    2    0    0  0.12165489105E+03 -0.21133142483E+02  0.37309691061E+02  0.12899048972E+03  0.10566000000E+00 0. -1.
          4    1    1    2  501    0 -0.10947534123E+02 -0.21698047573E+02  0.34967721536E+03  0.35052076788E+03  0.00000000000E+00 0.  1.
</event>
<event>
 5    1  0.4866530E-005  0.3298637E+03  0.7818608E-02  0.9956889E-01
         -4   -1    0    0    0  501 -0.00000000000E+00  0.00000000000E+00  0.12007458937E+04  0.12007458937E+04  0.00000000000E+00 0. -1.
         21   -1    0    0  501  502  0.00000000000E+00 -0.00000000000E+00 -0.37502081824E+03  0.37502081824E+03  0.00000000000E+00 0.  1.
        -13    1    1    2    0    0 -0.25975203028E+03  0.13275237602E+03  0.13628344844E+03  0.32197437795E+03  0.10566000000E+00 0.  1.
         13    1    1    2    0    0  0.25471702230E+03 -0.40532334206E+03 -0.34763153184E+02  0.47997527130E+03  0.10566000000E+00 0. -1.
         -4    1    1    2    0  502  0.50350079737E+01  0.27257096604E+03  0.72420478021E+03  0.77381706269E+03  0.00000000000E+00 0. -1.
</event>
<event>
 5    1  0.4866530E-005  0.3611690E+03  0.7818608E-02  0.9848425E-01
         21   -1    0    0  501  502  0.00000000000E+00  0.00000000000E+00  0.47659654457E+03  0.47659654457E+03  0.00000000000E+00 0. -1.
          4   -1    0    0  502    0 -0.00000000000E+00 -0.00000000000E+00 -0.15875639404E+04  0.15875639404E+04  0.00000000000E+00 0.  1.
        -13    1    1    2    0    0  0.13618298583E+02  0.35763581852E+03 -0.12689621088E+04  0.13184664127E+04  0.10566000000E+00 0.  1.
         13    1    1    2    0    0 -0.26882422958E+03 -0.37675341144E+03  0.42051313641E+02  0.46473425050E+03  0.10566000000E+00 0. -1.
          4    1    1    2  501    0  0.25520593100E+03  0.19117592920E+02  0.11594339935E+03  0.28095982173E+03  0.00000000000E+00 0.  1.
</event>
<event>
 5    1  0.4866530E-005  0.4383412E+03  0.7818608E-02  0.9680041E-01
         21   -1    0    0  501  502  0.00000000000E+00  0.00000000000E+00  0.51896251862E+03  0.51896251862E+03  0.00000000000E+00 0.  1.
          4   -1    0    0  502    0 -0.00000000000E+00 -0.00000000000E+00 -0.18738921968E+04  0.18738921968E+04  0.00000000000E+00 0.  1.
        -13    1    1    2    0    0 -0.31671023042E+03 -0.30443111279E+03  0.18514897422E+03  0.47672195912E+03  0.10566000000E+00 0.  1.
         13    1    1    2    0    0 -0.21894755513E+03  0.28634344946E+03 -0.12617120739E+04  0.13121920482E+04  0.10566000000E+00 0. -1.
          4    1    1    2  501    0  0.53565778556E+03  0.18087663331E+02 -0.27836657851E+03  0.60394070804E+03  0.00000000000E+00 0.  1.
</event>
<event>
 5    1  0.4866530E-005  0.7208422E+02  0.7818608E-02  0.1221363E+00
         -4   -1    0    0    0  501 -0.00000000000E+00  0.00000000000E+00  0.22833120259E+03  0.22833120259E+03  0.00000000000E+00 0. -1.
         21   -1    0    0  501  502  0.00000000000E+00 -0.00000000000E+00 -0.11657333459E+03  0.11657333459E+03  0.00000000000E+00 0. -1.
        -13    1    1    2    0    0  0.96912861686E+02  0.18162598974E+02 -0.59921930026E+02  0.11538037798E+03  0.10566000000E+00 0.  1.
         13    1    1    2    0    0 -0.70175535026E+02 -0.19153542198E+01  0.18319521567E+03  0.19618555631E+03  0.10566000000E+00 0. -1.
         -4    1    1    2    0  502 -0.26737326660E+02 -0.16247244754E+02 -0.11515417638E+02  0.33338602886E+02  0.00000000000E+00 0. -1.
</event>
<event>
 5    1  0.4866530E-005  0.4123176E+03  0.7818608E-02  0.9784755E-01
         21   -1    0    0  501  502  0.00000000000E+00  0.00000000000E+00  0.29239613833E+03  0.29239613833E+03  0.00000000000E+00 0.  1.
          4   -1    0    0  502    0 -0.00000000000E+00 -0.00000000000E+00 -0.16046691068E+04  0.16046691068E+04  0.00000000000E+00 0.  1.
        -13    1    1    2    0    0 -0.21863392472E+03  0.38404594021E+03 -0.38906595431E+02  0.44362801035E+03  0.10566000000E+00 0.  1.
         13    1    1    2    0    0 -0.14568512763E+03 -0.26392137313E+03 -0.41201296473E+03  0.51052261642E+03  0.10566000000E+00 0. -1.
          4    1    1    2  501    0  0.36431905235E+03 -0.12012456708E+03 -0.86135340827E+03  0.94291461833E+03  0.00000000000E+00 0.  1.
</event>
<event>
 5    1  0.4866530E-005  0.2736044E+03  0.7818608E-02  0.1046622E+00
         -4   -1    0    0    0  501 -0.00000000000E+00  0.00000000000E+00  0.35621312168E+03  0.35621312168E+03  0.00000000000E+00 0. -1.
         21   -1    0    0  501  502  0.00000000000E+00 -0.00000000000E+00 -0.54884426356E+03  0.54884426356E+03  0.00000000000E+00 0. -1.
        -13    1    1    2    0    0 -0.53852495819E+00  0.11646125430E+03  0.19310309862E+03  0.22550461553E+03  0.10566000000E+00 0.  1.
         13    1    1    2    0    0 -0.43930633816E+02 -0.32817571432E+03 -0.30016645652E+03  0.44691063183E+03  0.10566000000E+00 0. -1.
         -4    1    1    2    0  502  0.44469158774E+02  0.21171446002E+03 -0.85567783985E+02  0.23264213788E+03  0.00000000000E+00 0. -1.
</event>
<event>
 5    1  0.4866530E-005  0.4502099E+03  0.7818608E-02  0.9658594E-01
         -4   -1    0    0    0  501 -0.00000000000E+00  0.00000000000E+00  0.39550571371E+04  0.39550571371E+04  0.00000000000E+00 0. -1.
         21   -1    0    0  501  502  0.00000000000E+00 -0.00000000000E+00 -0.13131880904E+03  0.13131880904E+03  0.00000000000E+00 0. -1.
        -13    1    1    2    0    0 -0.24631915004E+03 -0.26071401766E+03  0.12208661542E+04  0.12724618266E+04  0.10566000000E+00 0.  1.
         13    1    1    2    0    0  0.50434722675E+03 -0.38781058530E+02  0.66169371287E+03  0.83289175554E+03  0.10566000000E+00 0. -1.
         -4    1    1    2    0  502 -0.25802807672E+03  0.29949507619E+03  0.19411784610E+04  0.19810223639E+04  0.00000000000E+00 0. -1.
</event>
<event>
 5    1  0.4866530E-005  0.2864569E+03  0.7818608E-02  0.1033933E+00
         21   -1    0    0  501  502  0.00000000000E+00  0.00000000000E+00  0.22673138621E+03  0.22673138621E+03  0.00000000000E+00 0.  1.
         -4   -1    0    0    0  501 -0.00000000000E+00 -0.00000000000E+00 -0.17577254825E+04  0.17577254825E+04  0.00000000000E+00 0. -1.
        -13    1    1    2    0    0  0.11275039273E+03  0.97455951286E+02 -0.56120231772E+03  0.58065339582E+03  0.10566000000E+00 0.  1.
         13    1    1    2    0    0 -0.30265743505E+03 -0.29383498164E+03 -0.10395314804E+04  0.11218583820E+04  0.10566000000E+00 0. -1.
         -4    1    1    2    0  502  0.18990704232E+03  0.19637903036E+03  0.69739701771E+02  0.28194509091E+03  0.00000000000E+00 0. -1.
</event>
<event>
 5    1  0.4866530E-005  0.2564454E+03  0.7818608E-02  0.1035052E+00
         21   -1    0    0  501  502  0.00000000000E+00  0.00000000000E+00  0.72277168407E+03  0.72277168407E+03  0.00000000000E+00 0.  1.
          4   -1    0    0  502    0 -0.00000000000E+00 -0.00000000000E+00 -0.90507686696E+03  0.90507686696E+03  0.00000000000E+00 0.  1.
        -13    1    1    2    0    0  0.12725919432E+03 -0.17435352161E+03  0.51468999433E+03  0.55812172012E+03  0.10566000000E+00 0.  1.
         13    1    1    2    0    0  0.28884166044E+03 -0.24370470863E+02 -0.47852269657E+03  0.55947064887E+03  0.10566000000E+00 0. -1.
          4    1    1    2  501    0 -0.41610085475E+03  0.19872399248E+03 -0.21847248065E+03  0.51025618204E+03  0.00000000000E+00 0.  1.
</event>
<event>
 5    1  0.4866530E-005  0.4216964E+03  0.7818608E-02  0.9861718E-01
         21   -1    0    0  501  502  0.00000000000E+00  0.00000000000E+00  0.37982096593E+03  0.37982096593E+03  0.00000000000E+00 0. -1.
         -4   -1    0    0    0  501 -0.00000000000E+00 -0.00000000000E+00 -0.10514250906E+04  0.10514250906E+04  0.00000000000E+00 0. -1.
        -13    1    1    2    0    0 -0.21675514563E+03 -0.90812039327E+01 -0.24863853817E+03  0.32997938610E+03  0.10566000000E+00 0.  1.
         13    1    1    2    0    0  0.15305119119E+03 -0.40704826537E+03  0.83364498849E+02  0.44278957564E+03  0.10566000000E+00 0. -1.
         -4    1    1    2    0  502  0.63703954440E+02  0.41612946930E+03 -0.50633008531E+03  0.65847709476E+03  0.00000000000E+00 0. -1.
</event>
<event>
 5    1  0.4866530E-005  0.7960123E+02  0.7818608E-02  0.1253022E+00
         21   -1    0    0  501  502  0.00000000000E+00  0.00000000000E+00  0.30424736050E+03  0.30424736050E+03  0.00000000000E+00 0.  1.
          4   -1    0    0  502    0 -0.00000000000E+00 -0.00000000000E+00 -0.53993227071E+02  0.53993227071E+02  0.00000000000E+00 0.  1.
        -13    1    1    2    0    0  0.61989918565E+02  0.41432708569E+02 -0.10976954005E+02  0.75365270691E+02  0.10566000000E+00 0.  1.
         13    1    1    2    0    0 -0.13423366360E+02  0.23622700756E+02  0.58921998509E+02  0.64884758055E+02  0.10566000000E+00 0. -1.
          4    1    1    2  501    0 -0.48566552204E+02 -0.65055409325E+02  0.20230908892E+03  0.21799055883E+03  0.00000000000E+00 0.  1.
</event>
<event>
 5    1  0.4866530E-005  0.4825972E+03  0.7818608E-02  0.9758006E-01
         21   -1    0    0  501  502  0.00000000000E+00  0.00000000000E+00  0.49061060600E+03  0.49061060600E+03  0.00000000000E+00 0.  1.
          4   -1    0    0  502    0 -0.00000000000E+00 -0.00000000000E+00 -0.93210754761E+03  0.93210754761E+03  0.00000000000E+00 0.  1.
        -13    1    1    2    0    0  0.68034154857E+02  0.56360418088E+03 -0.13787417274E+03  0.58419826908E+03  0.10566000000E+00 0.  1.
         13    1    1    2    0    0 -0.16048147181E+03 -0.12930371319E+03 -0.33506954301E+03  0.39337687128E+03  0.10566000000E+00 0. -1.
          4    1    1    2  501    0  0.92447316950E+02 -0.43430046769E+03  0.31446774147E+02  0.44514301325E+03  0.00000000000E+00 0.  1.
</event>
<event>
 5    1  0.4866530E-005  0.5616138E+03  0.7818608E-02  0.9352272E-01
         21   -1    0    0  501  502  0.00000000000E+00  0.00000000000E+00  0.28879763644E+03  0.28879763644E+03  0.00000000000E+00 0. -1.
         -4   -1    0    0    0  501 -0.00000000000E+00 -0.00000000000E+00 -0.34459503559E+04  0.34459503559E+04  0.00000000000E+00 0. -1.
        -13    1    1    2    0    0 -0.45827113201E+03  0.27610342810E+03 -0.22574952684E+04  0.23200281101E+04  0.10566000000E+00 0.  1.
         13    1    1    2    0    0  0.45839849111E+03 -0.60701109987E+03 -0.61292785622E+03  0.97686857873E+03  0.10566000000E+00 0. -1.
         -4    1    1    2    0  502 -0.12735909751E+00  0.33090767177E+03 -0.28672959480E+03  0.43785130352E+03  0.00000000000E+00 0. -1.
</event>
<event>
 5    1  0.4866530E-005  0.3482770E+03  0.7818608E-02  0.1016443E+00
          4   -1    0    0  502    0 -0.00000000000E+00  0.00000000000E+00  0.10194310477E+04  0.10194310477E+04  0.00000000000E+00 0.  1.
         21   -1    0    0  501  502  0.00000000000E+00 -0.00000000000E+00 -0.34326273267E+03  0.34326273267E+03  0.00000000000E+00 0.  1.
        -13    1    1    2    0    0  0.39374311016E+03 -0.86596776135E+02  0.59958865628E+03  0.72252280679E+03  0.10566000000E+00 0.  1.
         13    1    1    2    0    0 -0.10489695963E+03 -0.97338648827E+02  0.22524113430E+03  0.26685532492E+03  0.10566000000E+00 0. -1.
          4    1    1    2  501    0 -0.28884615053E+03  0.18393542496E+03 -0.14866147553E+03  0.37331564866E+03  0.00000000000E+00 0.  1.
</event>
<event>
 5    1  0.4866530E-005  0.4276562E+03  0.7818608E-02  0.9760018E-01
         21   -1    0    0  501  502  0.00000000000E+00  0.00000000000E+00  0.79312760077E+03  0.79312760077E+03  0.00000000000E+00 0. -1.
         -4   -1    0    0    0  501 -0.00000000000E+00 -0.00000000000E+00 -0.55789340429E+03  0.55789340429E+03  0.00000000000E+00 0. -1.
        -13    1    1    2    0    0  0.40177709590E+02  0.29136132003E+03 -0.16798728604E+02  0.29459782009E+03  0.10566000000E+00 0.  1.
         13    1    1    2    0    0 -0.43893781397E+03 -0.92357943406E+02 -0.13259581282E+03  0.46773716443E+03  0.10566000000E+00 0. -1.
         -4    1    1    2    0  502  0.39876010438E+03 -0.19900337662E+03  0.38462873790E+03  0.58868602054E+03  0.00000000000E+00 0. -1.
</event>
<event>
 5    1  0.4866530E-005  0.3849170E+03  0.7818608E-02  0.9832442E-01
         21   -1    0    0  501  502  0.00000000000E+00  0.00000000000E+00  0.36777723764E+03  0.36777723764E+03  0.00000000000E+00 0. -1.
         -4   -1    0    0    0  501 -0.00000000000E+00 -0.00000000000E+00 -0.10917756630E+04  0.10917756630E+04  0.00000000000E+00 0. -1.
        -13    1    1    2    0    0 -0.31313152528E+03 -0.33813356292E+02 -0.34830327090E+02  0.31687198999E+03  0.10566000000E+00 0.  1.
         13    1    1    2    0    0  0.10609932690E+03  0.39043363073E+03 -0.59529401056E+03  0.71977111455E+03  0.10566000000E+00 0. -1.
         -4    1    1    2    0  502  0.20703219838E+03 -0.35662027443E+03 -0.93874087718E+02  0.42290979611E+03  0.00000000000E+00 0. -1.
</event>
<event>
 5    1  0.4866530E-005  0.5211071E+02  0.7818608E-02  0.1283426E+00
         21   -1    0    0  501  502  0.00000000000E+00  0.00000000000E+00  0.16274089590E+03  0.16274089590E+03  0.00000000000E+00 0. -1.
         -4   -1    0    0    0  501 -0.00000000000E+00 -0.00000000000E+00 -0.19653829847E+03  0.19653829847E+03  0.00000000000E+00 0. -1.
        -13    1    1    2    0    0  0.59683953055E+02  0.89140106832E+01 -0.34705535825E+01  0.60445758701E+02  0.10566000000E+00 0.  1.
         13    1    1    2    0    0 -0.49217723283E+02 -0.13426117695E+02 -0.16037142122E+03  0.16829037058E+03  0.10566000000E+00 0. -1.
         -4    1    1    2    0  502 -0.10466229772E+02  0.45121070122E+01  0.13004457224E+03  0.13054306509E+03  0.00000000000E+00 0. -1.
</event>
<event>
 5    1  0.4866530E-005  0.3621602E+03  0.7818608E-02  0.9845183E-01
         21   -1    0    0  501  502  0.00000000000E+00  0.00000000000E+00  0.11742718612E+04  0.11742718612E+04  0.00000000000E+00 0. -1.
          4   -1    0    0  502    0 -0.00000000000E+00 -0.00000000000E+00 -0.24664295635E+03  0.24664295635E+03  0.00000000000E+00 0.  1.
        -13    1    1    2    0    0 -0.35144262512E+03  0.15387763473E+03  0.72496871134E+01  0.38372231412E+03  0.10566000000E+00 0.  1.
         13    1    1    2    0    0  0.24558563275E+03 -0.20098671424E+03  0.43669785925E+03  0.53982681830E+03  0.10566000000E+00 0. -1.
          4    1    1    2  501    0  0.10585699238E+03  0.47109079510E+02  0.48368135852E+03  0.49736568517E+03  0.00000000000E+00 0.  1.
</event>
<event>
 5    1  0.4866530E-005  0.4884729E+03  0.7818608E-02  0.9616541E-01
          4   -1    0    0  502    0 -0.00000000000E+00  0.00000000000E+00  0.50901446035E+03  0.50901446035E+03  0.00000000000E+00 0.  1.
         21   -1    0    0  501  502  0.00000000000E+00 -0.00000000000E+00 -0.94186403401E+03  0.94186403401E+03  0.00000000000E+00 0.  1.
        -13    1    1    2    0    0 -0.20960285468E+02 -0.44453460273E+03 -0.42187003599E+02  0.44702360231E+03  0.10566000000E+00 0.  1.
         13    1    1    2    0    0 -0.32569179376E+03  0.55865902126E+01 -0.74095280461E+01  0.32582398129E+03  0.10566000000E+00 0. -1.
          4    1    1    2  501    0  0.34665207923E+03  0.43894801252E+03 -0.38325304201E+03  0.67803091075E+03  0.00000000000E+00 0.  1.
</event>
<event>
 5    1  0.4866530E-005  0.5477582E+02  0.7818608E-02  0.1287873E+00
         21   -1    0    0  501  502  0.00000000000E+00  0.00000000000E+00  0.14413198038E+02  0.14413198038E+02  0.00000000000E+00 0.  1.
          4   -1    0    0  502    0 -0.00000000000E+00 -0.00000000000E+00 -0.66838516473E+03  0.66838516473E+03  0.00000000000E+00 0.  1.
        -13    1    1    2    0    0 -0.85814014508E+02 -0.19219771376E+02 -0.42331383275E+03  0.43235177444E+03  0.10566000000E+00 0.  1.
         13    1    1    2    0    0  0.41079704081E+02  0.10055758594E+00 -0.15614424022E+03  0.16145769452E+03  0.10566000000E+00 0. -1.
          4    1    1    2  501    0  0.44734310427E+02  0.19119213791E+02 -0.74513893723E+02  0.88988893819E+02  0.00000000000E+00 0.  1.
</event>
<event>
 5    1  0.4866530E-005  0.4558709E+03  0.7818608E-02  0.9650201E-01
         -4   -1    0    0    0  501 -0.00000000000E+00  0.00000000000E+00  0.42975531582E+03  0.42975531582E+03  0.00000000000E+00 0. -1.
         21   -1    0    0  501  502  0.00000000000E+00 -0.00000000000E+00 -0.11480189268E+04  0.11480189268E+04  0.00000000000E+00 0. -1.
        -13    1    1    2    0    0  0.64835634848E+02 -0.34986409939E+03 -0.21717400106E+03  0.41686101460E+03  0.10566000000E+00 0.  1.
         13    1    1    2    0    0 -0.30348921597E+03 -0.13418879772E+03  0.10625563888E+03  0.34842877264E+03  0.10566000000E+00 0. -1.
         -4    1    1    2    0  502  0.23865358112E+03  0.48405289711E+03 -0.60734524875E+03  0.81248445534E+03  0.00000000000E+00 0. -1.
</event>
<event>
 5    1  0.4866530E-005  0.4459377E+03  0.7818608E-02  0.1004896E+00
          4   -1    0    0  502    0 -0.00000000000E+00  0.00000000000E+00  0.18168053370E+04  0.18168053370E+04  0.00000000000E+00 0.  1.
         21   -1    0    0  501  502  0.00000000000E+00 -0.00000000000E+00 -0.16331392748E+03  0.16331392748E+03  0.00000000000E+00 0.  1.
        -13    1    1    2    0    0  0.48788785717E+03 -0.12637262732E+03  0.10619212677E+04  0.11754494425E+04  0.10566000000E+00 0.  1.
         13    1    1    2    0    0 -0.94497683177E+02 -0.28666379543E+02  0.22244860062E+03  0.24338234226E+03  0.10566000000E+00 0. -1.
          4    1    1    2  501    0 -0.39339017399E+03  0.15503900686E+03  0.36912154124E+03  0.56128747969E+03  0.00000000000E+00 0.  1.
</event>
<event>
 5    1  0.4866530E-005  0.1158958E+03  0.7818608E-02  0.1163665E+00
         21   -1    0    0  501  502  0.00000000000E+00  0.00000000000E+00  0.36092648809E+03  0.36092648809E+03  0.00000000000E+00 0.  1.
          4   -1    0    0  502    0 -0.00000000000E+00 -0.00000000000E+00 -0.97780555648E+02  0.97780555648E+02  0.00000000000E+00 0.  1.
        -13    1    1    2    0    0  0.12436397582E+03  0.77265992466E+02  0.24998159988E+03  0.28970199087E+03  0.10566000000E+00 0.  1.
         13    1    1    2    0    0 -0.54683803250E+02 -0.36304078955E+02 -0.35535169118E+02  0.74639559853E+02  0.10566000000E+00 0. -1.
          4    1    1    2  501    0 -0.69680172572E+02 -0.40961913511E+02  0.48699501688E+02  0.94365493020E+02  0.00000000000E+00 0.  1.
</event>
<event>
 5    1  0.4866530E-005  0.4338161E+03  0.7818608E-02  0.9866904E-01
         21   -1    0    0  501  502  0.00000000000E+00  0.00000000000E+00  0.56534998383E+03  0.56534998383E+03  0.00000000000E+00 0.  1.
          4   -1    0    0  502    0 -0.00000000000E+00 -0.00000000000E+00 -0.60161718429E+03  0.60161718429E+03  0.00000000000E+00 0.  1.
        -13    1    1    2    0    0  0.23616442215E+03  0.50334265415E+03 -0.15228100787E+03  0.57646940795E+03  0.10566000000E+00 0.  1.
         13    1    1    2    0    0 -0.84390365476E+01 -0.19563185867E+03  0.49185471149E+02  0.20189666466E+03  0.10566000000E+00 0. -1.
          4    1    1    2  501    0 -0.22772538560E+03 -0.30771079547E+03  0.66828336264E+02  0.38860109551E+03  0.00000000000E+00 0.  1.
</event>
<event>
 5    1  0.4866530E-005  0.3018682E+03  0.7818608E-02  0.1041770E+00
         21   -1    0    0  501  502  0.00000000000E+00  0.00000000000E+00  0.37285514375E+03  0.37285514375E+03  0.00000000000E+00 0.  1.
          4   -1    0    0  502    0 -0.00000000000E+00 -0.00000000000E+00 -0.88262655569E+03  0.88262655569E+03  0.00000000000E+00 0.  1.
        -13    1    1    2    0    0 -0.91475643034E+02  0.29848386533E+03  0.27015965800E+03  0.41285186581E+03  0.10566000000E+00 0.  1.
         13    1    1    2    0    0  0.33153309956E+02 -0.94699611595E+02 -0.17613299493E+03  0.20270668825E+03  0.10566000000E+00 0. -1.
          4    1    1    2  501    0  0.58322333079E+02 -0.20378425373E+03 -0.60379807501E+03  0.63992314538E+03  0.00000000000E+00 0.  1.
</event>
<event>
 5    1  0.4866530E-005  0.1613732E+03  0.7818608E-02  0.1090407E+00
         -4   -1    0    0    0  501 -0.00000000000E+00  0.00000000000E+00  0.22015151345E+03  0.22015151345E+03  0.00000000000E+00 0. -1.
         21   -1    0    0  501  502  0.00000000000E+00 -0.00000000000E+00 -0.52752804133E+03  0.52752804133E+03  0.00000000000E+00 0.  1.
        -13    1    1    2    0    0 -0.14659248232E+03 -0.57248397131E+02 -0.13673211964E+03  0.20847642205E+03  0.10566000000E+00 0.  1.
         13    1    1    2    0    0  0.14627055772E+03  0.70280541268E+02  0.14839417771E+03  0.21989832578E+03  0.10566000000E+00 0. -1.
         -4    1    1    2    0  502  0.32192459598E+00 -0.13032144137E+02 -0.31903858595E+03  0.31930480695E+03  0.00000000000E+00 0. -1.
</event>
<event>
 5    1  0.1174865E-004  0.3576965E+03  0.7818608E-02  0.1009846E+00
          4   -1    0    0  502    0 -0.00000000000E+00  0.00000000000E+00  0.18062695456E+04  0.18062695456E+04  0.00000000000E+00 0.  1.
         21   -1    0    0  501  502  0.00000000000E+00 -0.00000000000E+00 -0.31451710254E+03  0.31451710254E+03  0.00000000000E+00 0.  1.
        -13    1    1    2    0    0  0.23776794985E+03  0.22736639684E+02  0.68789771264E+03  0.72818529715E+03  0.10566000000E+00 0.  1.
         13    1    1    2    0    0  0.13657509954E+03 -0.89114268567E+02  0.96572233766E+03  0.97939458610E+03  0.10566000000E+00 0. -1.
          4    1    1    2  501    0 -0.37434304939E+03  0.66377628883E+02 -0.16186760727E+03  0.41320676486E+03  0.00000000000E+00 0.  1.
</event>
<event>
 5    1  0.4866530E-005  0.2349899E+03  0.7818608E-02  0.1038479E+00
          4   -1    0    0  502    0 -0.00000000000E+00  0.00000000000E+00  0.58144915889E+03  0.58144915889E+03  0.00000000000E+00 0.  1.
         21   -1    0    0  501  502  0.00000000000E+00 -0.00000000000E+00 -0.16350714844E+03  0.16350714844E+03  0.00000000000E+00 0. -1.
        -13    1    1    2    0    0 -0.24287995084E+03 -0.53826909459E+02  0.40119540480E+03  0.47206543053E+03  0.10566000000E+00 0.  1.
         13    1    1    2    0    0  0.20296719051E+03 -0.25707617077E+01  0.18068378839E+02  0.20378608077E+03  0.10566000000E+00 0. -1.
          4    1    1    2  501    0  0.39912760325E+02  0.56397671166E+02 -0.13217732001E+01  0.69104796029E+02  0.00000000000E+00 0.  1.
</event>
<event>
 5    1  0.4866530E-005  0.1506916E+03  0.7818608E-02  0.1100432E+00
          4   -1    0    0  502    0 -0.00000000000E+00  0.00000000000E+00  0.10883356689E+03  0.10883356689E+03  0.00000000000E+00 0.  1.
         21   -1    0    0  501  502  0.00000000000E+00 -0.00000000000E+00 -0.42499301981E+03  0.42499301981E+03  0.00000000000E+00 0. -1.
        -13    1    1    2    0    0  0.50954735169E+02  0.14305527472E+03  0.21465564320E+02  0.15336876565E+03  0.10566000000E+00 0.  1.
         13    1    1    2    0    0 -0.59269497435E+02 -0.13397841602E+03 -0.23382014369E+03  0.27592564224E+03  0.10566000000E+00 0. -1.
          4    1    1    2  501    0  0.83147622666E+01 -0.90768586976E+01 -0.10380487355E+03  0.10453217882E+03  0.00000000000E+00 0.  1.
</event>
<event>
 5    1  0.4866530E-005  0.4518832E+03  0.7818608E-02  0.9904539E-01
         21   -1    0    0  501  502  0.00000000000E+00  0.00000000000E+00  0.39477264476E+03  0.39477264476E+03  0.00000000000E+00 0. -1.
         -4   -1    0    0    0  501 -0.00000000000E+00 -0.00000000000E+00 -0.11003057385E+04  0.11003057385E+04  0.00000000000E+00 0. -1.
        -13    1    1    2    0    0 -0.36230028003E+02 -0.14834081709E+03 -0.42953893858E+03  0.45587424129E+03  0.10566000000E+00 0.  1.
         13    1    1    2    0    0  0.45310187198E+03 -0.41707275609E+02 -0.35137435030E+03  0.57489542392E+03  0.10566000000E+00 0. -1.
         -4    1    1    2    0  502 -0.41687184398E+03  0.19004809270E+03  0.75380195145E+02  0.46430871805E+03  0.00000000000E+00 0. -1.
</event>
<event>
 5    1  0.4866530E-005  0.1031497E+04  0.7818608E-02  0.8745547E-01
         21   -1    0    0  501  502  0.00000000000E+00  0.00000000000E+00  0.61368043878E+03  0.61368043878E+03  0.00000000000E+00 0.  1.
         -4   -1    0    0    0  501 -0.00000000000E+00 -0.00000000000E+00 -0.22186798476E+04  0.22186798476E+04  0.00000000000E+00 0. -1.
        -13    1    1    2    0    0 -0.87826185129E+03 -0.32599023562E+03 -0.36765117925E+03  0.10063701674E+04  0.10566000000E+00 0.  1.
         13    1    1    2    0    0  0.98455229263E+03  0.48121034952E+03 -0.12155562511E+04  0.16366073531E+04  0.10566000000E+00 0. -1.
         -4    1    1    2    0  502 -0.10629044134E+03 -0.15522011390E+03 -0.21791978461E+02  0.18938276586E+03  0.00000000000E+00 0. -1.
</event>
<event>
 5    1  0.4866530E-005  0.1456151E+03  0.7818608E-02  0.1105518E+00
         21   -1    0    0  501  502  0.00000000000E+00  0.00000000000E+00  0.67439970823E+02  0.67439970823E+02  0.00000000000E+00 0. -1.
          4   -1    0    0  502    0 -0.00000000000E+00 -0.00000000000E+00 -0.72400966341E+03  0.72400966341E+03  0.00000000000E+00 0.  1.
        -13    1    1    2    0    0 -0.34041801729E+02  0.16281446488E+03 -0.51029557527E+03  0.53672057865E+03  0.10566000000E+00 0.  1.
         13    1    1    2    0    0 -0.39897032525E+02 -0.99680812390E+02 -0.51984235872E+02  0.11929128009E+03  0.10566000000E+00 0. -1.
          4    1    1    2  501    0  0.73938834253E+02 -0.63133652488E+02 -0.94289881440E+02  0.13543777549E+03  0.00000000000E+00 0.  1.
</event>
<event>
 5    1  0.4866530E-005  0.4706933E+03  0.7818608E-02  0.9880887E-01
          4   -1    0    0  502    0 -0.00000000000E+00  0.00000000000E+00  0.89355433913E+03  0.89355433913E+03  0.00000000000E+00 0.  1.
         21   -1    0    0  501  502  0.00000000000E+00 -0.00000000000E+00 -0.41723748567E+03  0.41723748567E+03  0.00000000000E+00 0.  1.
        -13    1    1    2    0    0  0.37064825644E+03  0.38385498073E+03  0.29331007803E+03  0.60889702682E+03  0.10566000000E+00 0.  1.
         13    1    1    2    0    0  0.66773587161E+01 -0.14610650365E+03  0.20907239059E+03  0.25515284282E+03  0.10566000000E+00 0. -1.
          4    1    1    2  501    0 -0.37732561516E+03 -0.23774847708E+03 -0.26065615153E+02  0.44674195516E+03  0.00000000000E+00 0.  1.
</event>
<event>
 5    1  0.4866530E-005  0.4826484E+03  0.7818608E-02  0.9613809E-01
         21   -1    0    0  501  502  0.00000000000E+00  0.00000000000E+00  0.19410918897E+03  0.19410918897E+03  0.00000000000E+00 0. -1.
         -4   -1    0    0    0  501 -0.00000000000E+00 -0.00000000000E+00 -0.25207280092E+04  0.25207280092E+04  0.00000000000E+00 0. -1.
        -13    1    1    2    0    0  0.14545348748E+02 -0.34065229036E+03 -0.76119489800E+03  0.83407028121E+03  0.10566000000E+00 0.  1.
         13    1    1    2    0    0 -0.35468914565E+03 -0.13220861061E+03 -0.99888689194E+03  0.10682034173E+04  0.10566000000E+00 0. -1.
         -4    1    1    2    0  502  0.34014379690E+03  0.47286090097E+03 -0.56653703034E+03  0.81256349966E+03  0.00000000000E+00 0. -1.
</event>
<event>
 5    1  0.4866530E-005  0.4345000E+03  0.7818608E-02  0.9818296E-01
         21   -1    0    0  501  502  0.00000000000E+00  0.00000000000E+00  0.39579201982E+03  0.39579201982E+03  0.00000000000E+00 0. -1.
         -4   -1    0    0    0  501 -0.00000000000E+00 -0.00000000000E+00 -0.11554345275E+04  0.11554345275E+04  0.00000000000E+00 0. -1.
        -13    1    1    2    0    0  0.79046211077E+02  0.21571698054E+03 -0.39513330070E+03  0.45706942106E+03  0.10566000000E+00 0.  1.
         13    1    1    2    0    0 -0.11560334089E+03 -0.59301059652E+03 -0.38180314883E+03  0.71470228461E+03  0.10566000000E+00 0. -1.
         -4    1    1    2    0  502  0.36557129810E+02  0.37729361598E+03  0.17293941892E+02  0.37945484161E+03  0.00000000000E+00 0. -1.
</event>
<event>
 5    1  0.4866530E-005  0.2457544E+02  0.7818608E-02  0.1472610E+00
         21   -1    0    0  501  502  0.00000000000E+00  0.00000000000E+00  0.33688898790E+03  0.33688898790E+03  0.00000000000E+00 0.  1.
          4   -1    0    0  502    0 -0.00000000000E+00 -0.00000000000E+00 -0.10871925774E+03  0.10871925774E+03  0.00000000000E+00 0.  1.
        -13    1    1    2    0    0  0.17783198146E+02 -0.50891317674E+01 -0.10190370840E+03  0.10356890628E+03  0.10566000000E+00 0.  1.
         13    1    1    2    0    0 -0.25437357388E+02  0.28442207544E+02  0.61720239928E+02  0.72563196606E+02  0.10566000000E+00 0. -1.
          4    1    1    2  501    0  0.76541592426E+01 -0.23353075776E+02  0.26835319862E+03  0.26947614275E+03  0.00000000000E+00 0.  1.
</event>
<event>
 5    1  0.4866530E-005  0.3307970E+03  0.7818608E-02  0.1022758E+00
         21   -1    0    0  501  502  0.00000000000E+00  0.00000000000E+00  0.24602047456E+03  0.24602047456E+03  0.00000000000E+00 0. -1.
         -4   -1    0    0    0  501 -0.00000000000E+00 -0.00000000000E+00 -0.13358807814E+04  0.13358807814E+04  0.00000000000E+00 0. -1.
        -13    1    1    2    0    0  0.96573931582E+02 -0.96955003039E+02 -0.90295012807E+02  0.16395120426E+03  0.10566000000E+00 0.  1.
         13    1    1    2    0    0 -0.29082315665E+03  0.34320693230E+03 -0.10083887814E+04  0.11041816211E+04  0.10566000000E+00 0. -1.
         -4    1    1    2    0  502  0.19424922507E+03 -0.24625192926E+03  0.88234873534E+01  0.31376843059E+03  0.00000000000E+00 0. -1.
</event>
<event>
 5    1  0.4866530E-005  0.3360009E+03  0.7818608E-02  0.1023988E+00
         21   -1    0    0  501  502  0.00000000000E+00  0.00000000000E+00  0.13163054078E+04  0.13163054078E+04  0.00000000000E+00 0.  1.
          4   -1    0    0  502    0 -0.00000000000E+00 -0.00000000000E+00 -0.83041325811E+03  0.83041325811E+03  0.00000000000E+00 0.  1.
        -13    1    1    2    0    0 -0.26703838108E+03  0.33465087218E+03  0.16117086071E+03  0.45746777015E+03  0.10566000000E+00 0.  1.
         13    1    1    2    0    0  0.25788267033E+02 -0.12297867659E+03 -0.65052603473E+03  0.66255031706E+03  0.10566000000E+00 0. -1.
          4    1    1    2  501    0  0.24125011405E+03 -0.21167219559E+03  0.97524732368E+03  0.10267005787E+04  0.00000000000E+00 0.  1.
</event>
<event>
 5    1  0.4866530E-005  0.4993474E+03  0.7818608E-02  0.9524152E-01
         -4   -1    0    0    0  501 -0.00000000000E+00  0.00000000000E+00  0.15924405563E+04  0.15924405563E+04  0.00000000000E+00 0. -1.
         21   -1    0    0  501  502  0.00000000000E+00 -0.00000000000E+00 -0.52437130352E+03  0.52437130352E+03  0.00000000000E+00 0. -1.
        -13    1    1    2    0    0  0.31422911885E+03  0.28532843541E+03  0.92943694302E+03  0.10217657742E+04  0.10566000000E+00 0.  1.
         13    1    1    2    0    0  0.34400526131E+03 -0.59398255243E+02  0.18958698410E+03  0.39725433697E+03  0.10566000000E+00 0. -1.
         -4    1    1    2    0  502 -0.65823438016E+03 -0.22593018017E+03 -0.50954674381E+02  0.69779174857E+03  0.00000000000E+00 0. -1.
</event>
<event>
 5    1  0.4866530E-005  0.2462452E+03  0.7818608E-02  0.1063603E+00
         -4   -1    0    0    0  501 -0.00000000000E+00  0.00000000000E+00  0.19260992981E+03  0.19260992981E+03  0.00000000000E+00 0. -1.
         21   -1    0    0  501  502  0.00000000000E+00 -0.00000000000E+00 -0.15485141503E+04  0.15485141503E+04  0.00000000000E+00 0. -1.
        -13    1    1    2    0    0 -0.64401435840E+02  0.72372927522E+02  0.78406361297E+02  0.12463127309E+03  0.10566000000E+00 0.  1.
         13    1    1    2    0    0 -0.16259591560E+03 -0.18659786610E+03 -0.13107806443E+04  0.13339423166E+04  0.10566000000E+00 0. -1.
         -4    1    1    2    0  502  0.22699735144E+03  0.11422493858E+03 -0.12352993743E+03  0.28255049034E+03  0.00000000000E+00 0. -1.
</event>
<event>
 5    1  0.4866530E-005  0.5210864E+03  0.7818608E-02  0.9432915E-01
         -4   -1    0    0    0  501 -0.00000000000E+00  0.00000000000E+00  0.20599650136E+04  0.20599650136E+04  0.00000000000E+00 0. -1.
         21   -1    0    0  501  502  0.00000000000E+00 -0.00000000000E+00 -0.60864426510E+03  0.60864426510E+03  0.00000000000E+00 0. -1.
        -13    1    1    2    0    0  0.47213550501E+03 -0.22828878173E+03  0.14410461068E+04  0.15335063078E+04  0.10566000000E+00 0.  1.
         13    1    1    2    0    0 -0.44819041820E+03  0.25040532769E+03  0.45691402386E+03  0.68727572012E+03  0.10566000000E+00 0. -1.
         -4    1    1    2    0  502 -0.23945086811E+02 -0.22116545963E+02 -0.44663938220E+03  0.44782725076E+03  0.00000000000E+00 0. -1.
</event>
<event>
 5    1  0.4866530E-005  0.3032436E+03  0.7818608E-02  0.1012389E+00
          4   -1    0    0  502    0 -0.00000000000E+00  0.00000000000E+00  0.15990740620E+04  0.15990740620E+04  0.00000000000E+00 0.  1.
         21   -1    0    0  501  502  0.00000000000E+00 -0.00000000000E+00 -0.27762516864E+03  0.27762516864E+03  0.00000000000E+00 0.  1.
        -13    1    1    2    0    0 -0.18698128658E+03 -0.22362854110E+03 -0.86335608811E+02  0.30401574703E+03  0.10566000000E+00 0.  1.
         13    1    1    2    0    0 -0.23730911852E+03  0.67365826371E+02  0.55799260484E+03  0.61008977251E+03  0.10566000000E+00 0. -1.
          4    1    1    2  501    0  0.42429040511E+03  0.15626271473E+03  0.84979189736E+03  0.96259371112E+03  0.00000000000E+00 0.  1.
</event>
<event>
 5    1  0.4866530E-005  0.4293989E+03  0.7818608E-02  0.9695826E-01
         21   -1    0    0  501  502  0.00000000000E+00  0.00000000000E+00  0.23807212268E+03  0.23807212268E+03  0.00000000000E+00 0.  1.
          4   -1    0    0  502    0 -0.00000000000E+00 -0.00000000000E+00 -0.22269786674E+04  0.22269786674E+04  0.00000000000E+00 0.  1.
        -13    1    1    2    0    0  0.75955740101E+02  0.20789228258E+03 -0.11382641621E+04  0.11595834551E+04  0.10566000000E+00 0.  1.
         13    1    1    2    0    0  0.35912783036E+03  0.52133113727E+02 -0.67978163984E+03  0.77058013802E+03  0.10566000000E+00 0. -1.
          4    1    1    2  501    0 -0.43508357046E+03 -0.26002539631E+03 -0.17086074282E+03  0.53488719694E+03  0.00000000000E+00 0.  1.
</event>
<event>
 5    1  0.4866530E-005  0.3971221E+03  0.7818608E-02  0.9737394E-01
          4   -1    0    0  502    0 -0.00000000000E+00  0.00000000000E+00  0.17894875679E+03  0.17894875679E+03  0.00000000000E+00 0.  1.
         21   -1    0    0  501  502  0.00000000000E+00 -0.00000000000E+00 -0.38522453859E+04  0.38522453859E+04  0.00000000000E+00 0.  1.
        -13    1    1    2    0    0 -0.11003027750E+03 -0.40738593326E+03 -0.51018466643E+03  0.66208637322E+03  0.10566000000E+00 0.  1.
         13    1    1    2    0    0 -0.17746480244E+03  0.38326730096E+03 -0.37110226572E+03  0.56223169857E+03  0.10566000000E+00 0. -1.
          4    1    1    2  501    0  0.28749507993E+03  0.24118632299E+02 -0.27920096970E+04  0.28068760709E+04  0.00000000000E+00 0.  1.
</event>
<event>
 5    1  0.4866530E-005  0.4752355E+03  0.7818608E-02  0.9875577E-01
          4   -1    0    0  502    0 -0.00000000000E+00  0.00000000000E+00  0.79887164735E+03  0.79887164735E+03  0.00000000000E+00 0.  1.
         21   -1    0    0  501  502  0.00000000000E+00 -0.00000000000E+00 -0.39671809775E+03  0.39671809775E+03  0.00000000000E+00 0.  1.
        -13    1    1    2    0    0  0.52028462907E+03 -0.93023772536E+02  0.20963188688E+03  0.56859041204E+03  0.10566000000E+00 0.  1.
         13    1    1    2    0    0 -0.87002790668E+02  0.11557690854E+03 -0.16142555335E+02  0.14556132944E+03  0.10566000000E+00 0. -1.
          4    1    1    2  501    0 -0.43328183841E+03 -0.22553136002E+02  0.20866421806E+03  0.48143800362E+03  0.00000000000E+00 0.  1.
</event>
<event>
 5    1  0.4866530E-005  0.3325091E+03  0.7818608E-02  0.1000959E+00
         -4   -1    0    0    0  501 -0.00000000000E+00  0.00000000000E+00  0.93962614396E+03  0.93962614396E+03  0.00000000000E+00 0. -1.
         21   -1    0    0  501  502  0.00000000000E+00 -0.00000000000E+00 -0.48135983745E+03  0.48135983745E+03  0.00000000000E+00 0. -1.
        -13    1    1    2    0    0 -0.25046344714E+03 -0.10296141077E+03  0.16256822076E+03  0.31585032535E+03  0.10566000000E+00 0.  1.
         13    1    1    2    0    0  0.50026700165E+03  0.27103688508E+03  0.48656761362E+03  0.74864953069E+03  0.10566000000E+00 0. -1.
         -4    1    1    2    0  502 -0.24980355451E+03 -0.16807547431E+03 -0.19086952787E+03  0.35648612537E+03  0.00000000000E+00 0. -1.
</event>
<event>
 5    1  0.4866530E-005  0.4600691E+03  0.7818608E-02  0.9726381E-01
         -4   -1    0    0    0  501 -0.00000000000E+00  0.00000000000E+00  0.64321750112E+03  0.64321750112E+03  0.00000000000E+00 0. -1.
         21   -1    0    0  501  502  0.00000000000E+00 -0.00000000000E+00 -0.71360355101E+03  0.71360355101E+03  0.00000000000E+00 0. -1.
        -13    1    1    2    0    0 -0.67513945515E+02 -0.25659209731E+03  0.19473404275E+03  0.32911851332E+03  0.10566000000E+00 0.  1.
         13    1    1    2    0    0 -0.38106923822E+03 -0.14900011436E+02  0.93246850773E+02  0.39259490700E+03  0.10566000000E+00 0. -1.
         -4    1    1    2    0  502  0.44858318374E+03  0.27149210875E+03 -0.35836694341E+03  0.63510763180E+03  0.00000000000E+00 0. -1.
</event>
<event>
 5    1  0.4866530E-005  0.4391669E+03  0.7818608E-02  0.9950959E-01
         21   -1    0    0  501  502  0.00000000000E+00  0.00000000000E+00  0.12810124780E+04  0.12810124780E+04  0.00000000000E+00 0. -1.
         -4   -1    0    0    0  501 -0.00000000000E+00 -0.00000000000E+00 -0.29994188547E+03  0.29994188547E+03  0.00000000000E+00 0. -1.
        -13    1    1    2    0    0  0.11415768752E+01  0.14254650971E+03 -0.52467725117E+02  0.15190024348E+03  0.10566000000E+00 0.  1.
         13    1    1    2    0    0 -0.32627574835E+03 -0.33443443545E+03  0.92487272708E+03  0.10361910191E+04  0.10566000000E+00 0. -1.
         -4    1    1    2    0  502  0.32513417147E+03  0.19188792574E+03  0.10866559061E+03  0.39286310095E+03  0.00000000000E+00 0. -1.
</event>
<event>
 5    1  0.4866530E-005  0.6570592E+03  0.7818608E-02  0.9268771E-01
         21   -1    0    0  501  502  0.00000000000E+00  0.00000000000E+00  0.50076700204E+03  0.50076700204E+03  0.00000000000E+00 0.  1.
          4   -1    0    0  502    0 -0.00000000000E+00 -0.00000000000E+00 -0.23322946281E+04  0.23322946281E+04  0.00000000000E+00 0.  1.
        -13    1    1    2    0    0  0.34991260939E+03  0.18121475538E+03 -0.78747155575E+03  0.88056180025E+03  0.10566000000E+00 0.  1.
         13    1    1    2    0    0 -0.45036285943E+03  0.62212562105E+03 -0.79516145442E+03  0.11055083642E+04  0.10566000000E+00 0. -1.
          4    1    1    2  501    0  0.10045025004E+03 -0.80334037644E+03 -0.24889461587E+03  0.84699146569E+03  0.00000000000E+00 0.  1.
</event>
<event>
 5    1  0.4866530E-005  0.4360375E+03  0.7818608E-02  0.1000066E+00
         21   -1    0    0  501  502  0.00000000000E+00  0.00000000000E+00  0.14148630562E+04  0.14148630562E+04  0.00000000000E+00 0.  1.
          4   -1    0    0  502    0 -0.00000000000E+00 -0.00000000000E+00 -0.25194445004E+03  0.25194445004E+03  0.00000000000E+00 0.  1.
        -13    1    1    2    0    0  0.50995087182E+03 -0.13586972444E+03  0.35158466652E+03  0.63413110836E+03  0.10566000000E+00 0.  1.
         13    1    1    2    0    0 -0.11497031718E+03  0.45509612200E+02 -0.23694625526E+01  0.12367264917E+03  0.10566000000E+00 0. -1.
          4    1    1    2  501    0 -0.39498055464E+03  0.90360112239E+02  0.81370340219E+03  0.90900374870E+03  0.00000000000E+00 0.  1.
</event>
<event>
 5    1  0.4866530E-005  0.1695644E+03  0.7818608E-02  0.1083272E+00
          4   -1    0    0  502    0 -0.00000000000E+00  0.00000000000E+00  0.27628830061E+03  0.27628830061E+03  0.00000000000E+00 0.  1.
         21   -1    0    0  501  502  0.00000000000E+00 -0.00000000000E+00 -0.14083916866E+03  0.14083916866E+03  0.00000000000E+00 0. -1.
        -13    1    1    2    0    0 -0.83985343263E+02  0.12803872957E+03  0.41982511059E+02  0.15877656172E+03  0.10566000000E+00 0.  1.
         13    1    1    2    0    0  0.10162016313E+03 -0.15294728020E+03  0.11878287807E+03  0.21869821984E+03  0.10566000000E+00 0. -1.
          4    1    1    2  501    0 -0.17634819865E+02  0.24908550627E+02 -0.25316257175E+02  0.39652687720E+02  0.00000000000E+00 0.  1.
</event>
<event>
 5    1  0.4866530E-005  0.4764542E+03  0.7818608E-02  0.9531128E-01
         21   -1    0    0  501  502  0.00000000000E+00  0.00000000000E+00  0.65488327123E+03  0.65488327123E+03  0.00000000000E+00 0.  1.
          4   -1    0    0  502    0 -0.00000000000E+00 -0.00000000000E+00 -0.84181545851E+03  0.84181545851E+03  0.00000000000E+00 0.  1.
        -13    1    1    2    0    0  0.48108926177E+03 -0.41835490115E+03 -0.26029666596E+03  0.68863783412E+03  0.10566000000E+00 0.  1.
         13    1    1    2    0    0 -0.36452279758E+03  0.14054041276E+03 -0.16480178054E+03  0.42401428703E+03  0.10566000000E+00 0. -1.
          4    1    1    2  501    0 -0.11656646419E+03  0.27781448839E+03  0.23816625922E+03  0.38404660858E+03  0.00000000000E+00 0.  1.
</event>
<event>
 5    1  0.4866530E-005  0.4943433E+03  0.7818608E-02  0.9759121E-01
         21   -1    0    0  501  502  0.00000000000E+00  0.00000000000E+00  0.13152046627E+04  0.13152046627E+04  0.00000000000E+00 0. -1.
         -4   -1    0    0    0  501 -0.00000000000E+00 -0.00000000000E+00 -0.39568081061E+03  0.39568081061E+03  0.00000000000E+00 0. -1.
        -13    1    1    2    0    0 -0.53663515038E+02  0.18331919601E+03 -0.13609262853E+03  0.23453553073E+03  0.10566000000E+00 0.  1.
         13    1    1    2    0    0  0.20978228791E+03  0.34945845315E+03  0.19411218766E+03  0.45145251285E+03  0.10566000000E+00 0. -1.
         -4    1    1    2    0  502 -0.15611877287E+03 -0.53277764915E+03  0.86150429296E+03  0.10248974297E+04  0.00000000000E+00 0. -1.
</event>
<event>
 5    1  0.4866530E-005  0.1366654E+03  0.7818608E-02  0.1193799E+00
         21   -1    0    0  501  502  0.00000000000E+00  0.00000000000E+00  0.38205193300E+02  0.38205193300E+02  0.00000000000E+00 0.  1.
          4   -1    0    0  502    0 -0.00000000000E+00 -0.00000000000E+00 -0.64791225436E+03  0.64791225436E+03  0.00000000000E+00 0.  1.
        -13    1    1    2    0    0 -0.47461912541E+01  0.14555463924E+03 -0.28799475980E+03  0.32272228336E+03  0.10566000000E+00 0.  1.
         13    1    1    2    0    0  0.64872812356E+01 -0.18557457334E+02 -0.24675136866E+01  0.19813223573E+02  0.10566000000E+00 0. -1.
          4    1    1    2  501    0 -0.17410899815E+01 -0.12699718191E+03 -0.31924478757E+03  0.34358194073E+03  0.00000000000E+00 0.  1.
</event>
<event>
 5    1  0.4866530E-005  0.6262688E+02  0.7818608E-02  0.1247512E+00
         -4   -1    0    0    0  501 -0.00000000000E+00  0.00000000000E+00  0.66738061316E+02  0.66738061316E+02  0.00000000000E+00 0. -1.
         21   -1    0    0  501  502  0.00000000000E+00 -0.00000000000E+00 -0.99541114636E+02  0.99541114636E+02  0.00000000000E+00 0.  1.
        -13    1    1    2    0    0  0.62449182178E+01  0.57805348331E+02 -0.37912761681E+02  0.69410704949E+02  0.10566000000E+00 0.  1.
         13    1    1    2    0    0 -0.25859919652E+02 -0.59999572497E+02  0.23946100544E+02  0.69585278899E+02  0.10566000000E+00 0. -1.
         -4    1    1    2    0  502  0.19615001434E+02  0.21942241655E+01 -0.18836392183E+02  0.27283192104E+02  0.00000000000E+00 0. -1.
</event>
<event>
 5    1  0.4866530E-005  0.3727369E+03  0.7818608E-02  0.9811263E-01
         21   -1    0    0  501  502  0.00000000000E+00  0.00000000000E+00  0.33452816089E+03  0.33452816089E+03  0.00000000000E+00 0.  1.
          4   -1    0    0  502    0 -0.00000000000E+00 -0.00000000000E+00 -0.26478016979E+04  0.26478016979E+04  0.00000000000E+00 0.  1.
        -13    1    1    2    0    0 -0.84805328330E+02  0.37898015525E+03 -0.16883805859E+04  0.17324684458E+04  0.10566000000E+00 0.  1.
         13    1    1    2    0    0  0.10266476862E+02 -0.35292051719E+03 -0.89834501232E+03  0.96523679184E+03  0.10566000000E+00 0. -1.
          4    1    1    2  501    0  0.74538851468E+02 -0.26059638066E+02  0.27345206126E+03  0.28462462107E+03  0.00000000000E+00 0.  1.
</event>
<event>
 5    1  0.4866530E-005  0.4263274E+03  0.7818608E-02  0.9829258E-01
          4   -1    0    0  502    0 -0.00000000000E+00  0.00000000000E+00  0.27895894304E+04  0.27895894304E+04  0.00000000000E+00 0.  1.
         21   -1    0    0  501  502  0.00000000000E+00 -0.00000000000E+00 -0.15978223021E+03  0.15978223021E+03  0.00000000000E+00 0.  1.
        -13    1    1    2    0    0  0.65431467764E+02 -0.27939217785E+03  0.13905128834E+04  0.14198124369E+04  0.10566000000E+00 0.  1.
         13    1    1    2    0    0  0.20765955599E+03 -0.10854896624E+03  0.93966543852E+03  0.96844024946E+03  0.10566000000E+00 0. -1.
          4    1    1    2  501    0 -0.27309102375E+03  0.38794114409E+03  0.29962887831E+03  0.56111897424E+03  0.00000000000E+00 0.  1.
</event>
<event>
 5    1  0.4866530E-005  0.4477898E+02  0.7818608E-02  0.1314641E+00
         -4   -1    0    0    0  501 -0.00000000000E+00  0.00000000000E+00  0.14405207940E+02  0.14405207940E+02  0.00000000000E+00 0. -1.
         21   -1    0    0  501  502  0.00000000000E+00 -0.00000000000E+00 -0.27158365538E+03  0.27158365538E+03  0.00000000000E+00 0.  1.
        -13    1    1    2    0    0  0.44787452774E+02 -0.10962680262E+02 -0.44164055071E+02  0.63848032146E+02  0.10566000000E+00 0.  1.
         13    1    1    2    0    0 -0.43183068005E+02 -0.20061526695E+01 -0.10822114775E+03  0.11653596009E+03  0.10566000000E+00 0. -1.
         -4    1    1    2    0  502 -0.16043847690E+01  0.12968832931E+02 -0.10479324462E+03  0.10560487109E+03  0.00000000000E+00 0. -1.
</event>
<event>
 5    1  0.4866530E-005  0.2411734E+03  0.7818608E-02  0.1035071E+00
         21   -1    0    0  501  502  0.00000000000E+00  0.00000000000E+00  0.62704962768E+03  0.62704962768E+03  0.00000000000E+00 0. -1.
         -4   -1    0    0    0  501 -0.00000000000E+00 -0.00000000000E+00 -0.33756314328E+03  0.33756314328E+03  0.00000000000E+00 0. -1.
        -13    1    1    2    0    0  0.21212757923E+03  0.11669384723E+03  0.24868022673E+03  0.34706977711E+03  0.10566000000E+00 0.  1.
         13    1    1    2    0    0 -0.19566100457E+03 -0.14117771172E+03 -0.23698116247E+03  0.33819292944E+03  0.10566000000E+00 0. -1.
         -4    1    1    2    0  502 -0.16466574662E+02  0.24483864490E+02  0.27778742014E+03  0.27935006441E+03  0.00000000000E+00 0. -1.
</event>
<event>
 5    1  0.4866530E-005  0.4950246E+03  0.7818608E-02  0.9647736E-01
          4   -1    0    0  502    0 -0.00000000000E+00  0.00000000000E+00  0.36553705266E+03  0.36553705266E+03  0.00000000000E+00 0.  1.
         21   -1    0    0  501  502  0.00000000000E+00 -0.00000000000E+00 -0.17005522816E+04  0.17005522816E+04  0.00000000000E+00 0.  1.
        -13    1    1    2    0    0 -0.43203253471E+03  0.22378699747E+03 -0.74644190715E+03  0.89101529908E+03  0.10566000000E+00 0.  1.
         13    1    1    2    0    0  0.14182391216E+03  0.24179015842E+03  0.97349985152E+02  0.29673815653E+03  0.10566000000E+00 0. -1.
          4    1    1    2  501    0  0.29020862254E+03 -0.46557715589E+03 -0.68592330690E+03  0.87833587860E+03  0.00000000000E+00 0.  1.
</event>
<event>
 5    1  0.4866530E-005  0.9964704E+03  0.7818608E-02  0.8777915E-01
         21   -1    0    0  501  502  0.00000000000E+00  0.00000000000E+00  0.46800658596E+03  0.46800658596E+03  0.00000000000E+00 0. -1.
          4   -1    0    0  502    0 -0.00000000000E+00 -0.00000000000E+00 -0.33303648033E+04  0.33303648033E+04  0.00000000000E+00 0.  1.
        -13    1    1    2    0    0  0.66869536326E+03  0.82199956153E+03 -0.48908816344E+03  0.11670664123E+04  0.10566000000E+00 0.  1.
         13    1    1    2    0    0 -0.56560615076E+03 -0.79280686425E+03 -0.17853146544E+04  0.20336670004E+04  0.10566000000E+00 0. -1.
          4    1    1    2  501    0 -0.10308921250E+03 -0.29192697275E+02 -0.58795539947E+03  0.59763797660E+03  0.00000000000E+00 0.  1.
</event>
<event>
 5    1  0.4866530E-005  0.4904088E+03  0.7818608E-02  0.9955769E-01
         21   -1    0    0  501  502  0.00000000000E+00  0.00000000000E+00  0.12871041789E+03  0.12871041789E+03  0.00000000000E+00 0. -1.
         -4   -1    0    0    0  501 -0.00000000000E+00 -0.00000000000E+00 -0.24388846166E+04  0.24388846166E+04  0.00000000000E+00 0. -1.
        -13    1    1    2    0    0  0.48225852805E+02 -0.88465337923E+02 -0.36245347211E+03  0.37619726142E+03  0.10566000000E+00 0.  1.
         13    1    1    2    0    0 -0.37293577818E+03 -0.29662416786E+03 -0.11864415913E+04  0.12785580363E+04  0.10566000000E+00 0. -1.
         -4    1    1    2    0  502  0.32470992538E+03  0.38508950578E+03 -0.76127913535E+03  0.91283973677E+03  0.00000000000E+00 0. -1.
</event>
<event>
 5    1  0.4866530E-005  0.2831157E+02  0.7818608E-02  0.1419001E+00
         -4   -1    0    0    0  501 -0.00000000000E+00  0.00000000000E+00  0.80203190732E+02  0.80203190732E+02  0.00000000000E+00 0. -1.
         21   -1    0    0  501  502  0.00000000000E+00 -0.00000000000E+00 -0.71677340773E+02  0.71677340773E+02  0.00000000000E+00 0. -1.
        -13    1    1    2    0    0 -0.19692653348E+02  0.28779845265E+01  0.63667745156E+01  0.20895702252E+02  0.10566000000E+00 0.  1.
         13    1    1    2    0    0  0.33350583626E+02  0.43240009467E+01  0.61268869895E+02  0.69891658978E+02  0.10566000000E+00 0. -1.
         -4    1    1    2    0  502 -0.13657930278E+02 -0.72019854731E+01 -0.59109794452E+02  0.61093170276E+02  0.00000000000E+00 0. -1.
</event>
<event>
 5    1  0.4866530E-005  0.5048655E+03  0.7818608E-02  0.9637914E-01
         21   -1    0    0  501  502  0.00000000000E+00  0.00000000000E+00  0.71616531138E+03  0.71616531138E+03  0.00000000000E+00 0.  1.
          4   -1    0    0  502    0 -0.00000000000E+00 -0.00000000000E+00 -0.68119267572E+03  0.68119267572E+03  0.00000000000E+00 0.  1.
        -13    1    1    2    0    0 -0.43046738881E+03 -0.10974547525E+03  0.87240256902E+02  0.45272189670E+03  0.10566000000E+00 0.  1.
         13    1    1    2    0    0 -0.56801958177E+02 -0.26758746056E+03 -0.16306857531E+03  0.31846645493E+03  0.10566000000E+00 0. -1.
          4    1    1    2  501    0  0.48726934699E+03  0.37733293580E+03  0.11080095407E+03  0.62616963547E+03  0.00000000000E+00 0.  1.
</event>
<event>
 5    1  0.4866530E-005  0.4900789E+03  0.7818608E-02  0.9744753E-01
          4   -1    0    0  502    0 -0.00000000000E+00  0.00000000000E+00  0.21181501123E+04  0.21181501123E+04  0.00000000000E+00 0.  1.
         21   -1    0    0  501  502  0.00000000000E+00 -0.00000000000E+00 -0.18389785897E+03  0.18389785897E+03  0.00000000000E+00 0.  1.
        -13    1    1    2    0    0 -0.40199705022E+03  0.17880122334E+03  0.54477452655E+03  0.70025052788E+03  0.10566000000E+00 0.  1.
         13    1    1    2    0    0 -0.17949303971E+03 -0.10107695615E+03  0.43748162652E+03  0.48355401671E+03  0.10566000000E+00 0. -1.
          4    1    1    2  501    0  0.58149008993E+03 -0.77724267197E+02  0.95199610030E+03  0.11182434267E+04  0.00000000000E+00 0.  1.
</event>
<event>
 5    1  0.4866530E-005  0.4977232E+03  0.7818608E-02  0.9482976E-01
          4   -1    0    0  502    0 -0.00000000000E+00  0.00000000000E+00  0.55043732695E+03  0.55043732695E+03  0.00000000000E+00 0.  1.
         21   -1    0    0  501  502  0.00000000000E+00 -0.00000000000E+00 -0.11830023515E+04  0.11830023515E+04  0.00000000000E+00 0.  1.
        -13    1    1    2    0    0 -0.44535200169E+03 -0.57183071527E+03 -0.33051358969E+03  0.79659777584E+03  0.10566000000E+00 0.  1.
         13    1    1    2    0    0  0.18276754181E+03  0.38890118402E+03  0.81446620747E+02  0.43735759793E+03  0.10566000000E+00 0. -1.
          4    1    1    2  501    0  0.26258445988E+03  0.18292953125E+03 -0.38349805560E+03  0.49948430468E+03  0.00000000000E+00 0.  1.
</event>
<event>
 5    1  0.4866530E-005  0.5617867E+03  0.7818608E-02  0.9351943E-01
         -4   -1    0    0    0  501 -0.00000000000E+00  0.00000000000E+00  0.23987685908E+04  0.23987685908E+04  0.00000000000E+00 0. -1.
         21   -1    0    0  501  502  0.00000000000E+00 -0.00000000000E+00 -0.31966084224E+03  0.31966084224E+03  0.00000000000E+00 0. -1.
        -13    1    1    2    0    0 -0.46722254656E+03 -0.36317213056E+03  0.79205175726E+03  0.98870465851E+03  0.10566000000E+00 0.  1.
         13    1    1    2    0    0  0.58918659096E+03 -0.19137793066E+01  0.28143802983E+03  0.65295625988E+03  0.10566000000E+00 0. -1.
         -4    1    1    2    0  502 -0.12196404440E+03  0.36508590987E+03  0.10056179615E+04  0.10767685147E+04  0.00000000000E+00 0. -1.
</event>
<event>
 5    1  0.4866530E-005  0.3128236E+02  0.7818608E-02  0.1394898E+00
         21   -1    0    0  501  502  0.00000000000E+00  0.00000000000E+00  0.14344212668E+03  0.14344212668E+03  0.00000000000E+00 0. -1.
          4   -1    0    0  502    0 -0.00000000000E+00 -0.00000000000E+00 -0.17508119439E+02  0.17508119439E+02  0.00000000000E+00 0.  1.
        -13    1    1    2    0    0 -0.19118645619E+02  0.23499806810E+02  0.65540697259E+01  0.30995653315E+02  0.10566000000E+00 0.  1.
         13    1    1    2    0    0  0.29105481065E+02 -0.24142087658E+02  0.10968714365E+03  0.11602262741E+03  0.10566000000E+00 0. -1.
          4    1    1    2  501    0 -0.99868354462E+01  0.64228084776E+00  0.96927938660E+01  0.13931965398E+02  0.00000000000E+00 0.  1.
</event>
<event>
 5    1  0.4866530E-005  0.4994003E+03  0.7818608E-02  0.9805880E-01
         21   -1    0    0  501  502  0.00000000000E+00  0.00000000000E+00  0.18654030675E+03  0.18654030675E+03  0.00000000000E+00 0.  1.
          4   -1    0    0  502    0 -0.00000000000E+00 -0.00000000000E+00 -0.20438582950E+04  0.20438582950E+04  0.00000000000E+00 0.  1.
        -13    1    1    2    0    0 -0.23710265909E+03  0.52309523547E+03 -0.67614914562E+03  0.88714371700E+03  0.10566000000E+00 0.  1.
         13    1    1    2    0    0 -0.30495951930E+01 -0.15781528861E+03 -0.57254597627E+03  0.59390560820E+03  0.10566000000E+00 0. -1.
          4    1    1    2  501    0  0.24015225429E+03 -0.36527994686E+03 -0.60862286639E+03  0.74934927658E+03  0.00000000000E+00 0.  1.
</event>
<event>
 5    1  0.4866530E-005  0.4967535E+03  0.7818608E-02  0.9994733E-01
         -4   -1    0    0    0  501 -0.00000000000E+00  0.00000000000E+00  0.41118834870E+03  0.41118834870E+03  0.00000000000E+00 0. -1.
         21   -1    0    0  501  502  0.00000000000E+00 -0.00000000000E+00 -0.74917801949E+03  0.74917801949E+03  0.00000000000E+00 0. -1.
        -13    1    1    2    0    0  0.43459117242E+02  0.73360390352E+02 -0.10545646746E+03  0.13561533629E+03  0.10566000000E+00 0.  1.
         13    1    1    2    0    0  0.32319510135E+03  0.32319845849E+03 -0.85374182112E+02  0.46497427805E+03  0.10566000000E+00 0. -1.
         -4    1    1    2    0  502 -0.36665421860E+03 -0.39655884885E+03 -0.14715902121E+03  0.55977675384E+03  0.00000000000E+00 0. -1.
</event>
<event>
 5    1  0.4866530E-005  0.3882320E+03  0.7818608E-02  0.9825689E-01
          4   -1    0    0  502    0 -0.00000000000E+00  0.00000000000E+00  0.49646871384E+03  0.49646871384E+03  0.00000000000E+00 0.  1.
         21   -1    0    0  501  502  0.00000000000E+00 -0.00000000000E+00 -0.95923898330E+03  0.95923898330E+03  0.00000000000E+00 0.  1.
        -13    1    1    2    0    0  0.29153284046E+03  0.21185466415E+03  0.13604304161E+03  0.38520321406E+03  0.10566000000E+00 0.  1.
         13    1    1    2    0    0  0.11940348547E+03 -0.29048643045E+03  0.29696897287E+02  0.31547024501E+03  0.10566000000E+00 0. -1.
          4    1    1    2  501    0 -0.41093632592E+03  0.78631766296E+02 -0.62851020837E+03  0.75503423807E+03  0.00000000000E+00 0.  1.
</event>
<event>
 5    1  0.4866530E-005  0.2734843E+03  0.7818608E-02  0.1018893E+00
          4   -1    0    0  502    0 -0.00000000000E+00  0.00000000000E+00  0.18213061645E+04  0.18213061645E+04  0.00000000000E+00 0.  1.
         21   -1    0    0  501  502  0.00000000000E+00 -0.00000000000E+00 -0.40998036363E+03  0.40998036363E+03  0.00000000000E+00 0.  1.
        -13    1    1    2    0    0  0.19943940137E+02  0.22770996286E+03  0.67700113040E+03  0.71454889942E+03  0.10566000000E+00 0.  1.
         13    1    1    2    0    0  0.28110609878E+02 -0.33532932866E+03  0.10906729133E+04  0.11414041265E+04  0.10566000000E+00 0. -1.
          4    1    1    2  501    0 -0.48054550015E+02  0.10761936580E+03 -0.35634824285E+03  0.37533350218E+03  0.00000000000E+00 0.  1.
</event>
<event>
 5    1  0.4866530E-005  0.2315034E+03  0.7818608E-02  0.1040450E+00
         -4   -1    0    0    0  501 -0.00000000000E+00  0.00000000000E+00  0.21443491978E+04  0.21443491978E+04  0.00000000000E+00 0. -1.
         21   -1    0    0  501  502  0.00000000000E+00 -0.00000000000E+00 -0.23991466910E+03  0.23991466910E+03  0.00000000000E+00 0. -1.
        -13    1    1    2    0    0 -0.24442112758E+03 -0.55159145489E+01  0.79891799860E+03  0.83548913373E+03  0.10566000000E+00 0.  1.
         13    1    1    2    0    0  0.77498945454E+02  0.18702217243E+02 -0.20897277164E+03  0.22366378770E+03  0.10566000000E+00 0. -1.
         -4    1    1    2    0  502  0.16692218213E+03 -0.13186302694E+02  0.13144893017E+04  0.13251109455E+04  0.00000000000E+00 0. -1.
</event>
<event>
 5    1  0.4866530E-005  0.4756587E+03  0.7818608E-02  0.9630622E-01
         21   -1    0    0  501  502  0.00000000000E+00  0.00000000000E+00  0.22396618797E+03  0.22396618797E+03  0.00000000000E+00 0.  1.
          4   -1    0    0  502    0 -0.00000000000E+00 -0.00000000000E+00 -0.23573898674E+04  0.23573898674E+04  0.00000000000E+00 0.  1.
        -13    1    1    2    0    0  0.26528198315E+03  0.21115579357E+03 -0.12979558086E+04  0.13415105635E+04  0.10566000000E+00 0.  1.
         13    1    1    2    0    0 -0.73688756986E+02  0.32743981811E+03 -0.22832737114E+03  0.40593135745E+03  0.10566000000E+00 0. -1.
          4    1    1    2  501    0 -0.19159322616E+03 -0.53859561168E+03 -0.60714049969E+03  0.83391413442E+03  0.00000000000E+00 0.  1.
</event>
<event>
 5    1  0.4866530E-005  0.1867984E+03  0.7818608E-02  0.1069583E+00
         21   -1    0    0  501  502  0.00000000000E+00  0.00000000000E+00  0.24029280108E+03  0.24029280108E+03  0.00000000000E+00 0.  1.
         -4   -1    0    0    0  501 -0.00000000000E+00 -0.00000000000E+00 -0.20419337973E+03  0.20419337973E+03  0.00000000000E+00 0. -1.
        -13    1    1    2    0    0 -0.72293246392E+02  0.15670269412E+03  0.60953905796E+02  0.18302305214E+03  0.10566000000E+00 0.  1.
         13    1    1    2    0    0  0.12944044030E+03 -0.15142878867E+03 -0.37463448499E+02  0.20270428403E+03  0.10566000000E+00 0. -1.
         -4    1    1    2    0  502 -0.57147193909E+02 -0.52739054487E+01  0.12608964051E+02  0.58758844651E+02  0.00000000000E+00 0. -1.
</event>
<event>
 5    1  0.4866530E-005  0.1166443E+03  0.7818608E-02  0.1148002E+00
         -4   -1    0    0    0  501 -0.00000000000E+00  0.00000000000E+00  0.96362338214E+02  0.96362338214E+02  0.00000000000E+00 0. -1.
         21   -1    0    0  501  502  0.00000000000E+00 -0.00000000000E+00 -0.59285379625E+03  0.59285379625E+03  0.00000000000E+00 0. -1.
        -13    1    1    2    0    0 -0.72850111631E+02 -0.60274687021E+02 -0.38252366286E+02  0.10199721247E+03  0.10566000000E+00 0.  1.
         13    1    1    2    0    0 -0.37951500554E+02  0.11421595714E+03 -0.44763104492E+03  0.46352903340E+03  0.10566000000E+00 0. -1.
         -4    1    1    2    0  502  0.11080161219E+03 -0.53941270119E+02 -0.10608046828E+02  0.12368988860E+03  0.00000000000E+00 0. -1.
</event>
<event>
 5    1  0.4866530E-005  0.2010262E+03  0.7818608E-02  0.1059435E+00
         21   -1    0    0  501  502  0.00000000000E+00  0.00000000000E+00  0.38788940519E+03  0.38788940519E+03  0.00000000000E+00 0. -1.
         -4   -1    0    0    0  501 -0.00000000000E+00 -0.00000000000E+00 -0.33006144417E+03  0.33006144417E+03  0.00000000000E+00 0. -1.
        -13    1    1    2    0    0  0.29094063291E+02  0.19355136011E+03  0.47770059634E+02  0.20147104825E+03  0.10566000000E+00 0.  1.
         13    1    1    2    0    0  0.17644902348E+02 -0.20340239865E+03 -0.20906025143E+03  0.29221580766E+03  0.10566000000E+00 0. -1.
         -4    1    1    2    0  502 -0.46738965639E+02  0.98510385376E+01  0.21911815281E+03  0.22426399345E+03  0.00000000000E+00 0. -1.
</event>
<event>
 5    1  0.4866530E-005  0.4052251E+03  0.7818608E-02  0.1002414E+00
         21   -1    0    0  501  502  0.00000000000E+00  0.00000000000E+00  0.19893629744E+03  0.19893629744E+03  0.00000000000E+00 0. -1.
         -4   -1    0    0    0  501 -0.00000000000E+00 -0.00000000000E+00 -0.12969115940E+04  0.12969115940E+04  0.00000000000E+00 0. -1.
        -13    1    1    2    0    0  0.44915439920E+02 -0.13541607667E+03 -0.52498534867E+02  0.15202308342E+03  0.10566000000E+00 0.  1.
         13    1    1    2    0    0 -0.15765064946E+03  0.46684618371E+03 -0.65004789694E+03  0.81569685913E+03  0.10566000000E+00 0. -1.
         -4    1    1    2    0  502  0.11273520954E+03 -0.33143010704E+03 -0.39542886476E+03  0.52812794889E+03  0.00000000000E+00 0. -1.
</event>
<event>
 5    1  0.4866530E-005  0.5438312E+02  0.7818608E-02  0.1274903E+00
         21   -1    0    0  501  502  0.00000000000E+00  0.00000000000E+00  0.51880886187E+03  0.51880886187E+03  0.00000000000E+00 0.  1.
          4   -1    0    0  502    0 -0.00000000000E+00 -0.00000000000E+00 -0.14015709195E+02  0.14015709195E+02  0.00000000000E+00 0.  1.
        -13    1    1    2    0    0  0.53553073686E+02 -0.21679410443E+01  0.69485517631E+02  0.87754657962E+02  0.10566000000E+00 0.  1.
         13    1    1    2    0    0 -0.54299397786E+02  0.23201855115E+02  0.19252926164E+03  0.20138092867E+03  0.10566000000E+00 0. -1.
          4    1    1    2  501    0  0.74632410025E+00 -0.21033914071E+02  0.24277837340E+03  0.24368898443E+03  0.00000000000E+00 0.  1.
</event>
<event>
 5    1  0.4866530E-005  0.3373698E+03  0.7818608E-02  0.9929747E-01
         21   -1    0    0  501  502  0.00000000000E+00  0.00000000000E+00  0.31424249238E+03  0.31424249238E+03  0.00000000000E+00 0.  1.
          4   -1    0    0  502    0 -0.00000000000E+00 -0.00000000000E+00 -0.14481751485E+04  0.14481751485E+04  0.00000000000E+00 0.  1.
        -13    1    1    2    0    0  0.44678159396E+02  0.40697815948E+03 -0.91580764305E+03  0.10031605108E+04  0.10566000000E+00 0.  1.
         13    1    1    2    0    0  0.14302725574E+03 -0.25208999954E+03 -0.37181016479E+03  0.47143289401E+03  0.10566000000E+00 0. -1.
          4    1    1    2  501    0 -0.18770541514E+03 -0.15488815994E+03  0.15368515177E+03  0.28782423601E+03  0.00000000000E+00 0.  1.
</event>
<event>
 5    1  0.4866530E-005  0.7888980E+03  0.7818608E-02  0.9003130E-01
         -4   -1    0    0    0  501 -0.00000000000E+00  0.00000000000E+00  0.26477323981E+04  0.26477323981E+04  0.00000000000E+00 0. -1.
         21   -1    0    0  501  502  0.00000000000E+00 -0.00000000000E+00 -0.53435543617E+03  0.53435543617E+03  0.00000000000E+00 0. -1.
        -13    1    1    2    0    0  0.33243571341E+03 -0.74983457032E+03  0.15691784731E+04  0.17706175414E+04  0.10566000000E+00 0.  1.
         13    1    1    2    0    0 -0.65694913510E+03  0.46153163625E+03  0.55706448047E+03  0.97719724925E+03  0.10566000000E+00 0. -1.
         -4    1    1    2    0  502  0.32451342169E+03  0.28830293407E+03 -0.12865991649E+02  0.43427304359E+03  0.00000000000E+00 0. -1.
</event>
<event>
 5    1  0.4866530E-005  0.3992813E+03  0.7818608E-02  0.9731124E-01
         -4   -1    0    0    0  501 -0.00000000000E+00  0.00000000000E+00  0.11743426597E+04  0.11743426597E+04  0.00000000000E+00 0. -1.
         21   -1    0    0  501  502  0.00000000000E+00 -0.00000000000E+00 -0.44041649066E+03  0.44041649066E+03  0.00000000000E+00 0. -1.
        -13    1    1    2    0    0  0.24542289285E+03 -0.21650283258E+03  0.35387273323E+03  0.48200808638E+03  0.10566000000E+00 0.  1.
         13    1    1    2    0    0 -0.35371494927E+03  0.34277986905E+03  0.65007268604E+03  0.81560211640E+03  0.10566000000E+00 0. -1.
         -4    1    1    2    0  502  0.10829205643E+03 -0.12627703647E+03 -0.27001925026E+03  0.31714894756E+03  0.00000000000E+00 0. -1.
</event>
<event>
 5    1  0.4866530E-005  0.4678646E+03  0.7818608E-02  0.9601624E-01
          4   -1    0    0  502    0 -0.00000000000E+00  0.00000000000E+00  0.29155504746E+04  0.29155504746E+04  0.00000000000E+00 0.  1.
         21   -1    0    0  501  502  0.00000000000E+00 -0.00000000000E+00 -0.23847901824E+03  0.23847901824E+03  0.00000000000E+00 0.  1.
        -13    1    1    2    0    0  0.41691414185E+03  0.14060426197E+03  0.85610018663E+03  0.96254584352E+03  0.10566000000E+00 0.  1.
         13    1    1    2    0    0  0.51696861311E+02 -0.38743672187E+03  0.15461374427E+04  0.15947792267E+04  0.10566000000E+00 0. -1.
          4    1    1    2  501    0 -0.46861100317E+03  0.24683245990E+03  0.27483382705E+03  0.59670442267E+03  0.00000000000E+00 0.  1.
</event>
<event>
 5    1  0.4866530E-005  0.7827341E+03  0.7818608E-02  0.9010896E-01
          4   -1    0    0  502    0 -0.00000000000E+00  0.00000000000E+00  0.76251923481E+03  0.76251923481E+03  0.00000000000E+00 0.  1.
         21   -1    0    0  501  502  0.00000000000E+00 -0.00000000000E+00 -0.15223901130E+04  0.15223901130E+04  0.00000000000E+00 0. -1.
        -13    1    1    2    0    0  0.45457420486E+03 -0.62656456775E+03 -0.46323203941E+03  0.90211130067E+03  0.10566000000E+00 0.  1.
         13    1    1    2    0    0 -0.13543649276E+02  0.85338503281E+03 -0.15975450882E+03  0.86831501133E+03  0.10566000000E+00 0. -1.
          4    1    1    2  501    0 -0.44103055558E+03 -0.22682046505E+03 -0.13688432992E+03  0.51448303578E+03  0.00000000000E+00 0.  1.
</event>
<event>
 5    1  0.4866530E-005  0.6411532E+03  0.7818608E-02  0.9213015E-01
          4   -1    0    0  502    0 -0.00000000000E+00  0.00000000000E+00  0.84376081191E+03  0.84376081191E+03  0.00000000000E+00 0.  1.
         21   -1    0    0  501  502  0.00000000000E+00 -0.00000000000E+00 -0.12872125225E+04  0.12872125225E+04  0.00000000000E+00 0. -1.
        -13    1    1    2    0    0 -0.10767210278E+03 -0.79682607475E+03 -0.82299320751E+03  0.11505837240E+04  0.10566000000E+00 0.  1.
         13    1    1    2    0    0  0.25771316441E+03  0.55901756102E+03  0.31675697044E+03  0.69228007203E+03  0.10566000000E+00 0. -1.
          4    1    1    2  501    0 -0.15004106163E+03  0.23780851373E+03  0.62784526450E+02  0.28810953844E+03  0.00000000000E+00 0.  1.
</event>
<event>
 5    1  0.4866530E-005  0.1251538E+03  0.7818608E-02  0.1128573E+00
         21   -1    0    0  501  502  0.00000000000E+00  0.00000000000E+00  0.14333672298E+03  0.14333672298E+03  0.00000000000E+00 0.  1.
         -4   -1    0    0    0  501 -0.00000000000E+00 -0.00000000000E+00 -0.17148374676E+03  0.17148374676E+03  0.00000000000E+00 0. -1.
        -13    1    1    2    0    0  0.94216283840E+00 -0.12087262138E+03  0.40496154259E+02  0.12747951970E+03  0.10566000000E+00 0.  1.
         13    1    1    2    0    0  0.11673407232E+02  0.12640915835E+03 -0.94354034486E+02  0.15817154845E+03  0.10566000000E+00 0. -1.
         -4    1    1    2    0  502 -0.12615570070E+02 -0.55365369694E+01  0.25710856446E+02  0.29169401588E+02  0.00000000000E+00 0. -1.
</event>
<event>
 5    1  0.4866530E-005  0.6754148E+02  0.7818608E-02  0.1233330E+00
         -4   -1    0    0    0  501 -0.00000000000E+00  0.00000000000E+00  0.11152818684E+03  0.11152818684E+03  0.00000000000E+00 0. -1.
         21   -1    0    0  501  502  0.00000000000E+00 -0.00000000000E+00 -0.96364764655E+02  0.96364764655E+02  0.00000000000E+00 0.  1.
        -13    1    1    2    0    0  0.33553380831E+02 -0.45298067827E+02 -0.42741721736E+02  0.70743270034E+02  0.10566000000E+00 0.  1.
         13    1    1    2    0    0 -0.46207879865E+02  0.52728544779E+02  0.82649623471E+02  0.10838099012E+03  0.10566000000E+00 0. -1.
         -4    1    1    2    0  502  0.12654499034E+02 -0.74304769517E+01 -0.24744479546E+02  0.28768691342E+02  0.00000000000E+00 0. -1.
</event>
<event>
 5    1  0.4866530E-005  0.2983770E+03  0.7818608E-02  0.1041647E+00
         -4   -1    0    0    0  501 -0.00000000000E+00  0.00000000000E+00  0.62927947904E+03  0.62927947904E+03  0.00000000000E+00 0. -1.
         21   -1    0    0  501  502  0.00000000000E+00 -0.00000000000E+00 -0.62953899096E+03  0.62953899096E+03  0.00000000000E+00 0. -1.
        -13    1    1    2    0    0  0.77034027666E+02 -0.70291877236E+02  0.18485758838E+03  0.21224403071E+03  0.10566000000E+00 0.  1.
         13    1    1    2    0    0 -0.17922964709E+03  0.34131573979E+03  0.29528610486E+03  0.48560642038E+03  0.10566000000E+00 0. -1.
         -4    1    1    2    0  502  0.10219561943E+03 -0.27102386255E+03 -0.48040320517E+03  0.56096801891E+03  0.00000000000E+00 0. -1.
</event>
<event>
 5    1  0.8727290E-005  0.7605726E+03  0.7818608E-02  0.9039454E-01
         21   -1    0    0  501  502  0.00000000000E+00  0.00000000000E+00  0.72958407739E+03  0.72958407739E+03  0.00000000000E+00 0. -1.
          4   -1    0    0  502    0 -0.00000000000E+00 -0.00000000000E+00 -0.22080881744E+04  0.22080881744E+04  0.00000000000E+00 0.  1.
        -13    1    1    2    0    0  0.20373407892E+02  0.51119057800E+03  0.23726826651E+03  0.56393893663E+03  0.10566000000E+00 0.  1.
         13    1    1    2    0    0 -0.69368747091E+03 -0.57173675837E+03 -0.12984807187E+04  0.15792838301E+04  0.10566000000E+00 0. -1.
          4    1    1    2  501    0  0.67331406302E+03  0.60546180367E+02 -0.41729164486E+03  0.79444948504E+03  0.00000000000E+00 0.  1.
</event>
<event>
 5    1  0.4866530E-005  0.1076814E+03  0.7818608E-02  0.1164193E+00
         -4   -1    0    0    0  501 -0.00000000000E+00  0.00000000000E+00  0.10736004988E+04  0.10736004988E+04  0.00000000000E+00 0. -1.
         21   -1    0    0  501  502  0.00000000000E+00 -0.00000000000E+00 -0.40541307633E+03  0.40541307633E+03  0.00000000000E+00 0. -1.
        -13    1    1    2    0    0 -0.40384935978E+02 -0.69977748058E+02  0.41118149528E+03  0.41904422380E+03  0.10566000000E+00 0.  1.
         13    1    1    2    0    0 -0.10185420130E+03 -0.32819666142E+02 -0.38230946041E+03  0.39700370715E+03  0.10566000000E+00 0. -1.
         -4    1    1    2    0  502  0.14223913728E+03  0.10279741420E+03  0.63931538765E+03  0.66296564423E+03  0.00000000000E+00 0. -1.
</event>
<event>
 5    1  0.4866530E-005  0.4234693E+03  0.7818608E-02  0.9670440E-01
         -4   -1    0    0    0  501 -0.00000000000E+00  0.00000000000E+00  0.50441779785E+03  0.50441779785E+03  0.00000000000E+00 0. -1.
         21   -1    0    0  501  502  0.00000000000E+00 -0.00000000000E+00 -0.13732525235E+04  0.13732525235E+04  0.00000000000E+00 0. -1.
        -13    1    1    2    0    0  0.37659597359E+03  0.17063636614E+03  0.10229590551E+03  0.42591755097E+03  0.10566000000E+00 0.  1.
         13    1    1    2    0    0  0.13527691480E+03  0.31886543257E+03 -0.47127731305E+03  0.58487376819E+03  0.10566000000E+00 0. -1.
         -4    1    1    2    0  502 -0.51187288839E+03 -0.48950179871E+03 -0.49985331809E+03  0.86687900218E+03  0.00000000000E+00 0. -1.
</event>
<event>
 5    1  0.4866530E-005  0.3807094E+03  0.7818608E-02  0.9786472E-01
         21   -1    0    0  501  502  0.00000000000E+00  0.00000000000E+00  0.12488268443E+04  0.12488268443E+04  0.00000000000E+00 0. -1.
         -4   -1    0    0    0  501 -0.00000000000E+00 -0.00000000000E+00 -0.68882008916E+03  0.68882008916E+03  0.00000000000E+00 0. -1.
        -13    1    1    2    0    0 -0.12995038760E+02  0.63319489400E+03  0.46437889485E+02  0.63502845099E+03  0.10566000000E+00 0.  1.
         13    1    1    2    0    0  0.16363806429E+03 -0.29140629097E+03 -0.27321671577E+03  0.43167398282E+03  0.10566000000E+00 0. -1.
         -4    1    1    2    0  502 -0.15064302553E+03 -0.34178860304E+03  0.78678558139E+03  0.87094449960E+03  0.00000000000E+00 0. -1.
</event>
<event>
 5    1  0.4866530E-005  0.4294904E+03  0.7818608E-02  0.9863365E-01
         21   -1    0    0  501  502  0.00000000000E+00  0.00000000000E+00  0.19773190040E+03  0.19773190040E+03  0.00000000000E+00 0. -1.
         -4   -1    0    0    0  501 -0.00000000000E+00 -0.00000000000E+00 -0.20744219489E+04  0.20744219489E+04  0.00000000000E+00 0. -1.
        -13    1    1    2    0    0  0.70184316393E+02 -0.19177153221E+03 -0.63270672745E+03  0.66484582645E+03  0.10566000000E+00 0.  1.
         13    1    1    2    0    0  0.17975034419E+03  0.50559065693E+03 -0.10078342750E+04  0.11417802046E+04  0.10566000000E+00 0. -1.
         -4    1    1    2    0  502 -0.24993466058E+03 -0.31381912473E+03 -0.23614904607E+03  0.46552781825E+03  0.00000000000E+00 0. -1.
</event>
<event>
 5    1  0.4866530E-005  0.7554001E+03  0.7818608E-02  0.9046266E-01
         21   -1    0    0  501  502  0.00000000000E+00  0.00000000000E+00  0.46925860257E+03  0.46925860257E+03  0.00000000000E+00 0. -1.
          4   -1    0    0  502    0 -0.00000000000E+00 -0.00000000000E+00 -0.20432323012E+04  0.20432323012E+04  0.00000000000E+00 0.  1.
        -13    1    1    2    0    0  0.38828635067E+03  0.74323950081E+03 -0.32820093454E+03  0.90049270418E+03  0.10566000000E+00 0.  1.
         13    1    1    2    0    0 -0.15843730660E+03 -0.70033585765E+03 -0.63699567120E+03  0.95986258908E+03  0.10566000000E+00 0. -1.
          4    1    1    2  501    0 -0.22984904407E+03 -0.42903643166E+02 -0.60877709287E+03  0.65213561048E+03  0.00000000000E+00 0.  1.
</event>
<event>
 5    1  0.4866530E-005  0.1215192E+03  0.7818608E-02  0.1133171E+00
          4   -1    0    0  502    0 -0.00000000000E+00  0.00000000000E+00  0.46987923637E+03  0.46987923637E+03  0.00000000000E+00 0.  1.
         21   -1    0    0  501  502  0.00000000000E+00 -0.00000000000E+00 -0.75205821571E+02  0.75205821571E+02  0.00000000000E+00 0.  1.
        -13    1    1    2    0    0 -0.57231288251E+02 -0.14369629556E+03  0.22818464244E+03  0.27566698737E+03  0.10566000000E+00 0.  1.
         13    1    1    2    0    0  0.54399984387E+02  0.87878568073E+02  0.18383684024E+03  0.21089807022E+03  0.10566000000E+00 0. -1.
          4    1    1    2  501    0  0.28313038641E+01  0.55817727484E+02 -0.17348067883E+02  0.58520000362E+02  0.00000000000E+00 0.  1.
</event>
<event>
 5    1  0.4866530E-005  0.2235140E+03  0.7818608E-02  0.1045111E+00
         -4   -1    0    0    0  501 -0.00000000000E+00  0.00000000000E+00  0.57306331958E+03  0.57306331958E+03  0.00000000000E+00 0. -1.
         21   -1    0    0  501  502  0.00000000000E+00 -0.00000000000E+00 -0.98338533519E+03  0.98338533519E+03  0.00000000000E+00 0. -1.
        -13    1    1    2    0    0 -0.14471696508E+03  0.16803979822E+03  0.26150732663E+03  0.34287966813E+03  0.10566000000E+00 0.  1.
         13    1    1    2    0    0  0.21093831768E+03 -0.16617939228E+03 -0.91912705598E+03  0.95755162811E+03  0.10566000000E+00 0. -1.
         -4    1    1    2    0  502 -0.66221352601E+02 -0.18604059448E+01  0.24729771374E+03  0.25601735854E+03  0.00000000000E+00 0. -1.
</event>
<event>
 5    1  0.4866530E-005  0.7568728E+02  0.7818608E-02  0.1212550E+00
         21   -1    0    0  501  502  0.00000000000E+00  0.00000000000E+00  0.13960763861E+03  0.13960763861E+03  0.00000000000E+00 0.  1.
         -4   -1    0    0    0  501 -0.00000000000E+00 -0.00000000000E+00 -0.32445768611E+03  0.32445768611E+03  0.00000000000E+00 0. -1.
        -13    1    1    2    0    0  0.68900059730E+02  0.11180422016E+02  0.80362901487E+02  0.10644447927E+03  0.10566000000E+00 0.  1.
         13    1    1    2    0    0 -0.53030699521E+02 -0.55429967175E+02 -0.29309313523E+03  0.30296589484E+03  0.10566000000E+00 0. -1.
         -4    1    1    2    0  502 -0.15869360210E+02  0.44249545159E+02  0.27880186251E+02  0.54654950605E+02  0.00000000000E+00 0. -1.
</event>
<event>
 5    1  0.4866530E-005  0.4511098E+03  0.7818608E-02  0.9695422E-01
         21   -1    0    0  501  502  0.00000000000E+00  0.00000000000E+00  0.42630340872E+03  0.42630340872E+03  0.00000000000E+00 0. -1.
         -4   -1    0    0    0  501 -0.00000000000E+00 -0.00000000000E+00 -0.12130961029E+04  0.12130961029E+04  0.00000000000E+00 0. -1.
        -13    1    1    2    0    0  0.27264473763E+03 -0.15458380516E+03 -0.42772910870E+03  0.53026739233E+03  0.10566000000E+00 0.  1.
         13    1    1    2    0    0 -0.22896917229E+03  0.56071127665E+03 -0.35216896906E+03  0.70060474703E+03  0.10566000000E+00 0. -1.
         -4    1    1    2    0  502 -0.43675565339E+02 -0.40612747150E+03 -0.68946163768E+01  0.40852737221E+03  0.00000000000E+00 0. -1.
</event>
<event>
 5    1  0.4866530E-005  0.3111569E+03  0.7818608E-02  0.1002803E+00
          4   -1    0    0  502    0 -0.00000000000E+00  0.00000000000E+00  0.59540365939E+03  0.59540365939E+03  0.00000000000E+00 0.  1.
         21   -1    0    0  501  502  0.00000000000E+00 -0.00000000000E+00 -0.64314697707E+03  0.64314697707E+03  0.00000000000E+00 0.  1.
        -13    1    1    2    0    0 -0.21901614810E+03 -0.12620345628E+03 -0.48950292623E+03  0.55091606571E+03  0.10566000000E+00 0.  1.
         13    1    1    2    0    0  0.30677237631E+03  0.10766299487E+03  0.10885033547E+03  0.34285422270E+03  0.10566000000E+00 0. -1.
          4    1    1    2  501    0 -0.87756228206E+02  0.18540461411E+02  0.33290927308E+03  0.34478034805E+03  0.00000000000E+00 0.  1.
</event>
<event>
 5    1  0.4866530E-005  0.3960284E+03  0.7818608E-02  0.9983227E-01
         21   -1    0    0  501  502  0.00000000000E+00  0.00000000000E+00  0.16415061289E+03  0.16415061289E+03  0.00000000000E+00 0.  1.
          4   -1    0    0  502    0 -0.00000000000E+00 -0.00000000000E+00 -0.21385061550E+04  0.21385061550E+04  0.00000000000E+00 0.  1.
        -13    1    1    2    0    0  0.38038528039E+03  0.40330770913E+02 -0.24223128706E+03  0.45276433187E+03  0.10566000000E+00 0.  1.
         13    1    1    2    0    0  0.42495395455E+02  0.16951332270E+03 -0.39692966854E+03  0.43369781892E+03  0.10566000000E+00 0. -1.
          4    1    1    2  501    0 -0.42288067584E+03 -0.20984409362E+03 -0.13351945865E+04  0.14161946171E+04  0.00000000000E+00 0.  1.
</event>
<event>
 5    1  0.4866530E-005  0.6329178E+03  0.7818608E-02  0.9226421E-01
         -4   -1    0    0    0  501 -0.00000000000E+00  0.00000000000E+00  0.20484858218E+04  0.20484858218E+04  0.00000000000E+00 0. -1.
         21   -1    0    0  501  502  0.00000000000E+00 -0.00000000000E+00 -0.36694451608E+03  0.36694451608E+03  0.00000000000E+00 0. -1.
        -13    1    1    2    0    0 -0.53783286121E+03  0.17025047868E+03  0.76706670475E+03  0.95217684953E+03  0.10566000000E+00 0.  1.
         13    1    1    2    0    0  0.69325212288E+03 -0.17960478571E+03  0.10403701720E+04  0.12630227595E+04  0.10566000000E+00 0. -1.
         -4    1    1    2    0  502 -0.15541926168E+03  0.93543070324E+01 -0.12589557107E+03  0.20023072885E+03  0.00000000000E+00 0. -1.
</event>
<event>
 5    1  0.4866530E-005  0.8332106E+03  0.7818608E-02  0.8949399E-01
         -4   -1    0    0    0  501 -0.00000000000E+00  0.00000000000E+00  0.36921068529E+04  0.36921068529E+04  0.00000000000E+00 0. -1.
         21   -1    0    0  501  502  0.00000000000E+00 -0.00000000000E+00 -0.55368257076E+03  0.55368257076E+03  0.00000000000E+00 0. -1.
        -13    1    1    2    0    0 -0.15206301597E+03  0.75305075062E+03  0.73822865275E+03  0.10654530251E+04  0.10566000000E+00 0.  1.
         13    1    1    2    0    0 -0.30695527087E+03 -0.84881324791E+03  0.25362666454E+04  0.26920910044E+04  0.10566000000E+00 0. -1.
         -4    1    1    2    0  502  0.45901828684E+03  0.95762497282E+02 -0.13607101599E+03  0.48824539417E+03  0.00000000000E+00 0. -1.
</event>
<event>
 5    1  0.4866530E-005  0.2843449E+03  0.7818608E-02  0.1093265E+00
         -4   -1    0    0    0  501 -0.00000000000E+00  0.00000000000E+00  0.51735754004E+03  0.51735754004E+03  0.00000000000E+00 0. -1.
         21   -1    0    0  501  502  0.00000000000E+00 -0.00000000000E+00 -0.67502238226E+03  0.67502238226E+03  0.00000000000E+00 0. -1.
        -13    1    1    2    0    0  0.25864025100E+02 -0.86341971899E+01  0.12203340031E+03  0.12504262918E+03  0.10566000000E+00 0.  1.
         13    1    1    2    0    0  0.25398170545E+03  0.12420028760E+03 -0.57728929514E+03  0.64280273770E+03  0.10566000000E+00 0. -1.
         -4    1    1    2    0  502 -0.27984573055E+03 -0.11556609041E+03  0.29759105260E+03  0.42453455542E+03  0.00000000000E+00 0. -1.
</event>
<event>
 5    1  0.4866530E-005  0.1413055E+03  0.7818608E-02  0.1110018E+00
         -4   -1    0    0    0  501 -0.00000000000E+00  0.00000000000E+00  0.67501480065E+03  0.67501480065E+03  0.00000000000E+00 0. -1.
         21   -1    0    0  501  502  0.00000000000E+00 -0.00000000000E+00 -0.83000803812E+02  0.83000803812E+02  0.00000000000E+00 0.  1.
        -13    1    1    2    0    0  0.13413247465E+03  0.10894355882E+02  0.15392435166E+02  0.13545163701E+03  0.10566000000E+00 0.  1.
         13    1    1    2    0    0 -0.14231794526E+03  0.64953851362E+00  0.58764021545E+03  0.60462869054E+03  0.10566000000E+00 0. -1.
         -4    1    1    2    0  502  0.81854706137E+01 -0.11543894395E+02 -0.11018653773E+02  0.17935276913E+02  0.00000000000E+00 0. -1.
</event>
<event>
 5    1  0.4866530E-005  0.4744933E+02  0.7818608E-02  0.1302537E+00
         21   -1    0    0  501  502  0.00000000000E+00  0.00000000000E+00  0.60888478549E+02  0.60888478549E+02  0.00000000000E+00 0.  1.
         -4   -1    0    0    0  501 -0.00000000000E+00 -0.00000000000E+00 -0.11960494650E+03  0.11960494650E+03  0.00000000000E+00 0. -1.
        -13    1    1    2    0    0 -0.23354181165E+02  0.50344638991E+02 -0.38551052318E+02  0.67573628376E+02  0.10566000000E+00 0.  1.
         13    1    1    2    0    0  0.27315741505E+02 -0.34273487886E+02 -0.57372401999E+02  0.72197128621E+02  0.10566000000E+00 0. -1.
         -4    1    1    2    0  502 -0.39615603400E+01 -0.16071151104E+02  0.37206986372E+02  0.40722668049E+02  0.00000000000E+00 0. -1.
</event>
<event>
 5    1  0.4866530E-005  0.2147887E+03  0.7818608E-02  0.1050445E+00
         -4   -1    0    0    0  501 -0.00000000000E+00  0.00000000000E+00  0.44950187874E+03  0.44950187874E+03  0.00000000000E+00 0. -1.
         21   -1    0    0  501  502  0.00000000000E+00 -0.00000000000E+00 -0.30201281968E+03  0.30201281968E+03  0.00000000000E+00 0.  1.
        -13    1    1    2    0    0 -0.20141798537E+03 -0.72895040784E+02  0.29855209590E+02  0.21627352243E+03  0.10566000000E+00 0.  1.
         13    1    1    2    0    0  0.18499999502E+03  0.11874570958E+03 -0.14811097925E+03  0.26507058501E+03  0.10566000000E+00 0. -1.
         -4    1    1    2    0  502  0.16417990346E+02 -0.45850668793E+02  0.26574482872E+03  0.27017059097E+03  0.00000000000E+00 0. -1.
</event>
<event>
 5    1  0.4866530E-005  0.5014651E+03  0.7818608E-02  0.9634714E-01
          4   -1    0    0  502    0 -0.00000000000E+00  0.00000000000E+00  0.11249040589E+04  0.11249040589E+04  0.00000000000E+00 0.  1.
         21   -1    0    0  501  502  0.00000000000E+00 -0.00000000000E+00 -0.39106368461E+03  0.39106368461E+03  0.00000000000E+00 0.  1.
        -13    1    1    2    0    0  0.58414403661E+03 -0.35190657975E+02  0.27121049525E+03  0.64499440448E+03  0.10566000000E+00 0.  1.
         13    1    1    2    0    0 -0.19591495504E+03 -0.20328148117E+03  0.17850667666E+03  0.33402196779E+03  0.10566000000E+00 0. -1.
          4    1    1    2  501    0 -0.38822908158E+03  0.23847213914E+03  0.28412320237E+03  0.53695137122E+03  0.00000000000E+00 0.  1.
</event>
<event>
 5    1  0.4866530E-005  0.6354186E+02  0.7818608E-02  0.1255614E+00
         21   -1    0    0  501  502  0.00000000000E+00  0.00000000000E+00  0.38762966256E+02  0.38762966256E+02  0.00000000000E+00 0. -1.
          4   -1    0    0  502    0 -0.00000000000E+00 -0.00000000000E+00 -0.23286290582E+03  0.23286290582E+03  0.00000000000E+00 0.  1.
        -13    1    1    2    0    0 -0.38079453602E+02 -0.26043783471E+02 -0.10015148819E+03  0.11026629220E+03  0.10566000000E+00 0.  1.
         13    1    1    2    0    0  0.11955876567E+02 -0.49174843970E+02 -0.46139841645E+02  0.68483606907E+02  0.10566000000E+00 0. -1.
          4    1    1    2  501    0  0.26123577035E+02  0.75218627441E+02 -0.47808609729E+02  0.92875972972E+02  0.00000000000E+00 0.  1.
</event>
<event>
 5    1  0.4866530E-005  0.4151020E+03  0.7818608E-02  0.9686415E-01
          4   -1    0    0  502    0 -0.00000000000E+00  0.00000000000E+00  0.21784228631E+04  0.21784228631E+04  0.00000000000E+00 0.  1.
         21   -1    0    0  501  502  0.00000000000E+00 -0.00000000000E+00 -0.31038231058E+03  0.31038231058E+03  0.00000000000E+00 0.  1.
        -13    1    1    2    0    0 -0.20067273420E+03 -0.33677721867E+03  0.12543537776E+04  0.13141886668E+04  0.10566000000E+00 0.  1.
         13    1    1    2    0    0  0.55546995190E+02  0.50103505653E+03  0.75934830072E+03  0.91144470459E+03  0.10566000000E+00 0. -1.
          4    1    1    2  501    0  0.14512573901E+03 -0.16425783786E+03 -0.14566152583E+03  0.26317180231E+03  0.00000000000E+00 0.  1.
</event>
<event>
 5    1  0.4866530E-005  0.1029277E+04  0.7818608E-02  0.8747559E-01
         21   -1    0    0  501  502  0.00000000000E+00  0.00000000000E+00  0.10880379558E+04  0.10880379558E+04  0.00000000000E+00 0.  1.
          4   -1    0    0  502    0 -0.00000000000E+00 -0.00000000000E+00 -0.15424226401E+04  0.15424226401E+04  0.00000000000E+00 0.  1.
        -13    1    1    2    0    0 -0.10095629561E+04 -0.38858208248E+03  0.10378410256E+03  0.10867311297E+04  0.10566000000E+00 0.  1.
         13    1    1    2    0    0  0.10221978202E+04  0.35442011429E+02 -0.60331615219E+03  0.11874910149E+04  0.10566000000E+00 0. -1.
          4    1    1    2  501    0 -0.12634864075E+02  0.35314007105E+03  0.45147365384E+02  0.35623845128E+03  0.00000000000E+00 0.  1.
</event>
<event>
 5    1  0.4866530E-005  0.4635435E+02  0.7818608E-02  0.1307388E+00
         -4   -1    0    0    0  501 -0.00000000000E+00  0.00000000000E+00  0.10357821023E+03  0.10357821023E+03  0.00000000000E+00 0. -1.
         21   -1    0    0  501  502  0.00000000000E+00 -0.00000000000E+00 -0.75325445819E+02  0.75325445819E+02  0.00000000000E+00 0.  1.
        -13    1    1    2    0    0 -0.39197013421E+02  0.14728841433E+02 -0.49466521037E+02  0.64809663621E+02  0.10566000000E+00 0.  1.
         13    1    1    2    0    0  0.23169445024E+02 -0.42434820764E+02  0.61446416435E+02  0.78187022278E+02  0.10566000000E+00 0. -1.
         -4    1    1    2    0  502  0.16027568398E+02  0.27705979331E+02  0.16272869012E+02  0.35906970149E+02  0.00000000000E+00 0. -1.
</event>
<event>
 5    1  0.4866530E-005  0.8973400E+02  0.7818608E-02  0.1182758E+00
         21   -1    0    0  501  502  0.00000000000E+00  0.00000000000E+00  0.14756247349E+03  0.14756247349E+03  0.00000000000E+00 0. -1.
         -4   -1    0    0    0  501 -0.00000000000E+00 -0.00000000000E+00 -0.13845643225E+03  0.13845643225E+03  0.00000000000E+00 0. -1.
        -13    1    1    2    0    0  0.69704590368E+01 -0.95722580860E+02 -0.28271062324E+02  0.10005330537E+03  0.10566000000E+00 0.  1.
         13    1    1    2    0    0 -0.12879643992E+02  0.84564784740E+02 -0.49060647580E+02  0.98610579314E+02  0.10566000000E+00 0. -1.
         -4    1    1    2    0  502  0.59091849549E+01  0.11157796120E+02  0.86437751143E+02  0.87355021056E+02  0.00000000000E+00 0. -1.
</event>
<event>
 5    1  0.4866530E-005  0.5627628E+03  0.7818608E-02  0.9414203E-01
         21   -1    0    0  501  502  0.00000000000E+00  0.00000000000E+00  0.44912672076E+03  0.44912672076E+03  0.00000000000E+00 0.  1.
         -4   -1    0    0    0  501 -0.00000000000E+00 -0.00000000000E+00 -0.15923018501E+04  0.15923018501E+04  0.00000000000E+00 0. -1.
        -13    1    1    2    0    0 -0.24783551279E+03 -0.36750536097E+03 -0.48829465065E+03  0.65948033235E+03  0.10566000000E+00 0.  1.
         13    1    1    2    0    0 -0.65843549499E+02  0.69700946217E+03 -0.17698530539E+03  0.72213667186E+03  0.10566000000E+00 0. -1.
         -4    1    1    2    0  502  0.31367906229E+03 -0.32950410119E+03 -0.47789517334E+03  0.65981156668E+03  0.00000000000E+00 0. -1.
</event>
<event>
 5    1  0.4866530E-005  0.1343900E+02  0.7818608E-02  0.1648810E+00
         -4   -1    0    0    0  501 -0.00000000000E+00  0.00000000000E+00  0.71004116131E+02  0.71004116131E+02  0.00000000000E+00 0. -1.
         21   -1    0    0  501  502  0.00000000000E+00 -0.00000000000E+00 -0.12738724262E+03  0.12738724262E+03  0.00000000000E+00 0. -1.
        -13    1    1    2    0    0  0.13193847103E+02 -0.15396065442E+02 -0.29628965142E+01  0.20491616633E+02  0.10566000000E+00 0.  1.
         13    1    1    2    0    0 -0.10091914994E+02  0.23199477517E+01  0.61414421263E+02  0.62281387339E+02  0.10566000000E+00 0. -1.
         -4    1    1    2    0  502 -0.31019321092E+01  0.13076117690E+02 -0.11483465124E+03  0.11561835478E+03  0.00000000000E+00 0. -1.
</event>
<event>
 5    1  0.4866530E-005  0.5282284E+03  0.7818608E-02  0.9418158E-01
         -4   -1    0    0    0  501 -0.00000000000E+00  0.00000000000E+00  0.20749829610E+04  0.20749829610E+04  0.00000000000E+00 0. -1.
         21   -1    0    0  501  502  0.00000000000E+00 -0.00000000000E+00 -0.91987215167E+03  0.91987215167E+03  0.00000000000E+00 0. -1.
        -13    1    1    2    0    0 -0.51346677472E+03  0.40548718841E+02  0.16758217972E+04  0.17531888188E+04  0.10566000000E+00 0.  1.
         13    1    1    2    0    0  0.78487472052E+03 -0.67776813296E+02 -0.55934683163E+03  0.96617333463E+03  0.10566000000E+00 0. -1.
         -4    1    1    2    0  502 -0.27140794580E+03  0.27228094455E+02  0.38635843801E+02  0.27549295925E+03  0.00000000000E+00 0. -1.
</event>
<event>
 5    1  0.4866530E-005  0.6389274E+02  0.7818608E-02  0.1243725E+00
         -4   -1    0    0    0  501 -0.00000000000E+00  0.00000000000E+00  0.22156695249E+03  0.22156695249E+03  0.00000000000E+00 0. -1.
         21   -1    0    0  501  502  0.00000000000E+00 -0.00000000000E+00 -0.38791708779E+02  0.38791708779E+02  0.00000000000E+00 0.  1.
        -13    1    1    2    0    0 -0.38243295646E+01 -0.46217376963E+02  0.12680075769E+02  0.48077717453E+02  0.10566000000E+00 0.  1.
         13    1    1    2    0    0 -0.11900973053E+02  0.70563631126E+02  0.16871627002E+03  0.18326497246E+03  0.10566000000E+00 0. -1.
         -4    1    1    2    0  502  0.15725302617E+02 -0.24346254163E+02  0.13788979205E+01  0.29015971355E+02  0.00000000000E+00 0. -1.
</event>
<event>
 5    1  0.4866530E-005  0.9208040E+02  0.7818608E-02  0.1178368E+00
         -4   -1    0    0    0  501 -0.00000000000E+00  0.00000000000E+00  0.19198879243E+03  0.19198879243E+03  0.00000000000E+00 0. -1.
         21   -1    0    0  501  502  0.00000000000E+00 -0.00000000000E+00 -0.18960916275E+03  0.18960916275E+03  0.00000000000E+00 0. -1.
        -13    1    1    2    0    0  0.69811490741E+02 -0.43312267924E+02  0.34111606636E+02  0.88956223298E+02  0.10566000000E+00 0.  1.
         13    1    1    2    0    0 -0.10197338169E+03  0.14315786523E+02  0.10628757731E+03  0.14798842040E+03  0.10566000000E+00 0. -1.
         -4    1    1    2    0  502  0.32161890950E+02  0.28996481401E+02 -0.13801955426E+03  0.14465331148E+03  0.00000000000E+00 0. -1.
</event>
<event>
 5    1  0.4866530E-005  0.4390194E+03  0.7818608E-02  0.9920530E-01
         21   -1    0    0  501  502  0.00000000000E+00  0.00000000000E+00  0.12794235294E+04  0.12794235294E+04  0.00000000000E+00 0.  1.
          4   -1    0    0  502    0 -0.00000000000E+00 -0.00000000000E+00 -0.33013351180E+03  0.33013351180E+03  0.00000000000E+00 0.  1.
        -13    1    1    2    0    0 -0.27708172842E+03  0.28810644762E+03  0.58092828643E+03  0.70516472864E+03  0.10566000000E+00 0.  1.
         13    1    1    2    0    0  0.12370330560E+02  0.15738328918E+03 -0.11534410565E+03  0.19551674779E+03  0.10566000000E+00 0. -1.
          4    1    1    2  501    0  0.26471139786E+03 -0.44548973680E+03  0.48370583686E+03  0.70887556479E+03  0.00000000000E+00 0.  1.
</event>
<event>
 5    1  0.4866530E-005  0.1144851E+03  0.7818608E-02  0.1146243E+00
         21   -1    0    0  501  502  0.00000000000E+00  0.00000000000E+00  0.64658258346E+03  0.64658258346E+03  0.00000000000E+00 0.  1.
          4   -1    0    0  502    0 -0.00000000000E+00 -0.00000000000E+00 -0.51348448915E+03  0.51348448915E+03  0.00000000000E+00 0.  1.
        -13    1    1    2    0    0  0.10916422522E+03 -0.96539321856E+01  0.56695682053E+03  0.57745136071E+03  0.10566000000E+00 0.  1.
         13    1    1    2    0    0 -0.30292721782E+02 -0.11594865539E+03  0.44205497371E+01  0.11992202510E+03  0.10566000000E+00 0. -1.
          4    1    1    2  501    0 -0.78871503440E+02  0.12560258758E+03 -0.43827927597E+03  0.46269368680E+03  0.00000000000E+00 0.  1.
</event>
<event>
 5    1  0.4866530E-005  0.4924227E+03  0.7818608E-02  0.9505398E-01
         21   -1    0    0  501  502  0.00000000000E+00  0.00000000000E+00  0.83648732776E+03  0.83648732776E+03  0.00000000000E+00 0. -1.
         -4   -1    0    0    0  501 -0.00000000000E+00 -0.00000000000E+00 -0.78120259973E+03  0.78120259973E+03  0.00000000000E+00 0. -1.
        -13    1    1    2    0    0  0.47364744281E+03 -0.78216593929E+01 -0.42606190847E+02  0.47562419734E+03  0.10566000000E+00 0.  1.
         13    1    1    2    0    0 -0.92184895932E+02  0.44705361973E+03 -0.18824344846E+03  0.49375155798E+03  0.10566000000E+00 0. -1.
         -4    1    1    2    0  502 -0.38146254688E+03 -0.43923196034E+03  0.28613436735E+03  0.64831417217E+03  0.00000000000E+00 0. -1.
</event>
<event>
 5    1  0.4866530E-005  0.4717043E+03  0.7818608E-02  0.9981583E-01
          4   -1    0    0  502    0 -0.00000000000E+00  0.00000000000E+00  0.34250226513E+03  0.34250226513E+03  0.00000000000E+00 0.  1.
         21   -1    0    0  501  502  0.00000000000E+00 -0.00000000000E+00 -0.90432773497E+03  0.90432773497E+03  0.00000000000E+00 0.  1.
        -13    1    1    2    0    0 -0.32099804631E+03 -0.42917694913E+03 -0.14445308382E+03  0.55506693649E+03  0.10566000000E+00 0.  1.
         13    1    1    2    0    0  0.27901059961E+02  0.10016850848E+03 -0.39276911761E+02  0.11115253574E+03  0.10566000000E+00 0. -1.
          4    1    1    2  501    0  0.29309698635E+03  0.32900844064E+03 -0.37809547425E+03  0.58061052787E+03  0.00000000000E+00 0.  1.
</event>
<event>
 5    1  0.4866530E-005  0.2371991E+02  0.7818608E-02  0.1483933E+00
         21   -1    0    0  501  502  0.00000000000E+00  0.00000000000E+00  0.47325063991E+02  0.47325063991E+02  0.00000000000E+00 0. -1.
         -4   -1    0    0    0  501 -0.00000000000E+00 -0.00000000000E+00 -0.14210282907E+03  0.14210282907E+03  0.00000000000E+00 0. -1.
        -13    1    1    2    0    0 -0.11374616353E+02  0.13322241543E+02  0.33795438097E+02  0.38065822165E+02  0.10566000000E+00 0.  1.
         13    1    1    2    0    0 -0.12703761134E+01 -0.32707905405E+02 -0.12337096646E+03  0.12763944320E+03  0.10566000000E+00 0. -1.
         -4    1    1    2    0  502  0.12644992466E+02  0.19385663862E+02 -0.52022367145E+01  0.23722627693E+02  0.00000000000E+00 0. -1.
</event>
<event>
 5    1  0.4866530E-005  0.3813395E+03  0.7818608E-02  0.1036921E+00
         -4   -1    0    0    0  501 -0.00000000000E+00  0.00000000000E+00  0.29343027590E+03  0.29343027590E+03  0.00000000000E+00 0. -1.
         21   -1    0    0  501  502  0.00000000000E+00 -0.00000000000E+00 -0.10062374212E+04  0.10062374212E+04  0.00000000000E+00 0. -1.
        -13    1    1    2    0    0 -0.54616262629E+02  0.18473582652E+02  0.28192264479E+02  0.64179625584E+02  0.10566000000E+00 0.  1.
         13    1    1    2    0    0  0.27867178589E+03  0.26722208603E+03 -0.78000017019E+03  0.87032516003E+03  0.10566000000E+00 0. -1.
         -4    1    1    2    0  502 -0.22405552326E+03 -0.28569566869E+03  0.39000760423E+02  0.36516291148E+03  0.00000000000E+00 0. -1.
</event>
<event>
 5    1  0.4866530E-005  0.5084120E+03  0.7818608E-02  0.9823717E-01
         21   -1    0    0  501  502  0.00000000000E+00  0.00000000000E+00  0.26313556526E+03  0.26313556526E+03  0.00000000000E+00 0. -1.
         -4   -1    0    0    0  501 -0.00000000000E+00 -0.00000000000E+00 -0.16850270350E+04  0.16850270350E+04  0.00000000000E+00 0. -1.
        -13    1    1    2    0    0  0.13965122260E+03  0.17843755080E+02 -0.61787671028E+03  0.63371326627E+03  0.10566000000E+00 0.  1.
         13    1    1    2    0    0 -0.17231653323E+03  0.48804037505E+03 -0.29348740832E+03  0.59498845813E+03  0.10566000000E+00 0. -1.
         -4    1    1    2    0  502  0.32665310637E+02 -0.50588413014E+03 -0.51052735116E+03  0.71946087588E+03  0.00000000000E+00 0. -1.
</event>
<event>
 5    1  0.4866530E-005  0.3235886E+03  0.7818608E-02  0.9980179E-01
         21   -1    0    0  501  502  0.00000000000E+00  0.00000000000E+00  0.25639145550E+03  0.25639145550E+03  0.00000000000E+00 0.  1.
          4   -1    0    0  502    0 -0.00000000000E+00 -0.00000000000E+00 -0.17737266351E+04  0.17737266351E+04  0.00000000000E+00 0.  1.
        -13    1    1    2    0    0 -0.37484565958E+02  0.54911065855E+03 -0.18278368897E+03  0.57994611485E+03  0.10566000000E+00 0.  1.
         13    1    1    2    0    0  0.74916551218E+01 -0.28189145889E+03 -0.50849581310E+03  0.58145242505E+03  0.10566000000E+00 0. -1.
          4    1    1    2  501    0  0.29992910837E+02 -0.26721919966E+03 -0.82605567753E+03  0.86871955069E+03  0.00000000000E+00 0.  1.
</event>
<event>
 5    1  0.4866530E-005  0.4804720E+03  0.7818608E-02  0.9654770E-01
         21   -1    0    0  501  502  0.00000000000E+00  0.00000000000E+00  0.36090373749E+03  0.36090373749E+03  0.00000000000E+00 0. -1.
         -4   -1    0    0    0  501 -0.00000000000E+00 -0.00000000000E+00 -0.12702827126E+04  0.12702827126E+04  0.00000000000E+00 0. -1.
        -13    1    1    2    0    0  0.27456705606E+03 -0.11855638335E+03 -0.15454362575E+03  0.33663990810E+03  0.10566000000E+00 0.  1.
         13    1    1    2    0    0 -0.40129068643E+03 -0.34865363768E+03 -0.56164633015E+03  0.77333057964E+03  0.10566000000E+00 0. -1.
         -4    1    1    2    0  502  0.12672363037E+03  0.46721002102E+03 -0.19318901920E+03  0.52121596232E+03  0.00000000000E+00 0. -1.
</event>
<event>
 5    1  0.4866530E-005  0.4822660E+03  0.7818608E-02  0.9609721E-01
         21   -1    0    0  501  502  0.00000000000E+00  0.00000000000E+00  0.85959420718E+03  0.85959420718E+03  0.00000000000E+00 0.  1.
          4   -1    0    0  502    0 -0.00000000000E+00 -0.00000000000E+00 -0.87479558415E+03  0.87479558415E+03  0.00000000000E+00 0.  1.
        -13    1    1    2    0    0  0.19077448640E+03 -0.49032375553E+03  0.46903181686E+02  0.52821606329E+03  0.10566000000E+00 0.  1.
         13    1    1    2    0    0 -0.34646274881E+03  0.14537583153E+02 -0.45338262630E+03  0.57079207653E+03  0.10566000000E+00 0. -1.
          4    1    1    2  501    0  0.15568826240E+03  0.47578617238E+03  0.39127806764E+03  0.63538165152E+03  0.00000000000E+00 0.  1.
</event>
<event>
 5    1  0.4866530E-005  0.3384492E+03  0.7818608E-02  0.9925906E-01
         21   -1    0    0  501  502  0.00000000000E+00  0.00000000000E+00  0.27587654432E+03  0.27587654432E+03  0.00000000000E+00 0.  1.
         -4   -1    0    0    0  501 -0.00000000000E+00 -0.00000000000E+00 -0.67864329007E+03  0.67864329007E+03  0.00000000000E+00 0. -1.
        -13    1    1    2    0    0  0.89708943277E+02  0.27781781955E+03 -0.12022888740E+03  0.31572999840E+03  0.10566000000E+00 0.  1.
         13    1    1    2    0    0 -0.12628382478E+03 -0.35489192397E+03 -0.36183043224E+03  0.52231901646E+03  0.10566000000E+00 0. -1.
         -4    1    1    2    0  502  0.36574881498E+02  0.77074104424E+02  0.79292573885E+02  0.11647081953E+03  0.00000000000E+00 0. -1.
</event>
<event>
 5    1  0.4866530E-005  0.2953382E+03  0.7818608E-02  0.1019916E+00
          4   -1    0    0  502    0 -0.00000000000E+00  0.00000000000E+00  0.64353137690E+03  0.64353137690E+03  0.00000000000E+00 0.  1.
         21   -1    0    0  501  502  0.00000000000E+00 -0.00000000000E+00 -0.62324018667E+03  0.62324018667E+03  0.00000000000E+00 0.  1.
        -13    1    1    2    0    0  0.30012357655E+03 -0.15881634046E+02 -0.45378349300E+03  0.54428472069E+03  0.10566000000E+00 0.  1.
         13    1    1    2    0    0 -0.72427006042E+02 -0.19739419500E+03  0.92778816998E+02  0.22982179939E+03  0.10566000000E+00 0. -1.
          4    1    1    2  501    0 -0.22769657050E+03  0.21327582905E+03  0.38129586623E+03  0.49266504349E+03  0.00000000000E+00 0.  1.
</event>
<event>
 5    1  0.4866530E-005  0.9998881E+02  0.7818608E-02  0.1164574E+00
         21   -1    0    0  501  502  0.00000000000E+00  0.00000000000E+00  0.13024447601E+03  0.13024447601E+03  0.00000000000E+00 0. -1.
          4   -1    0    0  502    0 -0.00000000000E+00 -0.00000000000E+00 -0.17561979914E+03  0.17561979914E+03  0.00000000000E+00 0.  1.
        -13    1    1    2    0    0  0.51547151015E+02 -0.87063433715E+02 -0.13386595544E+03  0.16780123795E+03  0.10566000000E+00 0.  1.
         13    1    1    2    0    0 -0.53673498528E+02  0.76725711912E+02  0.70514719245E+02  0.11721781480E+03  0.10566000000E+00 0. -1.
          4    1    1    2  501    0  0.21263475132E+01  0.10337721803E+02  0.17975913075E+02  0.20845222395E+02  0.00000000000E+00 0.  1.
</event>
<event>
 5    1  0.4866530E-005  0.1707417E+03  0.7818608E-02  0.1082282E+00
         21   -1    0    0  501  502  0.00000000000E+00  0.00000000000E+00  0.54725730576E+02  0.54725730576E+02  0.00000000000E+00 0. -1.
          4   -1    0    0  502    0 -0.00000000000E+00 -0.00000000000E+00 -0.11733131534E+04  0.11733131534E+04  0.00000000000E+00 0.  1.
        -13    1    1    2    0    0  0.16701924243E+03 -0.42583758244E+02 -0.10002169515E+04  0.10149594893E+04  0.10566000000E+00 0.  1.
         13    1    1    2    0    0 -0.15484463755E+03  0.47012129700E+02 -0.11771181538E+03  0.20010768292E+03  0.10566000000E+00 0. -1.
          4    1    1    2  501    0 -0.12174604883E+02 -0.44283714560E+01 -0.65865597912E+00  0.12971711741E+02  0.00000000000E+00 0.  1.
</event>
<event>
 5    1  0.4866530E-005  0.2891670E+03  0.7818608E-02  0.1011880E+00
         21   -1    0    0  501  502  0.00000000000E+00  0.00000000000E+00  0.90181157303E+02  0.90181157303E+02  0.00000000000E+00 0. -1.
          4   -1    0    0  502    0 -0.00000000000E+00 -0.00000000000E+00 -0.20188692381E+04  0.20188692381E+04  0.00000000000E+00 0.  1.
        -13    1    1    2    0    0  0.15813337591E+03 -0.24248670559E+03 -0.16643722432E+04  0.16893611047E+04  0.10566000000E+00 0.  1.
         13    1    1    2    0    0 -0.17600468992E+03  0.22832738499E+03 -0.27127013039E+03  0.39585166466E+03  0.10566000000E+00 0. -1.
          4    1    1    2  501    0  0.17871314009E+02  0.14159320601E+02  0.69542928403E+01  0.23837625997E+02  0.00000000000E+00 0.  1.
</event>
<event>
 5    1  0.4866530E-005  0.5277529E+02  0.7818608E-02  0.1331388E+00
         -4   -1    0    0    0  501 -0.00000000000E+00  0.00000000000E+00  0.16390655332E+03  0.16390655332E+03  0.00000000000E+00 0. -1.
         21   -1    0    0  501  502  0.00000000000E+00 -0.00000000000E+00 -0.63313717234E+02  0.63313717234E+02  0.00000000000E+00 0. -1.
        -13    1    1    2    0    0  0.45446194454E+00  0.19983604226E+02  0.10336465880E+03  0.10527969807E+03  0.10566000000E+00 0.  1.
         13    1    1    2    0    0  0.51090753985E+01 -0.57719139497E+02 -0.38587567796E+02  0.69617621822E+02  0.10566000000E+00 0. -1.
         -4    1    1    2    0  502 -0.55635373430E+01  0.37735535271E+02  0.35815745082E+02  0.52322950659E+02  0.00000000000E+00 0. -1.
</event>
<event>
 5    1  0.4866530E-005  0.4608281E+03  0.7818608E-02  0.9877336E-01
         21   -1    0    0  501  502  0.00000000000E+00  0.00000000000E+00  0.67405338675E+03  0.67405338675E+03  0.00000000000E+00 0.  1.
          4   -1    0    0  502    0 -0.00000000000E+00 -0.00000000000E+00 -0.64903789425E+03  0.64903789425E+03  0.00000000000E+00 0.  1.
        -13    1    1    2    0    0  0.30890922524E+03  0.18105753052E+03 -0.16824939605E+03  0.39561927308E+03  0.10566000000E+00 0.  1.
         13    1    1    2    0    0  0.89364560949E+02  0.12996611539E+03 -0.22274449149E+03  0.27293284074E+03  0.10566000000E+00 0. -1.
          4    1    1    2  501    0 -0.39827378619E+03 -0.31102364591E+03  0.41600938005E+03  0.65453916718E+03  0.00000000000E+00 0.  1.
</event>
<event>
 5    1  0.4866530E-005  0.4596769E+03  0.7818608E-02  0.9745055E-01
         -4   -1    0    0    0  501 -0.00000000000E+00  0.00000000000E+00  0.89547707525E+03  0.89547707525E+03  0.00000000000E+00 0. -1.
         21   -1    0    0  501  502  0.00000000000E+00 -0.00000000000E+00 -0.57817293475E+03  0.57817293475E+03  0.00000000000E+00 0. -1.
        -13    1    1    2    0    0 -0.24936699814E+03  0.14397191943E+01  0.36743797991E+03  0.44406829745E+03  0.10566000000E+00 0.  1.
         13    1    1    2    0    0  0.63274515055E+03  0.49482945379E+01  0.45518158445E+02  0.63439957840E+03  0.10566000000E+00 0. -1.
         -4    1    1    2    0  502 -0.38337815240E+03 -0.63880137322E+01 -0.95651997855E+02  0.39518213415E+03  0.00000000000E+00 0. -1.
</event>
<event>
 5    1  0.4866530E-005  0.2271770E+03  0.7818608E-02  0.1042949E+00
         -4   -1    0    0    0  501 -0.00000000000E+00  0.00000000000E+00  0.12493768771E+04  0.12493768771E+04  0.00000000000E+00 0. -1.
         21   -1    0    0  501  502  0.00000000000E+00 -0.00000000000E+00 -0.51128349736E+03  0.51128349736E+03  0.00000000000E+00 0. -1.
        -13    1    1    2    0    0 -0.16276102319E+03 -0.13741036203E+03  0.71312311979E+03  0.74425624177E+03  0.10566000000E+00 0.  1.
         13    1    1    2    0    0  0.21601954870E+03  0.14018315447E+03  0.48721952970E+03  0.55108859859E+03  0.10566000000E+00 0. -1.
         -4    1    1    2    0  502 -0.53258525508E+02 -0.27727924331E+01 -0.46224926974E+03  0.46531553411E+03  0.00000000000E+00 0. -1.
</event>
<event>
 5    1  0.4866530E-005  0.4083008E+03  0.7818608E-02  0.9705374E-01
          4   -1    0    0  502    0 -0.00000000000E+00  0.00000000000E+00  0.19354976729E+04  0.19354976729E+04  0.00000000000E+00 0.  1.
         21   -1    0    0  501  502  0.00000000000E+00 -0.00000000000E+00 -0.10597308506E+03  0.10597308506E+03  0.00000000000E+00 0. -1.
        -13    1    1    2    0    0 -0.36443049880E+03 -0.19303139333E+03  0.10067940349E+04  0.10879820528E+04  0.10566000000E+00 0.  1.
         13    1    1    2    0    0  0.35185347190E+03  0.19798075196E+03  0.83974703348E+03  0.93175765907E+03  0.10566000000E+00 0. -1.
          4    1    1    2  501    0  0.12577026902E+02 -0.49493586282E+01 -0.17016480530E+02  0.21731046135E+02  0.00000000000E+00 0.  1.
</event>
<event>
 5    1  0.4866530E-005  0.1869200E+03  0.7818608E-02  0.1069493E+00
         -4   -1    0    0    0  501 -0.00000000000E+00  0.00000000000E+00  0.10990030375E+03  0.10990030375E+03  0.00000000000E+00 0. -1.
         21   -1    0    0  501  502  0.00000000000E+00 -0.00000000000E+00 -0.41853891605E+03  0.41853891605E+03  0.00000000000E+00 0.  1.
        -13    1    1    2    0    0  0.35412091543E+02 -0.18398331742E+03 -0.12807797470E+03  0.22695342272E+03  0.10566000000E+00 0.  1.
         13    1    1    2    0    0 -0.13011763124E+02  0.18671865742E+03 -0.89126955644E+02  0.20730843783E+03  0.10566000000E+00 0. -1.
         -4    1    1    2    0  502 -0.22400328418E+02 -0.27353400017E+01 -0.91433681956E+02  0.94177359244E+02  0.00000000000E+00 0. -1.
</event>
<event>
 5    1  0.4866530E-005  0.2466059E+03  0.7818608E-02  0.1032167E+00
          4   -1    0    0  502    0 -0.00000000000E+00  0.00000000000E+00  0.42999713379E+03  0.42999713379E+03  0.00000000000E+00 0.  1.
         21   -1    0    0  501  502  0.00000000000E+00 -0.00000000000E+00 -0.32710807887E+03  0.32710807887E+03  0.00000000000E+00 0. -1.
        -13    1    1    2    0    0  0.19642650647E+03  0.13133779128E+03  0.12607079374E+03  0.26781867758E+03  0.10566000000E+00 0.  1.
         13    1    1    2    0    0 -0.20835793055E+03 -0.15050784606E+03  0.16128406993E+03  0.30344390145E+03  0.10566000000E+00 0. -1.
          4    1    1    2  501    0  0.11931424080E+02  0.19170054775E+02 -0.18446580875E+03  0.18584263364E+03  0.00000000000E+00 0.  1.
</event>
<event>
 5    1  0.4866530E-005  0.1464893E+03  0.7818608E-02  0.1137859E+00
         21   -1    0    0  501  502  0.00000000000E+00  0.00000000000E+00  0.49617664915E+02  0.49617664915E+02  0.00000000000E+00 0. -1.
         -4   -1    0    0    0  501 -0.00000000000E+00 -0.00000000000E+00 -0.65757687057E+03  0.65757687057E+03  0.00000000000E+00 0. -1.
        -13    1    1    2    0    0  0.13892774355E+02 -0.59984115924E+02 -0.10356463507E+03  0.12048546860E+03  0.10566000000E+00 0.  1.
         13    1    1    2    0    0  0.13921873331E+03  0.30816014569E+02 -0.26765641279E+03  0.30326794907E+03  0.10566000000E+00 0. -1.
         -4    1    1    2    0  502 -0.15311150766E+03  0.29168101355E+02 -0.23673815780E+03  0.28344111782E+03  0.00000000000E+00 0. -1.
</event>
<event>
 5    1  0.4866530E-005  0.4938395E+02  0.7818608E-02  0.1294317E+00
          4   -1    0    0  502    0 -0.00000000000E+00  0.00000000000E+00  0.86014094140E+02  0.86014094140E+02  0.00000000000E+00 0.  1.
         21   -1    0    0  501  502  0.00000000000E+00 -0.00000000000E+00 -0.12605544562E+03  0.12605544562E+03  0.00000000000E+00 0.  1.
        -13    1    1    2    0    0 -0.40848295180E+02  0.33056845145E+02  0.67969794439E+02  0.85914156867E+02  0.10566000000E+00 0.  1.
         13    1    1    2    0    0  0.29303892289E+02 -0.20327407941E+02 -0.31011633409E+02  0.47261550838E+02  0.10566000000E+00 0. -1.
          4    1    1    2  501    0  0.11544402892E+02 -0.12729437204E+02 -0.76999512511E+02  0.78893832057E+02  0.00000000000E+00 0.  1.
</event>
<event>
 5    1  0.4866530E-005  0.5047542E+03  0.7818608E-02  0.1016065E+00
         21   -1    0    0  501  502  0.00000000000E+00  0.00000000000E+00  0.13130160863E+04  0.13130160863E+04  0.00000000000E+00 0.  1.
          4   -1    0    0  502    0 -0.00000000000E+00 -0.00000000000E+00 -0.26001294401E+03  0.26001294401E+03  0.00000000000E+00 0.  1.
        -13    1    1    2    0    0  0.43415198612E+03 -0.28027878002E+03  0.45904307156E+03  0.69120524759E+03  0.10566000000E+00 0.  1.
         13    1    1    2    0    0  0.46247082882E+01  0.47351888374E+02 -0.49670143378E+02  0.68780255645E+02  0.10566000000E+00 0. -1.
          4    1    1    2  501    0 -0.43877669441E+03  0.23292689165E+03  0.64363021406E+03  0.81304352704E+03  0.00000000000E+00 0.  1.
</event>
<event>
 5    1  0.9708358E-005  0.3030655E+03  0.7818608E-02  0.1040752E+00
         -4   -1    0    0    0  501 -0.00000000000E+00  0.00000000000E+00  0.34260516602E+03  0.34260516602E+03  0.00000000000E+00 0. -1.
         21   -1    0    0  501  502  0.00000000000E+00 -0.00000000000E+00 -0.98668742003E+03  0.98668742003E+03  0.00000000000E+00 0. -1.
        -13    1    1    2    0    0  0.16370403169E+02  0.10092942267E+03  0.44801457391E+02  0.11163297098E+03  0.10566000000E+00 0.  1.
         13    1    1    2    0    0 -0.37647403943E+02  0.21161932067E+03  0.18858563566E+03  0.28594512943E+03  0.10566000000E+00 0. -1.
         -4    1    1    2    0  502  0.21277000774E+02 -0.31254874334E+03 -0.87746934706E+03  0.93171448564E+03  0.00000000000E+00 0. -1.
</event>
<event>
 5    1  0.4866530E-005  0.9904018E+02  0.7818608E-02  0.1166236E+00
          4   -1    0    0  502    0 -0.00000000000E+00  0.00000000000E+00  0.51134733673E+03  0.51134733673E+03  0.00000000000E+00 0.  1.
         21   -1    0    0  501  502  0.00000000000E+00 -0.00000000000E+00 -0.50467215454E+02  0.50467215454E+02  0.00000000000E+00 0.  1.
        -13    1    1    2    0    0  0.23666643765E+01  0.86684244576E+02  0.18201623071E+03  0.20161765490E+03  0.10566000000E+00 0.  1.
         13    1    1    2    0    0 -0.99123867992E+02 -0.17322338487E+01  0.12623728234E+03  0.16051294171E+03  0.10566000000E+00 0. -1.
          4    1    1    2  501    0  0.96757203616E+02 -0.84952010727E+02  0.15262660822E+03  0.19968395558E+03  0.00000000000E+00 0.  1.
</event>
<event>
 5    1  0.4866530E-005  0.4196693E+03  0.7818608E-02  0.9889667E-01
          4   -1    0    0  502    0 -0.00000000000E+00  0.00000000000E+00  0.31624602664E+04  0.31624602664E+04  0.00000000000E+00 0.  1.
         21   -1    0    0  501  502  0.00000000000E+00 -0.00000000000E+00 -0.10073818896E+03  0.10073818896E+03  0.00000000000E+00 0.  1.
        -13    1    1    2    0    0 -0.19457745092E+03  0.39045835370E+03  0.73085192554E+03  0.85115372208E+03  0.10566000000E+00 0.  1.
         13    1    1    2    0    0 -0.14189007486E+03 -0.14146708355E+03  0.83623106722E+03  0.85990007444E+03  0.10566000000E+00 0. -1.
          4    1    1    2  501    0  0.33646752578E+03 -0.24899127015E+03  0.14946390846E+04  0.15521446588E+04  0.00000000000E+00 0.  1.
</event>
<event>
 5    1  0.4866530E-005  0.3734852E+03  0.7818608E-02  0.9808908E-01
         21   -1    0    0  501  502  0.00000000000E+00  0.00000000000E+00  0.73317784622E+02  0.73317784622E+02  0.00000000000E+00 0.  1.
         -4   -1    0    0    0  501 -0.00000000000E+00 -0.00000000000E+00 -0.31580536828E+04  0.31580536828E+04  0.00000000000E+00 0. -1.
        -13    1    1    2    0    0 -0.24447018428E+03 -0.28752973730E+03 -0.16875038762E+04  0.17291929806E+04  0.10566000000E+00 0.  1.
         13    1    1    2    0    0  0.31276735358E+03  0.20961190605E+03 -0.13208218563E+04  0.13734376418E+04  0.10566000000E+00 0. -1.
         -4    1    1    2    0  502 -0.68297169294E+02  0.77917831250E+02 -0.76410165683E+02  0.12874084503E+03  0.00000000000E+00 0. -1.
</event>
<event>
 5    1  0.4866530E-005  0.4936257E+03  0.7818608E-02  0.1006653E+00
         -4   -1    0    0    0  501 -0.00000000000E+00  0.00000000000E+00  0.18317478788E+04  0.18317478788E+04  0.00000000000E+00 0. -1.
         21   -1    0    0  501  502  0.00000000000E+00 -0.00000000000E+00 -0.17544845300E+03  0.17544845300E+03  0.00000000000E+00 0. -1.
        -13    1    1    2    0    0 -0.67825647391E+02 -0.11406473695E+02  0.39618562692E+03  0.40211128836E+03  0.10566000000E+00 0.  1.
         13    1    1    2    0    0  0.37044901839E+03 -0.35291204580E+03  0.54668299951E+03  0.74876010873E+03  0.10566000000E+00 0. -1.
         -4    1    1    2    0  502 -0.30262337100E+03  0.36431851950E+03  0.71343079940E+03  0.85632493474E+03  0.00000000000E+00 0. -1.
</event>
<event>
 5    1  0.4866530E-005  0.4377953E+03  0.7818608E-02  0.9924753E-01
         -4   -1    0    0    0  501 -0.00000000000E+00  0.00000000000E+00  0.51930578752E+03  0.51930578752E+03  0.00000000000E+00 0. -1.
         21   -1    0    0  501  502  0.00000000000E+00 -0.00000000000E+00 -0.66167191262E+03  0.66167191262E+03  0.00000000000E+00 0. -1.
        -13    1    1    2    0    0  0.15521795026E+03 -0.23412717897E+02 -0.17832138637E+02  0.15798342879E+03  0.10566000000E+00 0.  1.
         13    1    1    2    0    0 -0.55316120464E+03  0.71662402220E+01  0.10533073313E+03  0.56314584951E+03  0.10566000000E+00 0. -1.
         -4    1    1    2    0  502  0.39794325438E+03  0.16246477675E+02 -0.22986471960E+03  0.45984842183E+03  0.00000000000E+00 0. -1.
</event>
<event>
 5    1  0.4866530E-005  0.2175290E+03  0.7818608E-02  0.1048741E+00
          4   -1    0    0  502    0 -0.00000000000E+00  0.00000000000E+00  0.12838532361E+04  0.12838532361E+04  0.00000000000E+00 0.  1.
         21   -1    0    0  501  502  0.00000000000E+00 -0.00000000000E+00 -0.11309786366E+03  0.11309786366E+03  0.00000000000E+00 0. -1.
        -13    1    1    2    0    0 -0.78982952486E+02  0.20805810111E+03  0.94805227561E+03  0.97382216481E+03  0.10566000000E+00 0.  1.
         13    1    1    2    0    0 -0.53974761824E+02 -0.21901914953E+03  0.12619047355E+03  0.25846993936E+03  0.10566000000E+00 0. -1.
          4    1    1    2  501    0  0.13295771431E+03  0.10961048423E+02  0.96512623270E+02  0.16465899559E+03  0.00000000000E+00 0.  1.
</event>
<event>
 5    1  0.4866530E-005  0.2708733E+03  0.7818608E-02  0.1020110E+00
          4   -1    0    0  502    0 -0.00000000000E+00  0.00000000000E+00  0.15979717997E+04  0.15979717997E+04  0.00000000000E+00 0.  1.
         21   -1    0    0  501  502  0.00000000000E+00 -0.00000000000E+00 -0.62427394163E+02  0.62427394163E+02  0.00000000000E+00 0. -1.
        -13    1    1    2    0    0 -0.20660509821E+03  0.17213616043E+03  0.10299437703E+04  0.10644720314E+04  0.10566000000E+00 0.  1.
         13    1    1    2    0    0  0.19776249425E+03 -0.19162154703E+03  0.50418363962E+03  0.57448235398E+03  0.10566000000E+00 0. -1.
          4    1    1    2  501    0  0.88426039629E+01  0.19485386597E+02  0.14169955795E+01  0.21444808513E+02  0.00000000000E+00 0.  1.
</event>
<event>
 5    1  0.4866530E-005  0.6912101E+02  0.7818608E-02  0.1229053E+00
         21   -1    0    0  501  502  0.00000000000E+00  0.00000000000E+00  0.70353417934E+02  0.70353417934E+02  0.00000000000E+00 0. -1.
          4   -1    0    0  502    0 -0.00000000000E+00 -0.00000000000E+00 -0.28831875899E+03  0.28831875899E+03  0.00000000000E+00 0.  1.
        -13    1    1    2    0    0 -0.13860349046E+02  0.67827617537E+02 -0.25695403446E+03  0.26611666984E+03  0.10566000000E+00 0.  1.
         13    1    1    2    0    0  0.27406379126E+02 -0.63583096216E+02  0.28356979669E+02  0.74820112277E+02  0.10566000000E+00 0. -1.
          4    1    1    2  501    0 -0.13546030080E+02 -0.42445213213E+01  0.10631713734E+02  0.17735394811E+02  0.00000000000E+00 0.  1.
</event>
<event>
 5    1  0.4866530E-005  0.1398149E+03  0.7818608E-02  0.1111615E+00
         21   -1    0    0  501  502  0.00000000000E+00  0.00000000000E+00  0.39899664783E+03  0.39899664783E+03  0.00000000000E+00 0.  1.
         -4   -1    0    0    0  501 -0.00000000000E+00 -0.00000000000E+00 -0.10480586648E+03  0.10480586648E+03  0.00000000000E+00 0. -1.
        -13    1    1    2    0    0 -0.12481819583E+03  0.85975594759E+02  0.22556683491E+03  0.27175686390E+03  0.10566000000E+00 0.  1.
         13    1    1    2    0    0  0.12870001494E+03 -0.49148758303E+02 -0.16948875866E+02  0.13880406999E+03  0.10566000000E+00 0. -1.
         -4    1    1    2    0  502 -0.38818191120E+01 -0.36826836456E+02  0.85572822299E+02  0.93241580420E+02  0.00000000000E+00 0. -1.
</event>
<event>
 5    1  0.4866530E-005  0.3750737E+03  0.7818608E-02  0.9943552E-01
         21   -1    0    0  501  502  0.00000000000E+00  0.00000000000E+00  0.15841175913E+04  0.15841175913E+04  0.00000000000E+00 0. -1.
         -4   -1    0    0    0  501 -0.00000000000E+00 -0.00000000000E+00 -0.43944003265E+03  0.43944003265E+03  0.00000000000E+00 0. -1.
        -13    1    1    2    0    0  0.97385226091E+02  0.21333703026E+03 -0.21513113997E+03  0.31824202942E+03  0.10566000000E+00 0.  1.
         13    1    1    2    0    0  0.11264717454E+03  0.14384639240E+03 -0.85544494446E+02  0.20174003626E+03  0.10566000000E+00 0. -1.
         -4    1    1    2    0  502 -0.21003240063E+03 -0.35718342266E+03  0.14453531930E+04  0.15035755582E+04  0.00000000000E+00 0. -1.
</event>
<event>
 5    1  0.4866530E-005  0.4723379E+03  0.7818608E-02  0.1001990E+00
         -4   -1    0    0    0  501 -0.00000000000E+00  0.00000000000E+00  0.19651525957E+04  0.19651525957E+04  0.00000000000E+00 0. -1.
         21   -1    0    0  501  502  0.00000000000E+00 -0.00000000000E+00 -0.15683756185E+03  0.15683756185E+03  0.00000000000E+00 0. -1.
        -13    1    1    2    0    0  0.86997353575E+02  0.27841747516E+02  0.19333344146E+03  0.21382594133E+03  0.10566000000E+00 0.  1.
         13    1    1    2    0    0 -0.35757986348E+03  0.32930665080E+03  0.45977551021E+03  0.66910369898E+03  0.10566000000E+00 0. -1.
         -4    1    1    2    0  502  0.27058250991E+03 -0.35714839831E+03  0.11552060822E+04  0.12390605172E+04  0.00000000000E+00 0. -1.
</event>
<event>
 5    1  0.4866530E-005  0.4877654E+03  0.7818608E-02  0.9843893E-01
         21   -1    0    0  501  502  0.00000000000E+00  0.00000000000E+00  0.16592746318E+03  0.16592746318E+03  0.00000000000E+00 0.  1.
          4   -1    0    0  502    0 -0.00000000000E+00 -0.00000000000E+00 -0.20343300944E+04  0.20343300944E+04  0.00000000000E+00 0.  1.
        -13    1    1    2    0    0 -0.11184057918E+03 -0.53382928169E+03 -0.59231880310E+03  0.80518544001E+03  0.10566000000E+00 0.  1.
         13    1    1    2    0    0  0.22278495475E+02  0.14721353811E+03 -0.20924033492E+03  0.25680670958E+03  0.10566000000E+00 0. -1.
          4    1    1    2  501    0  0.89562083705E+02  0.38661574358E+03 -0.10668434932E+04  0.11382654080E+04  0.00000000000E+00 0.  1.
</event>
<event>
 5    1  0.4866530E-005  0.1887697E+03  0.7818608E-02  0.1068120E+00
         21   -1    0    0  501  502  0.00000000000E+00  0.00000000000E+00  0.47354245069E+03  0.47354245069E+03  0.00000000000E+00 0.  1.
          4   -1    0    0  502    0 -0.00000000000E+00 -0.00000000000E+00 -0.31035814576E+03  0.31035814576E+03  0.00000000000E+00 0.  1.
        -13    1    1    2    0    0 -0.14481191969E+01 -0.20713428748E+03 -0.36867684518E+02  0.21039474191E+03  0.10566000000E+00 0.  1.
         13    1    1    2    0    0  0.33705171896E+02  0.17736982772E+03 -0.14134978072E+03  0.22929427833E+03  0.10566000000E+00 0. -1.
          4    1    1    2  501    0 -0.32257052700E+02  0.29764459756E+02  0.34140177017E+03  0.34421157620E+03  0.00000000000E+00 0.  1.
</event>
<event>
 5    1  0.4866530E-005  0.4539293E+03  0.7818608E-02  0.9642605E-01
         21   -1    0    0  501  502  0.00000000000E+00  0.00000000000E+00  0.72092846405E+03  0.72092846405E+03  0.00000000000E+00 0.  1.
          4   -1    0    0  502    0 -0.00000000000E+00 -0.00000000000E+00 -0.72059124873E+03  0.72059124873E+03  0.00000000000E+00 0.  1.
        -13    1    1    2    0    0 -0.48033919939E+03 -0.18210833397E+03 -0.20940942697E+03  0.55474454575E+03  0.10566000000E+00 0.  1.
         13    1    1    2    0    0  0.46976709524E+02  0.36718741548E+03 -0.19318450977E+01  0.37018529483E+03  0.10566000000E+00 0. -1.
          4    1    1    2  501    0  0.43336248986E+03 -0.18507908151E+03  0.21167848739E+03  0.51658987220E+03  0.00000000000E+00 0.  1.
</event>
<event>
 5    1  0.4866530E-005  0.8320254E+02  0.7818608E-02  0.1217978E+00
          4   -1    0    0  502    0 -0.00000000000E+00  0.00000000000E+00  0.86715945562E+03  0.86715945562E+03  0.00000000000E+00 0.  1.
         21   -1    0    0  501  502  0.00000000000E+00 -0.00000000000E+00 -0.72533249879E+02  0.72533249879E+02  0.00000000000E+00 0.  1.
        -13    1    1    2    0    0  0.12852492966E+03  0.11101966556E+02  0.75922572281E+03  0.77010753830E+03  0.10566000000E+00 0.  1.
         13    1    1    2    0    0 -0.49605273852E+02  0.94973231405E+01  0.65441650309E+02  0.82665005293E+02  0.10566000000E+00 0. -1.
          4    1    1    2  501    0 -0.78919655803E+02 -0.20599289697E+02 -0.30041167381E+02  0.86920161906E+02  0.00000000000E+00 0.  1.
</event>
<event>
 5    1  0.4866530E-005  0.3356339E+03  0.7818608E-02  0.1004206E+00
         21   -1    0    0  501  502  0.00000000000E+00  0.00000000000E+00  0.13328547918E+04  0.13328547918E+04  0.00000000000E+00 0.  1.
          4   -1    0    0  502    0 -0.00000000000E+00 -0.00000000000E+00 -0.27985457782E+03  0.27985457782E+03  0.00000000000E+00 0.  1.
        -13    1    1    2    0    0  0.15326690829E+03 -0.31213769979E+02 -0.16628613361E+03  0.22828958366E+03  0.10566000000E+00 0.  1.
         13    1    1    2    0    0  0.20420856769E+03  0.12001940165E+03  0.23583073548E+03  0.33424832513E+03  0.10566000000E+00 0. -1.
          4    1    1    2  501    0 -0.35747547599E+03 -0.88805631670E+02  0.98345561207E+03  0.10501714608E+04  0.00000000000E+00 0.  1.
</event>
<event>
 5    1  0.4866530E-005  0.4864183E+03  0.7818608E-02  0.9810656E-01
          4   -1    0    0  502    0 -0.00000000000E+00  0.00000000000E+00  0.19159264638E+04  0.19159264638E+04  0.00000000000E+00 0.  1.
         21   -1    0    0  501  502  0.00000000000E+00 -0.00000000000E+00 -0.27174002222E+03  0.27174002222E+03  0.00000000000E+00 0.  1.
        -13    1    1    2    0    0  0.40587840904E+02 -0.55263420295E+03  0.46344838800E+03  0.72238241576E+03  0.10566000000E+00 0.  1.
         13    1    1    2    0    0  0.10911127606E+03  0.12783013843E+03  0.93935498561E+03  0.95427124813E+03  0.10566000000E+00 0. -1.
          4    1    1    2  501    0 -0.14969911696E+03  0.42480406452E+03  0.24138306794E+03  0.51101282209E+03  0.00000000000E+00 0.  1.
</event>
<event>
 5    1  0.4866530E-005  0.1501834E+03  0.7818608E-02  0.1100931E+00
         21   -1    0    0  501  502  0.00000000000E+00  0.00000000000E+00  0.42798204905E+03  0.42798204905E+03  0.00000000000E+00 0. -1.
          4   -1    0    0  502    0 -0.00000000000E+00 -0.00000000000E+00 -0.75807193127E+02  0.75807193127E+02  0.00000000000E+00 0.  1.
        -13    1    1    2    0    0  0.65627946055E+01  0.15262406748E+03  0.47893017265E+02  0.16009662243E+03  0.10566000000E+00 0.  1.
         13    1    1    2    0    0 -0.10441682241E+02 -0.14320063971E+03  0.24858630975E+03  0.28707249345E+03  0.10566000000E+00 0. -1.
          4    1    1    2  501    0  0.38788876351E+01 -0.94234277732E+01  0.55695528911E+02  0.56620126289E+02  0.00000000000E+00 0.  1.
</event>
<event>
 5    1  0.4866530E-005  0.5836941E+03  0.7818608E-02  0.9311285E-01
         21   -1    0    0  501  502  0.00000000000E+00  0.00000000000E+00  0.37446892772E+03  0.37446892772E+03  0.00000000000E+00 0. -1.
          4   -1    0    0  502    0 -0.00000000000E+00 -0.00000000000E+00 -0.18579699835E+04  0.18579699835E+04  0.00000000000E+00 0.  1.
        -13    1    1    2    0    0  0.21396083624E+03  0.54279003276E+03 -0.12643904272E+04  0.13925097567E+04  0.10566000000E+00 0.  1.
         13    1    1    2    0    0 -0.19441512777E+03 -0.55134379624E+03 -0.36715995665E+03  0.69035039545E+03  0.10566000000E+00 0. -1.
          4    1    1    2  501    0 -0.19545708467E+02  0.85537634785E+01  0.14804932810E+03  0.14957875899E+03  0.00000000000E+00 0.  1.
</event>
<event>
 5    1  0.4866530E-005  0.5128505E+03  0.7818608E-02  0.9503627E-01
          4   -1    0    0  502    0 -0.00000000000E+00  0.00000000000E+00  0.18621528202E+04  0.18621528202E+04  0.00000000000E+00 0.  1.
         21   -1    0    0  501  502  0.00000000000E+00 -0.00000000000E+00 -0.33980300048E+03  0.33980300048E+03  0.00000000000E+00 0. -1.
        -13    1    1    2    0    0 -0.57201107807E+03  0.20889730456E+03  0.67497161301E+03  0.90907725020E+03  0.10566000000E+00 0.  1.
         13    1    1    2    0    0  0.33860894478E+03  0.25190731263E+03  0.56175799514E+03  0.70262747449E+03  0.10566000000E+00 0. -1.
          4    1    1    2  501    0  0.23340213329E+03 -0.46080461719E+03  0.28562021154E+03  0.59025109596E+03  0.00000000000E+00 0.  1.
</event>
<event>
 5    1  0.4866530E-005  0.4914323E+02  0.7818608E-02  0.1295317E+00
         21   -1    0    0  501  502  0.00000000000E+00  0.00000000000E+00  0.21536473105E+03  0.21536473105E+03  0.00000000000E+00 0. -1.
          4   -1    0    0  502    0 -0.00000000000E+00 -0.00000000000E+00 -0.24750728485E+03  0.24750728485E+03  0.00000000000E+00 0.  1.
        -13    1    1    2    0    0  0.24311035554E+02  0.41997921211E+02 -0.22931414771E+03  0.23439249421E+03  0.10566000000E+00 0.  1.
         13    1    1    2    0    0 -0.31663431149E+02 -0.72894112946E+02  0.11002526958E+03  0.13572654746E+03  0.10566000000E+00 0. -1.
          4    1    1    2  501    0  0.73523955953E+01  0.30896191735E+02  0.87146324327E+02  0.92752974230E+02  0.00000000000E+00 0.  1.
</event>
<event>
 5    1  0.4866530E-005  0.1206538E+03  0.7818608E-02  0.1134291E+00
         -4   -1    0    0    0  501 -0.00000000000E+00  0.00000000000E+00  0.50027460521E+02  0.50027460521E+02  0.00000000000E+00 0. -1.
         21   -1    0    0  501  502  0.00000000000E+00 -0.00000000000E+00 -0.55831677547E+03  0.55831677547E+03  0.00000000000E+00 0.  1.
        -13    1    1    2    0    0  0.88735944366E+02 -0.85528532870E+02 -0.12360324907E+03  0.17454790775E+03  0.10566000000E+00 0.  1.
         13    1    1    2    0    0 -0.93892805135E+02  0.72315483043E+02 -0.11974650366E+03  0.16847737013E+03  0.10566000000E+00 0. -1.
         -4    1    1    2    0  502  0.51568607690E+01  0.13213049827E+02 -0.26493956223E+03  0.26531895811E+03  0.00000000000E+00 0. -1.
</event>
<event>
 5    1  0.4866530E-005  0.1254460E+03  0.7818608E-02  0.1128211E+00
         21   -1    0    0  501  502  0.00000000000E+00  0.00000000000E+00  0.92046114570E+03  0.92046114570E+03  0.00000000000E+00 0.  1.
         -4   -1    0    0    0  501 -0.00000000000E+00 -0.00000000000E+00 -0.69665729317E+02  0.69665729317E+02  0.00000000000E+00 0. -1.
        -13    1    1    2    0    0 -0.30676729169E+02 -0.16873645742E+03  0.59540055186E+03  0.61960865238E+03  0.10566000000E+00 0.  1.
         13    1    1    2    0    0  0.25653201778E+02  0.11768346290E+03  0.11170151116E+02  0.12096391049E+03  0.10566000000E+00 0. -1.
         -4    1    1    2    0  502  0.50235273910E+01  0.51052994521E+02  0.24422471341E+03  0.24955431216E+03  0.00000000000E+00 0. -1.
</event>
<event>
 5    1  0.4866530E-005  0.4148188E+03  0.7818608E-02  0.9687197E-01
          4   -1    0    0  502    0 -0.00000000000E+00  0.00000000000E+00  0.29479307541E+04  0.29479307541E+04  0.00000000000E+00 0.  1.
         21   -1    0    0  501  502  0.00000000000E+00 -0.00000000000E+00 -0.86297560684E+02  0.86297560684E+02  0.00000000000E+00 0. -1.
        -13    1    1    2    0    0  0.36008444556E+03 -0.27211787707E+03  0.17937571919E+04  0.18496685708E+04  0.10566000000E+00 0.  1.
         13    1    1    2    0    0 -0.24932039376E+03  0.27771676975E+03  0.95935482189E+03  0.10293925143E+04  0.10566000000E+00 0. -1.
          4    1    1    2  501    0 -0.11076405180E+03 -0.55988926853E+01  0.10852117961E+03  0.15516722977E+03  0.00000000000E+00 0.  1.
</event>
<event>
 5    1  0.4866530E-005  0.3785888E+03  0.7818608E-02  0.9793003E-01
          4   -1    0    0  502    0 -0.00000000000E+00  0.00000000000E+00  0.10183629359E+04  0.10183629359E+04  0.00000000000E+00 0.  1.
         21   -1    0    0  501  502  0.00000000000E+00 -0.00000000000E+00 -0.54167808940E+03  0.54167808940E+03  0.00000000000E+00 0.  1.
        -13    1    1    2    0    0  0.33685026597E+03 -0.40968940975E+03  0.35888746880E+03  0.64040123405E+03  0.10566000000E+00 0.  1.
         13    1    1    2    0    0 -0.94152500506E+02  0.31336966790E+03  0.41209770300E+03  0.52620316427E+03  0.10566000000E+00 0. -1.
          4    1    1    2  501    0 -0.24269776546E+03  0.96319741851E+02 -0.29430032526E+03  0.39343662702E+03  0.00000000000E+00 0.  1.
</event>
<event>
 5    1  0.4866530E-005  0.1297664E+03  0.7818608E-02  0.1122977E+00
         -4   -1    0    0    0  501 -0.00000000000E+00  0.00000000000E+00  0.73978681385E+03  0.73978681385E+03  0.00000000000E+00 0. -1.
         21   -1    0    0  501  502  0.00000000000E+00 -0.00000000000E+00 -0.16531958472E+03  0.16531958472E+03  0.00000000000E+00 0.  1.
        -13    1    1    2    0    0 -0.58573904914E+02  0.51539393786E+02 -0.12811994317E+03  0.15000647470E+03  0.10566000000E+00 0.  1.
         13    1    1    2    0    0  0.12460076019E+03 -0.44885844136E+02  0.66656002914E+03  0.67958985577E+03  0.10566000000E+00 0. -1.
         -4    1    1    2    0  502 -0.66026855279E+02 -0.66535496499E+01  0.36027143155E+02  0.75510068103E+02  0.00000000000E+00 0. -1.
</event>
<event>
 5    1  0.4866530E-005  0.4439833E+03  0.7818608E-02  0.1011236E+00
         21   -1    0    0  501  502  0.00000000000E+00  0.00000000000E+00  0.20392173918E+03  0.20392173918E+03  0.00000000000E+00 0. -1.
         -4   -1    0    0    0  501 -0.00000000000E+00 -0.00000000000E+00 -0.12981027049E+04  0.12981027049E+04  0.00000000000E+00 0. -1.
        -13    1    1    2    0    0 -0.33630337437E+01  0.81485717228E+02 -0.19409516655E+03  0.21053307805E+03  0.10566000000E+00 0.  1.
         13    1    1    2    0    0  0.17122674682E+03  0.38045875058E+03 -0.29023480849E+03  0.50823588514E+03  0.10566000000E+00 0. -1.
         -4    1    1    2    0  502 -0.16786371308E+03 -0.46194446781E+03 -0.60985099065E+03  0.78325548086E+03  0.00000000000E+00 0. -1.
</event>
<event>
 5    1  0.4866530E-005  0.4945043E+03  0.7818608E-02  0.9835155E-01
          4   -1    0    0  502    0 -0.00000000000E+00  0.00000000000E+00  0.38239193135E+03  0.38239193135E+03  0.00000000000E+00 0.  1.
         21   -1    0    0  501  502  0.00000000000E+00 -0.00000000000E+00 -0.86816241419E+03  0.86816241419E+03  0.00000000000E+00 0.  1.
        -13    1    1    2    0    0 -0.50332038325E+03  0.25983011140E+02 -0.18558625757E+03  0.53707429209E+03  0.10566000000E+00 0.  1.
         13    1    1    2    0    0  0.21525569431E+02 -0.14559433212E+03 -0.37664579474E+02  0.15192001644E+03  0.10566000000E+00 0. -1.
          4    1    1    2  501    0  0.48179481382E+03  0.11961132098E+03 -0.26251964580E+03  0.56156003701E+03  0.00000000000E+00 0.  1.
</event>
<event>
 5    1  0.4866530E-005  0.3502089E+03  0.7818608E-02  0.9885021E-01
         21   -1    0    0  501  502  0.00000000000E+00  0.00000000000E+00  0.74608727906E+03  0.74608727906E+03  0.00000000000E+00 0.  1.
          4   -1    0    0  502    0 -0.00000000000E+00 -0.00000000000E+00 -0.50809329066E+03  0.50809329066E+03  0.00000000000E+00 0.  1.
        -13    1    1    2    0    0 -0.13334019539E+03 -0.32633015996E+03 -0.24665055779E+03  0.43024119960E+03  0.10566000000E+00 0.  1.
         13    1    1    2    0    0  0.12232176893E+03  0.32349290832E+03  0.67537427265E+01  0.34591314096E+03  0.10566000000E+00 0. -1.
          4    1    1    2  501    0  0.11018426452E+02  0.28372516450E+01  0.47789080347E+03  0.47802622916E+03  0.00000000000E+00 0.  1.
</event>
<event>
 5    1  0.4866530E-005  0.2711950E+03  0.7818608E-02  0.1035702E+00
          4   -1    0    0  502    0 -0.00000000000E+00  0.00000000000E+00  0.87321556136E+03  0.87321556136E+03  0.00000000000E+00 0.  1.
         21   -1    0    0  501  502  0.00000000000E+00 -0.00000000000E+00 -0.57141186156E+03  0.57141186156E+03  0.00000000000E+00 0.  1.
        -13    1    1    2    0    0  0.14772164571E+03 -0.13242113415E+03 -0.31159415335E+03  0.36938864215E+03  0.10566000000E+00 0.  1.
         13    1    1    2    0    0  0.89797170105E+02 -0.33438921013E+03  0.15555158116E+03  0.37957342001E+03  0.10566000000E+00 0. -1.
          4    1    1    2  501    0 -0.23751881581E+03  0.46681034428E+03  0.45784627199E+03  0.69566536077E+03  0.00000000000E+00 0.  1.
</event>
<event>
 5    1  0.4866530E-005  0.5745294E+02  0.7818608E-02  0.1264102E+00
         21   -1    0    0  501  502  0.00000000000E+00  0.00000000000E+00  0.43299540287E+03  0.43299540287E+03  0.00000000000E+00 0. -1.
          4   -1    0    0  502    0 -0.00000000000E+00 -0.00000000000E+00 -0.12014844142E+02  0.12014844142E+02  0.00000000000E+00 0.  1.
        -13    1    1    2    0    0  0.28556298312E+02 -0.45450404753E+02  0.95743119778E+02  0.10976318880E+03  0.10566000000E+00 0.  1.
         13    1    1    2    0    0 -0.32965079250E+02  0.57830416409E+02  0.24240826005E+03  0.25138183947E+03  0.10566000000E+00 0. -1.
          4    1    1    2  501    0  0.44087809375E+01 -0.12380011656E+02  0.82829178899E+02  0.83865218744E+02  0.00000000000E+00 0.  1.
</event>
<event>
 5    1  0.4866530E-005  0.1035743E+03  0.7818608E-02  0.1158774E+00
         21   -1    0    0  501  502  0.00000000000E+00  0.00000000000E+00  0.55594856184E+03  0.55594856184E+03  0.00000000000E+00 0.  1.
         -4   -1    0    0    0  501 -0.00000000000E+00 -0.00000000000E+00 -0.31424299360E+02  0.31424299360E+02  0.00000000000E+00 0. -1.
        -13    1    1    2    0    0  0.45207770753E+02 -0.10107557052E+03  0.21747341122E+03  0.24403833560E+03  0.10566000000E+00 0.  1.
         13    1    1    2    0    0 -0.57513154862E+02  0.81675026119E+02  0.12581655999E+03  0.16064990135E+03  0.10566000000E+00 0. -1.
         -4    1    1    2    0  502  0.12305384109E+02  0.19400544404E+02  0.18123429128E+03  0.18268462425E+03  0.00000000000E+00 0. -1.
</event>
<event>
 5    1  0.4866530E-005  0.5622544E+03  0.7818608E-02  0.9555621E-01
         21   -1    0    0  501  502  0.00000000000E+00  0.00000000000E+00  0.41939761430E+03  0.41939761430E+03  0.00000000000E+00 0. -1.
         -4   -1    0    0    0  501 -0.00000000000E+00 -0.00000000000E+00 -0.14728813919E+04  0.14728813919E+04  0.00000000000E+00 0. -1.
        -13    1    1    2    0    0  0.11581125577E+03 -0.23885970405E+03 -0.42205982973E+03  0.49859875272E+03  0.10566000000E+00 0.  1.
         13    1    1    2    0    0  0.52608314826E+03  0.66387747485E+02 -0.93107645780E+02  0.53836777092E+03  0.10566000000E+00 0. -1.
         -4    1    1    2    0  502 -0.64189440404E+03  0.17247195657E+03 -0.53831630210E+03  0.85531248257E+03  0.00000000000E+00 0. -1.
</event>
<event>
 5    1  0.4866530E-005  0.1232575E+03  0.7818608E-02  0.1130950E+00
         -4   -1    0    0    0  501 -0.00000000000E+00  0.00000000000E+00  0.34449434427E+03  0.34449434427E+03  0.00000000000E+00 0. -1.
         21   -1    0    0  501  502  0.00000000000E+00 -0.00000000000E+00 -0.11511466439E+03  0.11511466439E+03  0.00000000000E+00 0.  1.
        -13    1    1    2    0    0 -0.53509713111E+02  0.10522736521E+03 -0.37903104014E+02  0.12398687125E+03  0.10566000000E+00 0.  1.
         13    1    1    2    0    0  0.10881927333E+03 -0.66543896724E+02  0.21601908189E+03  0.25086645719E+03  0.10566000000E+00 0. -1.
         -4    1    1    2    0  502 -0.55309560216E+02 -0.38683468481E+02  0.51263702015E+02  0.84755680218E+02  0.00000000000E+00 0. -1.
</event>
<event>
 5    1  0.4866530E-005  0.4901308E+03  0.7818608E-02  0.9712357E-01
         21   -1    0    0  501  502  0.00000000000E+00  0.00000000000E+00  0.13527556562E+04  0.13527556562E+04  0.00000000000E+00 0. -1.
         -4   -1    0    0    0  501 -0.00000000000E+00 -0.00000000000E+00 -0.39366722447E+03  0.39366722447E+03  0.00000000000E+00 0. -1.
        -13    1    1    2    0    0 -0.22174356777E+03 -0.62483309633E+02  0.28334940350E+02  0.23211474283E+03  0.10566000000E+00 0.  1.
         13    1    1    2    0    0 -0.92609033371E+01  0.50388874273E+03  0.55266322554E+02  0.50699507586E+03  0.10566000000E+00 0. -1.
         -4    1    1    2    0  502  0.23100447111E+03 -0.44140543309E+03  0.87548716886E+03  0.10073130620E+04  0.00000000000E+00 0. -1.
</event>
<event>
 5    1  0.4866530E-005  0.7329775E+02  0.7818608E-02  0.1246095E+00
         21   -1    0    0  501  502  0.00000000000E+00  0.00000000000E+00  0.27449636974E+03  0.27449636974E+03  0.00000000000E+00 0. -1.
         -4   -1    0    0    0  501 -0.00000000000E+00 -0.00000000000E+00 -0.95624729241E+02  0.95624729241E+02  0.00000000000E+00 0. -1.
        -13    1    1    2    0    0 -0.38738542232E+02 -0.10920752681E+02  0.10763603750E+03  0.11491503481E+03  0.10566000000E+00 0.  1.
         13    1    1    2    0    0 -0.37093571674E+02  0.24228016558E+02 -0.76619250530E+02  0.88506782575E+02  0.10566000000E+00 0. -1.
         -4    1    1    2    0  502  0.75832113906E+02 -0.13307263877E+02  0.14785485353E+03  0.16669928159E+03  0.00000000000E+00 0. -1.
</event>
<event>
 5    1  0.4866530E-005  0.4694326E+03  0.7818608E-02  0.9722422E-01
         -4   -1    0    0    0  501 -0.00000000000E+00  0.00000000000E+00  0.17349533275E+04  0.17349533275E+04  0.00000000000E+00 0. -1.
         21   -1    0    0  501  502  0.00000000000E+00 -0.00000000000E+00 -0.27469566539E+03  0.27469566539E+03  0.00000000000E+00 0. -1.
        -13    1    1    2    0    0  0.22290593829E+03  0.12012572604E+03  0.68510989843E+03  0.73040593609E+03  0.10566000000E+00 0.  1.
         13    1    1    2    0    0 -0.53199099268E+03  0.75812295336E+02  0.15518133404E+03  0.55932385790E+03  0.10566000000E+00 0. -1.
         -4    1    1    2    0  502  0.30908505439E+03 -0.19593802138E+03  0.61996642962E+03  0.71991919889E+03  0.00000000000E+00 0. -1.
</event>
<event>
 5    1  0.4866530E-005  0.4023155E+03  0.7818608E-02  0.9955071E-01
         -4   -1    0    0    0  501 -0.00000000000E+00  0.00000000000E+00  0.13289828251E+04  0.13289828251E+04  0.00000000000E+00 0. -1.
         21   -1    0    0  501  502  0.00000000000E+00 -0.00000000000E+00 -0.55122945890E+03  0.55122945890E+03  0.00000000000E+00 0. -1.
        -13    1    1    2    0    0  0.16802952137E+03  0.72277118946E+02  0.84183349125E+03  0.86147637236E+03  0.10566000000E+00 0.  1.
         13    1    1    2    0    0  0.15662848379E+03 -0.33588891905E+03  0.29014341094E+03  0.47067723330E+03  0.10566000000E+00 0. -1.
         -4    1    1    2    0  502 -0.32465800516E+03  0.26361180010E+03 -0.35422353598E+03  0.54805867835E+03  0.00000000000E+00 0. -1.
</event>
<event>
 5    1  0.4866530E-005  0.4741379E+03  0.7818608E-02  0.9662138E-01
         21   -1    0    0  501  502  0.00000000000E+00  0.00000000000E+00  0.34262134125E+03  0.34262134125E+03  0.00000000000E+00 0.  1.
          4   -1    0    0  502    0 -0.00000000000E+00 -0.00000000000E+00 -0.21524479114E+04  0.21524479114E+04  0.00000000000E+00 0.  1.
        -13    1    1    2    0    0  0.13681474740E+02  0.42698722441E+03 -0.47261188142E+03  0.63707713362E+03  0.10566000000E+00 0.  1.
         13    1    1    2    0    0  0.30321133018E+03 -0.56988108537E+01 -0.12939943452E+04  0.13290564185E+04  0.10566000000E+00 0. -1.
          4    1    1    2  501    0 -0.31689280492E+03 -0.42128841356E+03 -0.43220343623E+02  0.52893570054E+03  0.00000000000E+00 0.  1.
</event>
<event>
 5    1  0.4866530E-005  0.3454579E+03  0.7818608E-02  0.9901330E-01
          4   -1    0    0  502    0 -0.00000000000E+00  0.00000000000E+00  0.27749392535E+04  0.27749392535E+04  0.00000000000E+00 0.  1.
         21   -1    0    0  501  502  0.00000000000E+00 -0.00000000000E+00 -0.20594379565E+03  0.20594379565E+03  0.00000000000E+00 0.  1.
        -13    1    1    2    0    0 -0.29320260481E+03  0.14057812277E+03  0.18786077205E+04  0.19065405725E+04  0.10566000000E+00 0.  1.
         13    1    1    2    0    0  0.39026309601E+03 -0.15612074380E+03  0.81417447474E+03  0.91627455341E+03  0.10566000000E+00 0. -1.
          4    1    1    2  501    0 -0.97060491196E+02  0.15542621033E+02 -0.12378673734E+03  0.15806792325E+03  0.00000000000E+00 0.  1.
</event>
<event>
 5    1  0.4866530E-005  0.2398017E+02  0.7818608E-02  0.1516250E+00
         21   -1    0    0  501  502  0.00000000000E+00  0.00000000000E+00  0.63978818382E+02  0.63978818382E+02  0.00000000000E+00 0.  1.
          4   -1    0    0  502    0 -0.00000000000E+00 -0.00000000000E+00 -0.31211634088E+02  0.31211634088E+02  0.00000000000E+00 0.  1.
        -13    1    1    2    0    0  0.31862019930E+02  0.36120714365E+01 -0.14082303487E+02  0.35022247352E+02  0.10566000000E+00 0.  1.
         13    1    1    2    0    0 -0.99376367779E+01  0.36504067991E+01  0.36799404109E+01  0.11208711790E+02  0.10566000000E+00 0. -1.
          4    1    1    2  501    0 -0.21924383152E+02 -0.72624782356E+01  0.43169547370E+02  0.48959493327E+02  0.00000000000E+00 0.  1.
</event>
<event>
 5    1  0.4866530E-005  0.4655214E+03  0.7818608E-02  0.9633721E-01
          4   -1    0    0  502    0 -0.00000000000E+00  0.00000000000E+00  0.20365292824E+04  0.20365292824E+04  0.00000000000E+00 0.  1.
         21   -1    0    0  501  502  0.00000000000E+00 -0.00000000000E+00 -0.46353611002E+03  0.46353611002E+03  0.00000000000E+00 0.  1.
        -13    1    1    2    0    0 -0.31687470609E+03  0.34798847894E+03 -0.74095755924E+02  0.47644071304E+03  0.10566000000E+00 0.  1.
         13    1    1    2    0    0  0.29736560728E+03  0.19232162710E+03  0.13720687747E+04  0.14170344548E+04  0.10566000000E+00 0. -1.
          4    1    1    2  501    0  0.19509098802E+02 -0.54031010603E+03  0.27502015366E+03  0.60659022457E+03  0.00000000000E+00 0.  1.
</event>
<event>
 5    1  0.4866530E-005  0.5090184E+03  0.7818608E-02  0.9458422E-01
         21   -1    0    0  501  502  0.00000000000E+00  0.00000000000E+00  0.42075020851E+03  0.42075020851E+03  0.00000000000E+00 0.  1.
          4   -1    0    0  502    0 -0.00000000000E+00 -0.00000000000E+00 -0.31864829868E+04  0.31864829868E+04  0.00000000000E+00 0.  1.
        -13    1    1    2    0    0  0.29942212370E+02  0.38310294727E+03 -0.91751974674E+03  0.99473961473E+03  0.10566000000E+00 0.  1.
         13    1    1    2    0    0 -0.29103907899E+03 -0.67299512604E+03 -0.20471938404E+04  0.21745410588E+04  0.10566000000E+00 0. -1.
          4    1    1    2  501    0  0.26109686662E+03  0.28989217877E+03  0.19898080881E+03  0.43795252179E+03  0.00000000000E+00 0.  1.
</event>
<event>
 5    1  0.5910663E-005  0.4854042E+03  0.7818608E-02  0.9654987E-01
          4   -1    0    0  502    0 -0.00000000000E+00  0.00000000000E+00  0.19207630669E+04  0.19207630669E+04  0.00000000000E+00 0.  1.
         21   -1    0    0  501  502  0.00000000000E+00 -0.00000000000E+00 -0.25784860392E+03  0.25784860392E+03  0.00000000000E+00 0. -1.
        -13    1    1    2    0    0 -0.26409867432E+03  0.21760991349E+03  0.69275044181E+03  0.77266122590E+03  0.10566000000E+00 0.  1.
         13    1    1    2    0    0 -0.28822274587E+03 -0.30426555765E+02  0.71095709390E+03  0.76776176453E+03  0.10566000000E+00 0. -1.
          4    1    1    2  501    0  0.55232142019E+03 -0.18718335772E+03  0.25920692724E+03  0.63818868036E+03  0.00000000000E+00 0.  1.
</event>
<event>
 5    1  0.4866530E-005  0.2775893E+03  0.7818608E-02  0.1017010E+00
          4   -1    0    0  502    0 -0.00000000000E+00  0.00000000000E+00  0.19334590618E+03  0.19334590618E+03  0.00000000000E+00 0.  1.
         21   -1    0    0  501  502  0.00000000000E+00 -0.00000000000E+00 -0.79793204835E+03  0.79793204835E+03  0.00000000000E+00 0. -1.
        -13    1    1    2    0    0 -0.19687332606E+03  0.18548145576E+03 -0.37004154573E+01  0.27051096315E+03  0.10566000000E+00 0.  1.
         13    1    1    2    0    0  0.21488592081E+03 -0.20476514312E+03 -0.31184892842E+03  0.43052815021E+03  0.10566000000E+00 0. -1.
          4    1    1    2  501    0 -0.18012594743E+02  0.19283687358E+02 -0.28903679828E+03  0.29023884118E+03  0.00000000000E+00 0.  1.
</event>
<event>
 5    1  0.4866530E-005  0.3787804E+03  0.7818608E-02  0.9792411E-01
          4   -1    0    0  502    0 -0.00000000000E+00  0.00000000000E+00  0.28039377556E+04  0.28039377556E+04  0.00000000000E+00 0.  1.
         21   -1    0    0  501  502  0.00000000000E+00 -0.00000000000E+00 -0.16229665827E+03  0.16229665827E+03  0.00000000000E+00 0.  1.
        -13    1    1    2    0    0 -0.32078382362E+03 -0.28127778268E+03  0.19929243460E+04  0.20380792214E+04  0.10566000000E+00 0.  1.
         13    1    1    2    0    0  0.15981853318E+03  0.27338029710E+03  0.69223156220E+03  0.76122486643E+03  0.10566000000E+00 0. -1.
          4    1    1    2  501    0  0.16096529045E+03  0.78974855735E+01 -0.43514810849E+02  0.16693032610E+03  0.00000000000E+00 0.  1.
</event>
<event>
 5    1  0.4866530E-005  0.4726903E+03  0.7818608E-02  0.9969529E-01
         -4   -1    0    0    0  501 -0.00000000000E+00  0.00000000000E+00  0.20571055048E+04  0.20571055048E+04  0.00000000000E+00 0. -1.
         21   -1    0    0  501  502  0.00000000000E+00 -0.00000000000E+00 -0.15719988899E+03  0.15719988899E+03  0.00000000000E+00 0. -1.
        -13    1    1    2    0    0  0.10484623087E+03  0.23818716109E+02  0.27025524608E+03  0.29085730619E+03  0.10566000000E+00 0.  1.
         13    1    1    2    0    0  0.25507504352E+03  0.32533997581E+03  0.11785332228E+04  0.12489395286E+04  0.10566000000E+00 0. -1.
         -4    1    1    2    0  502 -0.35992127439E+03 -0.34915869192E+03  0.45111714690E+03  0.67450855898E+03  0.00000000000E+00 0. -1.
</event>
<event>
 5    1  0.4866530E-005  0.4941306E+03  0.7818608E-02  0.9668115E-01
         21   -1    0    0  501  502  0.00000000000E+00  0.00000000000E+00  0.56979894703E+03  0.56979894703E+03  0.00000000000E+00 0. -1.
         -4   -1    0    0    0  501 -0.00000000000E+00 -0.00000000000E+00 -0.83231725865E+03  0.83231725865E+03  0.00000000000E+00 0. -1.
        -13    1    1    2    0    0 -0.25535140205E+03  0.60254131308E+02 -0.25936973632E+03  0.36892759472E+03  0.10566000000E+00 0.  1.
         13    1    1    2    0    0  0.19633519136E+02  0.46037231634E+03  0.19917725384E+02  0.46122106595E+03  0.10566000000E+00 0. -1.
         -4    1    1    2    0  502  0.23571788291E+03 -0.52062644765E+03 -0.23066300692E+02  0.57196754501E+03  0.00000000000E+00 0. -1.
</event>
<event>
 5    1  0.4866530E-005  0.4458864E+03  0.7818608E-02  0.9605184E-01
          4   -1    0    0  502    0 -0.00000000000E+00  0.00000000000E+00  0.43400737916E+03  0.43400737916E+03  0.00000000000E+00 0.  1.
         21   -1    0    0  501  502  0.00000000000E+00 -0.00000000000E+00 -0.99891789702E+03  0.99891789702E+03  0.00000000000E+00 0. -1.
        -13    1    1    2    0    0  0.41927281998E+03 -0.14005693464E+03 -0.68246244395E+03  0.81311785190E+03  0.10566000000E+00 0.  1.
         13    1    1    2    0    0 -0.41788067301E+03  0.15765795511E+03  0.23249113773E+03  0.50352003731E+03  0.10566000000E+00 0. -1.
          4    1    1    2  501    0 -0.13921469672E+01 -0.17601020475E+02 -0.11493921164E+03  0.11628738697E+03  0.00000000000E+00 0.  1.
</event>
<event>
 5    1  0.4866530E-005  0.3120128E+03  0.7818608E-02  0.1007395E+00
          4   -1    0    0  502    0 -0.00000000000E+00  0.00000000000E+00  0.42355635410E+03  0.42355635410E+03  0.00000000000E+00 0.  1.
         21   -1    0    0  501  502  0.00000000000E+00 -0.00000000000E+00 -0.11093704312E+04  0.11093704312E+04  0.00000000000E+00 0.  1.
        -13    1    1    2    0    0 -0.16210325703E+03  0.34439536695E+03  0.88429904047E+02  0.39077550308E+03  0.10566000000E+00 0.  1.
         13    1    1    2    0    0 -0.13179077396E+03 -0.23093647798E+03  0.40185164428E+02  0.26891508616E+03  0.10566000000E+00 0. -1.
          4    1    1    2  501    0  0.29389403099E+03 -0.11345888897E+03 -0.81442914562E+03  0.87323619610E+03  0.00000000000E+00 0.  1.
</event>
<event>
 5    1  0.4866530E-005  0.4910811E+03  0.7818608E-02  0.1003043E+00
         21   -1    0    0  501  502  0.00000000000E+00  0.00000000000E+00  0.25253772885E+03  0.25253772885E+03  0.00000000000E+00 0. -1.
         -4   -1    0    0    0  501 -0.00000000000E+00 -0.00000000000E+00 -0.15010516055E+04  0.15010516055E+04  0.00000000000E+00 0. -1.
        -13    1    1    2    0    0 -0.78520353680E+02  0.14925507483E+01 -0.46812920012E+03  0.47467107856E+03  0.10566000000E+00 0.  1.
         13    1    1    2    0    0  0.32352626558E+03  0.40588327310E+03 -0.52920778111E+03  0.74126335580E+03  0.10566000000E+00 0. -1.
         -4    1    1    2    0  502 -0.24500591190E+03 -0.40737582384E+03 -0.25117689547E+03  0.53765490004E+03  0.00000000000E+00 0. -1.
</event>
<event>
 5    1  0.4866530E-005  0.4181315E+03  0.7818608E-02  0.9789126E-01
         -4   -1    0    0    0  501 -0.00000000000E+00  0.00000000000E+00  0.12147388791E+04  0.12147388791E+04  0.00000000000E+00 0. -1.
         21   -1    0    0  501  502  0.00000000000E+00 -0.00000000000E+00 -0.41082900540E+03  0.41082900540E+03  0.00000000000E+00 0. -1.
        -13    1    1    2    0    0 -0.22499137251E+03 -0.17456056897E+03  0.43202382472E+03  0.51743319011E+03  0.10566000000E+00 0.  1.
         13    1    1    2    0    0  0.47492429038E+03 -0.15551188212E+03  0.46628183555E+03  0.68348795776E+03  0.10566000000E+00 0. -1.
         -4    1    1    2    0  502 -0.24993291787E+03  0.33007245109E+03 -0.94395786583E+02  0.42464673663E+03  0.00000000000E+00 0. -1.
</event>
<event>
 5    1  0.4866530E-005  0.3267026E+03  0.7818608E-02  0.1042213E+00
          4   -1    0    0  502    0 -0.00000000000E+00  0.00000000000E+00  0.17614511810E+04  0.17614511810E+04  0.00000000000E+00 0.  1.
         21   -1    0    0  501  502  0.00000000000E+00 -0.00000000000E+00 -0.15118016243E+03  0.15118016243E+03  0.00000000000E+00 0.  1.
        -13    1    1    2    0    0  0.20112722952E+03  0.22746205624E+03  0.13980459839E+04  0.14306375270E+04  0.10566000000E+00 0.  1.
         13    1    1    2    0    0 -0.44095268344E+02  0.64456922172E+02  0.11040223063E+03  0.13523221213E+03  0.10566000000E+00 0. -1.
          4    1    1    2  501    0 -0.15703196117E+03 -0.29191897841E+03  0.10182280407E+03  0.34676160430E+03  0.00000000000E+00 0.  1.
</event>
<event>
 5    1  0.4866530E-005  0.2198720E+03  0.7818608E-02  0.1047305E+00
         21   -1    0    0  501  502  0.00000000000E+00  0.00000000000E+00  0.63063990343E+03  0.63063990343E+03  0.00000000000E+00 0.  1.
          4   -1    0    0  502    0 -0.00000000000E+00 -0.00000000000E+00 -0.82973367770E+03  0.82973367770E+03  0.00000000000E+00 0.  1.
        -13    1    1    2    0    0 -0.20783914902E+03 -0.65987989607E+02 -0.41489627483E+03  0.46871148553E+03  0.10566000000E+00 0.  1.
         13    1    1    2    0    0  0.17032940941E+03  0.16321113309E+03 -0.34683400408E+03  0.41945657609E+03  0.10566000000E+00 0. -1.
          4    1    1    2  501    0  0.37509739606E+02 -0.97223143483E+02  0.56263650465E+03  0.57220551951E+03  0.00000000000E+00 0.  1.
</event>
<event>
 5    1  0.4866530E-005  0.2115066E+03  0.7818608E-02  0.1065511E+00
          4   -1    0    0  502    0 -0.00000000000E+00  0.00000000000E+00  0.85371160926E+02  0.85371160926E+02  0.00000000000E+00 0.  1.
         21   -1    0    0  501  502  0.00000000000E+00 -0.00000000000E+00 -0.14758618213E+04  0.14758618213E+04  0.00000000000E+00 0. -1.
        -13    1    1    2    0    0  0.24598484501E+03  0.20598115346E+03 -0.37539588236E+03  0.49382067516E+03  0.10566000000E+00 0.  1.
         13    1    1    2    0    0 -0.12819824450E+03 -0.67047925793E+02 -0.52486635092E+03  0.54443999829E+03  0.10566000000E+00 0. -1.
          4    1    1    2  501    0 -0.11778660052E+03 -0.13893322767E+03 -0.49022842706E+03  0.52297230874E+03  0.00000000000E+00 0.  1.
</event>
<event>
 5    1  0.4866530E-005  0.4855141E+03  0.7818608E-02  0.9798882E-01
         21   -1    0    0  501  502  0.00000000000E+00  0.00000000000E+00  0.12644211701E+03  0.12644211701E+03  0.00000000000E+00 0.  1.
          4   -1    0    0  502    0 -0.00000000000E+00 -0.00000000000E+00 -0.28541018917E+04  0.28541018917E+04  0.00000000000E+00 0.  1.
        -13    1    1    2    0    0  0.12293906495E+03 -0.41367682193E+03 -0.15534873451E+04  0.16123168018E+04  0.10566000000E+00 0.  1.
         13    1    1    2    0    0 -0.13629618618E+03 -0.11124237304E+03 -0.33301045903E+03  0.37662646338E+03  0.10566000000E+00 0. -1.
          4    1    1    2  501    0  0.13357121230E+02  0.52491919497E+03 -0.84116197048E+03  0.99160074350E+03  0.00000000000E+00 0.  1.
</event>
<event>
 5    1  0.4866530E-005  0.3060871E+03  0.7818608E-02  0.1009529E+00
          4   -1    0    0  502    0 -0.00000000000E+00  0.00000000000E+00  0.34947365026E+03  0.34947365026E+03  0.00000000000E+00 0.  1.
         21   -1    0    0  501  502  0.00000000000E+00 -0.00000000000E+00 -0.12346616214E+04  0.12346616214E+04  0.00000000000E+00 0.  1.
        -13    1    1    2    0    0 -0.12877869141E+03 -0.16384971365E+03  0.22660172370E+03  0.30786203465E+03  0.10566000000E+00 0.  1.
         13    1    1    2    0    0  0.21498626366E+03 -0.15135993824E+03 -0.28763590538E+03  0.38969648407E+03  0.10566000000E+00 0. -1.
          4    1    1    2  501    0 -0.86207572250E+02  0.31520965190E+03 -0.82415378945E+03  0.88657675293E+03  0.00000000000E+00 0.  1.
</event>
<event>
 5    1  0.4866530E-005  0.4350229E+02  0.7818608E-02  0.1320771E+00
         21   -1    0    0  501  502  0.00000000000E+00  0.00000000000E+00  0.48194712468E+02  0.48194712468E+02  0.00000000000E+00 0. -1.
         -4   -1    0    0    0  501 -0.00000000000E+00 -0.00000000000E+00 -0.97125916845E+02  0.97125916845E+02  0.00000000000E+00 0. -1.
        -13    1    1    2    0    0 -0.30219224503E+02  0.19747033519E+02 -0.43405919032E+01  0.36359300935E+02  0.10566000000E+00 0.  1.
         13    1    1    2    0    0  0.35972145100E+02 -0.30211327195E+02 -0.68019771666E+02  0.82664502753E+02  0.10566000000E+00 0. -1.
         -4    1    1    2    0  502 -0.57529205977E+01  0.10464293675E+02  0.23429159191E+02  0.26296825625E+02  0.00000000000E+00 0. -1.
</event>
<event>
 5    1  0.4866530E-005  0.5468571E+03  0.7818608E-02  0.1001260E+00
          4   -1    0    0  502    0 -0.00000000000E+00  0.00000000000E+00  0.58542221651E+03  0.58542221651E+03  0.00000000000E+00 0.  1.
         21   -1    0    0  501  502  0.00000000000E+00 -0.00000000000E+00 -0.83488771782E+03  0.83488771782E+03  0.00000000000E+00 0.  1.
        -13    1    1    2    0    0  0.57667292987E+02  0.51425536847E+03 -0.15653140878E+03  0.54063499126E+03  0.10566000000E+00 0.  1.
         13    1    1    2    0    0 -0.18055191622E+02  0.57511691251E+02  0.21900344966E+03  0.22714776402E+03  0.10566000000E+00 0. -1.
          4    1    1    2  501    0 -0.39612101364E+02 -0.57176705972E+03 -0.31193754219E+03  0.65252717904E+03  0.00000000000E+00 0.  1.
</event>
<event>
 5    1  0.4866530E-005  0.3347840E+03  0.7818608E-02  0.9939011E-01
         21   -1    0    0  501  502  0.00000000000E+00  0.00000000000E+00  0.37412234531E+03  0.37412234531E+03  0.00000000000E+00 0.  1.
          4   -1    0    0  502    0 -0.00000000000E+00 -0.00000000000E+00 -0.12709861390E+04  0.12709861390E+04  0.00000000000E+00 0.  1.
        -13    1    1    2    0    0  0.31615490599E+03 -0.39537785016E+03  0.66347009743E+02  0.51056782688E+03  0.10566000000E+00 0.  1.
         13    1    1    2    0    0 -0.27333660045E+03  0.13832101306E+03 -0.33247569913E+03  0.45209036871E+03  0.10566000000E+00 0. -1.
          4    1    1    2  501    0 -0.42818305538E+02  0.25705683709E+03 -0.63073510432E+03  0.68245028874E+03  0.00000000000E+00 0.  1.
</event>
<event>
 5    1  0.4866530E-005  0.3765167E+02  0.7818608E-02  0.1352245E+00
         21   -1    0    0  501  502  0.00000000000E+00  0.00000000000E+00  0.93246630274E+02  0.93246630274E+02  0.00000000000E+00 0. -1.
          4   -1    0    0  502    0 -0.00000000000E+00 -0.00000000000E+00 -0.54973458537E+02  0.54973458537E+02  0.00000000000E+00 0.  1.
        -13    1    1    2    0    0 -0.37296998318E+02 -0.93496599955E+01 -0.39157116732E+02  0.54879624456E+02  0.10566000000E+00 0.  1.
         13    1    1    2    0    0  0.34482273445E+02 -0.71524523952E+01  0.48893653269E+02  0.60255997637E+02  0.10566000000E+00 0. -1.
          4    1    1    2  501    0  0.28147248729E+01  0.16502112391E+02  0.28536635200E+02  0.33084466718E+02  0.00000000000E+00 0.  1.
</event>
<event>
 5    1  0.4866530E-005  0.2361293E+03  0.7818608E-02  0.1037842E+00
         21   -1    0    0  501  502  0.00000000000E+00  0.00000000000E+00  0.51620968830E+02  0.51620968830E+02  0.00000000000E+00 0.  1.
         -4   -1    0    0    0  501 -0.00000000000E+00 -0.00000000000E+00 -0.14376119343E+04  0.14376119343E+04  0.00000000000E+00 0. -1.
        -13    1    1    2    0    0  0.23596036409E+03  0.56201402322E+02 -0.81986662089E+03  0.85499542587E+03  0.10566000000E+00 0.  1.
         13    1    1    2    0    0 -0.22177379371E+03 -0.53495326078E+02 -0.57408025607E+03  0.61774874914E+03  0.10566000000E+00 0. -1.
         -4    1    1    2    0  502 -0.14186570379E+02 -0.27060762442E+01  0.79559114843E+01  0.16488728129E+02  0.00000000000E+00 0. -1.
</event>
<event>
 5    1  0.4866530E-005  0.3180071E+03  0.7818608E-02  0.1000137E+00
         21   -1    0    0  501  502  0.00000000000E+00  0.00000000000E+00  0.27823166764E+03  0.27823166764E+03  0.00000000000E+00 0.  1.
          4   -1    0    0  502    0 -0.00000000000E+00 -0.00000000000E+00 -0.13620616903E+04  0.13620616903E+04  0.00000000000E+00 0.  1.
        -13    1    1    2    0    0  0.33310094267E+03  0.92179299381E+02 -0.87805754047E+03  0.94363039204E+03  0.10566000000E+00 0.  1.
         13    1    1    2    0    0 -0.28100268565E+03 -0.29189509051E+02 -0.39782748740E+03  0.48793571060E+03  0.10566000000E+00 0. -1.
          4    1    1    2  501    0 -0.52098257020E+02 -0.62989790330E+02  0.19205500522E+03  0.20872725529E+03  0.00000000000E+00 0.  1.
</event>
<event>
 5    1  0.4866530E-005  0.4798125E+03  0.7818608E-02  0.1015076E+00
         21   -1    0    0  501  502  0.00000000000E+00  0.00000000000E+00  0.13471245055E+03  0.13471245055E+03  0.00000000000E+00 0.  1.
          4   -1    0    0  502    0 -0.00000000000E+00 -0.00000000000E+00 -0.20045631861E+04  0.20045631861E+04  0.00000000000E+00 0.  1.
        -13    1    1    2    0    0  0.46664795696E+03 -0.11945202075E+02 -0.76304016993E+03  0.89450171363E+03  0.10566000000E+00 0.  1.
         13    1    1    2    0    0  0.27767179753E+02  0.49960524003E+02 -0.23455429267E+03  0.24141830420E+03  0.10566000000E+00 0. -1.
          4    1    1    2  501    0 -0.49441513672E+03 -0.38015321928E+02 -0.87225627298E+03  0.10033556188E+04  0.00000000000E+00 0.  1.
</event>
<event>
 5    1  0.4866530E-005  0.4854068E+03  0.7818608E-02  0.1005646E+00
         21   -1    0    0  501  502  0.00000000000E+00  0.00000000000E+00  0.13699143004E+03  0.13699143004E+03  0.00000000000E+00 0.  1.
          4   -1    0    0  502    0 -0.00000000000E+00 -0.00000000000E+00 -0.21247660093E+04  0.21247660093E+04  0.00000000000E+00 0.  1.
        -13    1    1    2    0    0  0.12602261056E+02  0.43970476611E+03 -0.11978002421E+04  0.12760190161E+04  0.10566000000E+00 0.  1.
         13    1    1    2    0    0  0.85837621992E+01  0.74233829299E+02 -0.87311301520E+02  0.11492439655E+03  0.10566000000E+00 0. -1.
          4    1    1    2  501    0 -0.21186023255E+02 -0.51393859541E+03 -0.70266303566E+03  0.87081402671E+03  0.00000000000E+00 0.  1.
</event>
<event>
 5    1  0.4866530E-005  0.4456129E+02  0.7818608E-02  0.1315670E+00
         -4   -1    0    0    0  501 -0.00000000000E+00  0.00000000000E+00  0.12054081931E+03  0.12054081931E+03  0.00000000000E+00 0. -1.
         21   -1    0    0  501  502  0.00000000000E+00 -0.00000000000E+00 -0.38378377666E+02  0.38378377666E+02  0.00000000000E+00 0. -1.
        -13    1    1    2    0    0 -0.40869257991E+02 -0.60417120167E+01  0.55630097735E+02  0.69292982840E+02  0.10566000000E+00 0.  1.
         13    1    1    2    0    0  0.48282750990E+02  0.32305275189E+02  0.21059997826E+02  0.61793118716E+02  0.10566000000E+00 0. -1.
         -4    1    1    2    0  502 -0.74134929991E+01 -0.26263563172E+02  0.54723460812E+01  0.27833095418E+02  0.00000000000E+00 0. -1.
</event>
<event>
 5    1  0.4866530E-005  0.2280016E+03  0.7818608E-02  0.1042468E+00
         21   -1    0    0  501  502  0.00000000000E+00  0.00000000000E+00  0.39417433545E+02  0.39417433545E+02  0.00000000000E+00 0.  1.
         -4   -1    0    0    0  501 -0.00000000000E+00 -0.00000000000E+00 -0.18980259781E+04  0.18980259781E+04  0.00000000000E+00 0. -1.
        -13    1    1    2    0    0 -0.16657656114E+03  0.16033302949E+03 -0.97107633523E+03  0.99822026181E+03  0.10566000000E+00 0.  1.
         13    1    1    2    0    0  0.15489482812E+03 -0.16297701245E+03 -0.89649712920E+03  0.92426242388E+03  0.10566000000E+00 0. -1.
         -4    1    1    2    0  502  0.11681733026E+02  0.26439829592E+01  0.89649198880E+01  0.14960725951E+02  0.00000000000E+00 0. -1.
</event>
<event>
 5    1  0.4866530E-005  0.5561870E+02  0.7818608E-02  0.1270462E+00
         21   -1    0    0  501  502  0.00000000000E+00  0.00000000000E+00  0.21123487217E+03  0.21123487217E+03  0.00000000000E+00 0. -1.
          4   -1    0    0  502    0 -0.00000000000E+00 -0.00000000000E+00 -0.29188860043E+02  0.29188860043E+02  0.00000000000E+00 0.  1.
        -13    1    1    2    0    0  0.68204953677E+01 -0.55137489095E+02  0.13200961134E+02  0.57104626780E+02  0.10566000000E+00 0.  1.
         13    1    1    2    0    0 -0.20368262584E+02  0.53463453937E+02  0.14439851100E+03  0.15531950351E+03  0.10566000000E+00 0. -1.
          4    1    1    2  501    0  0.13547767216E+02  0.16740351580E+01  0.24446539990E+02  0.27999601921E+02  0.00000000000E+00 0.  1.
</event>
<event>
 5    1  0.4866530E-005  0.4609492E+03  0.7818608E-02  0.9567933E-01
         21   -1    0    0  501  502  0.00000000000E+00  0.00000000000E+00  0.72025937120E+02  0.72025937120E+02  0.00000000000E+00 0.  1.
         -4   -1    0    0    0  501 -0.00000000000E+00 -0.00000000000E+00 -0.33136784257E+04  0.33136784257E+04  0.00000000000E+00 0. -1.
        -13    1    1    2    0    0  0.44216397930E+03 -0.11673106414E+03 -0.11176919073E+04  0.12076300496E+04  0.10566000000E+00 0.  1.
         13    1    1    2    0    0 -0.44395983771E+03  0.13165758574E+03 -0.20935366105E+04  0.21441384302E+04  0.10566000000E+00 0. -1.
         -4    1    1    2    0  502  0.17958584111E+01 -0.14926521598E+02 -0.30423970816E+02  0.33935882995E+02  0.00000000000E+00 0. -1.
</event>
<event>
 5    1  0.4866530E-005  0.2567013E+03  0.7818608E-02  0.1026977E+00
         21   -1    0    0  501  502  0.00000000000E+00  0.00000000000E+00  0.80148293306E+02  0.80148293306E+02  0.00000000000E+00 0. -1.
          4   -1    0    0  502    0 -0.00000000000E+00 -0.00000000000E+00 -0.10847866790E+04  0.10847866790E+04  0.00000000000E+00 0.  1.
        -13    1    1    2    0    0 -0.15250213057E+03 -0.20074795793E+03 -0.49000723311E+03  0.55105693182E+03  0.10566000000E+00 0.  1.
         13    1    1    2    0    0  0.16229230881E+03  0.20478397083E+03 -0.53247337607E+03  0.59312998204E+03  0.10566000000E+00 0. -1.
          4    1    1    2  501    0 -0.97901782388E+01 -0.40360129021E+01  0.17842223490E+02  0.20748058443E+02  0.00000000000E+00 0.  1.
</event>
<event>
 5    1  0.4866530E-005  0.7899328E+03  0.7818608E-02  0.9001833E-01
         21   -1    0    0  501  502  0.00000000000E+00  0.00000000000E+00  0.10274906482E+04  0.10274906482E+04  0.00000000000E+00 0. -1.
         -4   -1    0    0    0  501 -0.00000000000E+00 -0.00000000000E+00 -0.23578558633E+04  0.23578558633E+04  0.00000000000E+00 0. -1.
        -13    1    1    2    0    0  0.90829838996E+02 -0.76303567312E+03 -0.24493660185E+03  0.80651562180E+03  0.10566000000E+00 0.  1.
         13    1    1    2    0    0 -0.14339113978E+03  0.78392583175E+03 -0.17441990454E+04  0.19176368400E+04  0.10566000000E+00 0. -1.
         -4    1    1    2    0  502  0.52561300787E+02 -0.20890158623E+02  0.65877043223E+03  0.66119404977E+03  0.00000000000E+00 0. -1.
</event>
<event>
 5    1  0.4866530E-005  0.3538135E+03  0.7818608E-02  0.1048507E+00
         21   -1    0    0  501  502  0.00000000000E+00  0.00000000000E+00  0.38638444223E+03  0.38638444223E+03  0.00000000000E+00 0. -1.
         -4   -1    0    0    0  501 -0.00000000000E+00 -0.00000000000E+00 -0.71748772807E+03  0.71748772807E+03  0.00000000000E+00 0. -1.
        -13    1    1    2    0    0 -0.42177228583E+02  0.28503980566E+02  0.18421545064E+02  0.54136494213E+02  0.10566000000E+00 0.  1.
         13    1    1    2    0    0  0.12528176591E+03 -0.36651859443E+03 -0.53094249008E+03  0.65721483540E+03  0.10566000000E+00 0. -1.
         -4    1    1    2    0  502 -0.83104537327E+02  0.33801461386E+03  0.18141765919E+03  0.39252084069E+03  0.00000000000E+00 0. -1.
</event>
<event>
 5    1  0.4866530E-005  0.3552411E+03  0.7818608E-02  0.9868044E-01
          4   -1    0    0  502    0 -0.00000000000E+00  0.00000000000E+00  0.40267505376E+03  0.40267505376E+03  0.00000000000E+00 0.  1.
         21   -1    0    0  501  502  0.00000000000E+00 -0.00000000000E+00 -0.10900159136E+04  0.10900159136E+04  0.00000000000E+00 0.  1.
        -13    1    1    2    0    0 -0.15141264026E+03  0.34069608112E+03  0.21338654574E+03  0.42957355178E+03  0.10566000000E+00 0.  1.
         13    1    1    2    0    0  0.17352587319E+03 -0.25608057447E+03 -0.22688021793E+03  0.38361847419E+03  0.10566000000E+00 0. -1.
          4    1    1    2  501    0 -0.22113232934E+02 -0.84615506652E+02 -0.67384718769E+03  0.67949894142E+03  0.00000000000E+00 0.  1.
</event>
<event>
 5    1  0.4866530E-005  0.4320714E+03  0.7818608E-02  0.9640747E-01
         -4   -1    0    0    0  501 -0.00000000000E+00  0.00000000000E+00  0.23390878208E+04  0.23390878208E+04  0.00000000000E+00 0. -1.
         21   -1    0    0  501  502  0.00000000000E+00 -0.00000000000E+00 -0.34339320454E+03  0.34339320454E+03  0.00000000000E+00 0. -1.
        -13    1    1    2    0    0  0.45359506722E+03 -0.33190490858E+03  0.29565465634E+03  0.63507561780E+03  0.10566000000E+00 0.  1.
         13    1    1    2    0    0 -0.16071271490E+03  0.39107685908E+03  0.16966985942E+04  0.17485868058E+04  0.10566000000E+00 0. -1.
         -4    1    1    2    0  502 -0.29288235233E+03 -0.59171950507E+02  0.33413656753E+01  0.29881860176E+03  0.00000000000E+00 0. -1.
</event>
<event>
 5    1  0.4866530E-005  0.2280347E+03  0.7818608E-02  0.1042449E+00
          4   -1    0    0  502    0 -0.00000000000E+00  0.00000000000E+00  0.13104050203E+03  0.13104050203E+03  0.00000000000E+00 0.  1.
         21   -1    0    0  501  502  0.00000000000E+00 -0.00000000000E+00 -0.68145943614E+03  0.68145943614E+03  0.00000000000E+00 0. -1.
        -13    1    1    2    0    0  0.15080996646E+03  0.17814474389E+03 -0.72164574645E+02  0.24430909266E+03  0.10566000000E+00 0.  1.
         13    1    1    2    0    0 -0.14011851300E+03 -0.16824023833E+03 -0.22298743675E+03  0.31250821364E+03  0.10566000000E+00 0. -1.
          4    1    1    2  501    0 -0.10691453456E+02 -0.99045055663E+01 -0.25526692272E+03  0.25568263187E+03  0.00000000000E+00 0.  1.
</event>
<event>
 5    1  0.4866530E-005  0.1103776E+03  0.7818608E-02  0.1148441E+00
         21   -1    0    0  501  502  0.00000000000E+00  0.00000000000E+00  0.18915894047E+03  0.18915894047E+03  0.00000000000E+00 0. -1.
         -4   -1    0    0    0  501 -0.00000000000E+00 -0.00000000000E+00 -0.28270389720E+03  0.28270389720E+03  0.00000000000E+00 0. -1.
        -13    1    1    2    0    0 -0.97001112443E+02  0.36885025034E+02 -0.18431714794E+03  0.21152433211E+03  0.10566000000E+00 0.  1.
         13    1    1    2    0    0  0.14610096660E+03 -0.89952327893E+02  0.59936272703E+02  0.18173959856E+03  0.10566000000E+00 0. -1.
         -4    1    1    2    0  502 -0.49099854154E+02  0.53067302859E+02  0.30835918505E+02  0.78598906994E+02  0.00000000000E+00 0. -1.
</event>
<event>
 5    1  0.4866530E-005  0.1769870E+03  0.7818608E-02  0.1079690E+00
         -4   -1    0    0    0  501 -0.00000000000E+00  0.00000000000E+00  0.15425057104E+03  0.15425057104E+03  0.00000000000E+00 0. -1.
         21   -1    0    0  501  502  0.00000000000E+00 -0.00000000000E+00 -0.53123824297E+03  0.53123824297E+03  0.00000000000E+00 0. -1.
        -13    1    1    2    0    0  0.16326820501E+03 -0.22840837249E+02 -0.11923639934E+03  0.20345894108E+03  0.10566000000E+00 0.  1.
         13    1    1    2    0    0 -0.18813031634E+03 -0.14234402444E+03 -0.11572435732E+03  0.26276791140E+03  0.10566000000E+00 0. -1.
         -4    1    1    2    0  502  0.24862111325E+02  0.16518486169E+03 -0.14202691527E+03  0.21926196153E+03  0.00000000000E+00 0. -1.
</event>
<event>
 5    1  0.4866530E-005  0.4370541E+03  0.7818608E-02  0.9627760E-01
         21   -1    0    0  501  502  0.00000000000E+00  0.00000000000E+00  0.15932937160E+03  0.15932937160E+03  0.00000000000E+00 0.  1.
         -4   -1    0    0    0  501 -0.00000000000E+00 -0.00000000000E+00 -0.14373695608E+04  0.14373695608E+04  0.00000000000E+00 0. -1.
        -13    1    1    2    0    0 -0.26818447228E+03  0.35506711712E+03 -0.73476789261E+03  0.85899908964E+03  0.10566000000E+00 0.  1.
         13    1    1    2    0    0  0.20579390773E+03 -0.37702763071E+03 -0.49745351465E+03  0.65723738267E+03  0.10566000000E+00 0. -1.
         -4    1    1    2    0  502  0.62390564547E+02  0.21960513588E+02 -0.45818781907E+02  0.80462460048E+02  0.00000000000E+00 0. -1.
</event>
<event>
 5    1  0.4866530E-005  0.3162872E+03  0.7818608E-02  0.1011937E+00
         -4   -1    0    0    0  501 -0.00000000000E+00  0.00000000000E+00  0.20661045597E+04  0.20661045597E+04  0.00000000000E+00 0. -1.
         21   -1    0    0  501  502  0.00000000000E+00 -0.00000000000E+00 -0.19192541757E+03  0.19192541757E+03  0.00000000000E+00 0. -1.
        -13    1    1    2    0    0 -0.19592805756E+03 -0.10132213780E+03  0.25408533349E+03  0.33647191147E+03  0.10566000000E+00 0.  1.
         13    1    1    2    0    0 -0.28965076368E+03 -0.44927674796E+02  0.85481672189E+02  0.30532472600E+03  0.10566000000E+00 0. -1.
         -4    1    1    2    0  502  0.48557882124E+03  0.14624981260E+03  0.15346121365E+04  0.16162333398E+04  0.00000000000E+00 0. -1.
</event>
<event>
 5    1  0.4866530E-005  0.3201032E+03  0.7818608E-02  0.9993360E-01
         21   -1    0    0  501  502  0.00000000000E+00  0.00000000000E+00  0.82926622319E+03  0.82926622319E+03  0.00000000000E+00 0.  1.
          4   -1    0    0  502    0 -0.00000000000E+00 -0.00000000000E+00 -0.58668487154E+03  0.58668487154E+03  0.00000000000E+00 0.  1.
        -13    1    1    2    0    0 -0.28025233835E+03  0.17023398113E+03 -0.32605977774E+03  0.46242401679E+03  0.10566000000E+00 0.  1.
         13    1    1    2    0    0  0.22129806472E+03 -0.21874889671E+03 -0.62839841711E+02  0.31744727142E+03  0.10566000000E+00 0. -1.
          4    1    1    2  501    0  0.58954273628E+02  0.48514915579E+02  0.63148097110E+03  0.63607980652E+03  0.00000000000E+00 0.  1.
</event>
<event>
 5    1  0.4866530E-005  0.4886587E+03  0.7818608E-02  0.9503182E-01
         -4   -1    0    0    0  501 -0.00000000000E+00  0.00000000000E+00  0.18643383091E+04  0.18643383091E+04  0.00000000000E+00 0. -1.
         21   -1    0    0  501  502  0.00000000000E+00 -0.00000000000E+00 -0.33525798687E+03  0.33525798687E+03  0.00000000000E+00 0. -1.
        -13    1    1    2    0    0  0.23056478514E+03 -0.35979105867E+03  0.73670487805E+03  0.85167118922E+03  0.10566000000E+00 0.  1.
         13    1    1    2    0    0 -0.66751075347E+02  0.68013080769E+03  0.69605092847E+03  0.97545913693E+03  0.10566000000E+00 0. -1.
         -4    1    1    2    0  502 -0.16381370980E+03 -0.32033974902E+03  0.96324515669E+02  0.37246596977E+03  0.00000000000E+00 0. -1.
</event>
<event>
 5    1  0.4866530E-005  0.2448767E+03  0.7818608E-02  0.1043329E+00
         21   -1    0    0  501  502  0.00000000000E+00  0.00000000000E+00  0.32531795386E+03  0.32531795386E+03  0.00000000000E+00 0. -1.
         -4   -1    0    0    0  501 -0.00000000000E+00 -0.00000000000E+00 -0.12503040498E+04  0.12503040498E+04  0.00000000000E+00 0. -1.
        -13    1    1    2    0    0  0.37777964152E+02  0.17530070416E+03 -0.40132569492E+03  0.43956778320E+03  0.10566000000E+00 0.  1.
         13    1    1    2    0    0  0.16818754800E+03 -0.18704718333E+03  0.23839815658E+03  0.34656513430E+03  0.10566000000E+00 0. -1.
         -4    1    1    2    0  502 -0.20596551215E+03  0.11746479168E+02 -0.76205855762E+03  0.78948908618E+03  0.00000000000E+00 0. -1.
</event>
<event>
 5    1  0.4866530E-005  0.4007381E+02  0.7818608E-02  0.1338477E+00
         -4   -1    0    0    0  501 -0.00000000000E+00  0.00000000000E+00  0.13205933252E+03  0.13205933252E+03  0.00000000000E+00 0. -1.
         21   -1    0    0  501  502  0.00000000000E+00 -0.00000000000E+00 -0.22853778989E+03  0.22853778989E+03  0.00000000000E+00 0. -1.
        -13    1    1    2    0    0 -0.14561840354E+02  0.49431113713E+02 -0.19704123740E+02  0.55170153651E+02  0.10566000000E+00 0.  1.
         13    1    1    2    0    0  0.11493831270E+02 -0.37321718394E+02  0.11077764847E+03  0.11745942868E+03  0.10566000000E+00 0. -1.
         -4    1    1    2    0  502  0.30680090844E+01 -0.12109395319E+02 -0.18755198210E+03  0.18796754008E+03  0.00000000000E+00 0. -1.
</event>
<event>
 5    1  0.4866530E-005  0.4816347E+03  0.7818608E-02  0.9776137E-01
         -4   -1    0    0    0  501 -0.00000000000E+00  0.00000000000E+00  0.81987711434E+03  0.81987711434E+03  0.00000000000E+00 0. -1.
         21   -1    0    0  501  502  0.00000000000E+00 -0.00000000000E+00 -0.43463993910E+03  0.43463993910E+03  0.00000000000E+00 0. -1.
        -13    1    1    2    0    0 -0.13489573846E+03 -0.14054302859E+03  0.83591257292E+02  0.21198281204E+03  0.10566000000E+00 0.  1.
         13    1    1    2    0    0 -0.41557947244E+03  0.15809649690E+03  0.97789348059E+02  0.45526208716E+03  0.10566000000E+00 0. -1.
         -4    1    1    2    0  502  0.55047521090E+03 -0.17553468313E+02  0.20385656989E+03  0.58727215425E+03  0.00000000000E+00 0. -1.
</event>
<event>
 5    1  0.4866530E-005  0.1933667E+02  0.7818608E-02  0.1602636E+00
         21   -1    0    0  501  502  0.00000000000E+00  0.00000000000E+00  0.22831766577E+03  0.22831766577E+03  0.00000000000E+00 0. -1.
          4   -1    0    0  502    0 -0.00000000000E+00 -0.00000000000E+00 -0.30746873522E+02  0.30746873522E+02  0.00000000000E+00 0.  1.
        -13    1    1    2    0    0 -0.10975259153E+02 -0.51372778381E-01 -0.23785499082E+02  0.26195802780E+02  0.10566000000E+00 0.  1.
         13    1    1    2    0    0  0.17065364316E+02  0.33386269161E+02  0.13473762381E+03  0.13985745622E+03  0.10566000000E+00 0. -1.
          4    1    1    2  501    0 -0.60901051629E+01 -0.33334896382E+02  0.86618667524E+02  0.93011280291E+02  0.00000000000E+00 0.  1.
</event>
<event>
 5    1  0.4866530E-005  0.9602194E+02  0.7818608E-02  0.1171310E+00
         -4   -1    0    0    0  501 -0.00000000000E+00  0.00000000000E+00  0.14660117263E+03  0.14660117263E+03  0.00000000000E+00 0. -1.
         21   -1    0    0  501  502  0.00000000000E+00 -0.00000000000E+00 -0.78378980796E+02  0.78378980796E+02  0.00000000000E+00 0.  1.
        -13    1    1    2    0    0 -0.69442378226E+02  0.71466045254E+02  0.57437171725E+02  0.11501599618E+03  0.10566000000E+00 0.  1.
         13    1    1    2    0    0  0.69241333959E+02 -0.60044097522E+02  0.21678911498E+02  0.94178778626E+02  0.10566000000E+00 0. -1.
         -4    1    1    2    0  502  0.20104426735E+00 -0.11421947732E+02 -0.10893891384E+02  0.15785378623E+02  0.00000000000E+00 0. -1.
</event>
<event>
 5    1  0.4866530E-005  0.3969640E+03  0.7818608E-02  0.9962419E-01
         21   -1    0    0  501  502  0.00000000000E+00  0.00000000000E+00  0.10227145684E+04  0.10227145684E+04  0.00000000000E+00 0.  1.
          4   -1    0    0  502    0 -0.00000000000E+00 -0.00000000000E+00 -0.65433837307E+03  0.65433837307E+03  0.00000000000E+00 0.  1.
        -13    1    1    2    0    0  0.14626561985E+03  0.20940516979E+03 -0.13719471400E+03  0.28994233461E+03  0.10566000000E+00 0.  1.
         13    1    1    2    0    0  0.32410529807E+02  0.18299616299E+03 -0.36837122837E+03  0.41259594177E+03  0.10566000000E+00 0. -1.
          4    1    1    2  501    0 -0.17867614966E+03 -0.39240133277E+03  0.87394213770E+03  0.97451466508E+03  0.00000000000E+00 0.  1.
</event>
<event>
 5    1  0.4866530E-005  0.4517850E+03  0.7818608E-02  0.9763103E-01
          4   -1    0    0  502    0 -0.00000000000E+00  0.00000000000E+00  0.21717399584E+04  0.21717399584E+04  0.00000000000E+00 0.  1.
         21   -1    0    0  501  502  0.00000000000E+00 -0.00000000000E+00 -0.16284212203E+03  0.16284212203E+03  0.00000000000E+00 0. -1.
        -13    1    1    2    0    0 -0.28924332413E+03  0.45863632758E+03  0.66053070973E+03  0.85458165859E+03  0.10566000000E+00 0.  1.
         13    1    1    2    0    0  0.21989105011E+03 -0.11213444361E+03  0.42725068812E+03  0.49342615357E+03  0.10566000000E+00 0. -1.
          4    1    1    2  501    0  0.69352274021E+02 -0.34650188398E+03  0.92111643849E+03  0.98657426825E+03  0.00000000000E+00 0.  1.
</event>
<event>
 5    1  0.4866530E-005  0.3930749E+03  0.7818608E-02  0.9749261E-01
         -4   -1    0    0    0  501 -0.00000000000E+00  0.00000000000E+00  0.27346180968E+04  0.27346180968E+04  0.00000000000E+00 0. -1.
         21   -1    0    0  501  502  0.00000000000E+00 -0.00000000000E+00 -0.22952012282E+03  0.22952012282E+03  0.00000000000E+00 0. -1.
        -13    1    1    2    0    0 -0.34954231127E+03 -0.18268330027E+03  0.13013278035E+04  0.13597819968E+04  0.10566000000E+00 0.  1.
         13    1    1    2    0    0  0.16936084903E+03  0.41905523936E+03  0.12256525041E+04  0.13063362747E+04  0.10566000000E+00 0. -1.
         -4    1    1    2    0  502  0.18018146224E+03 -0.23637193909E+03 -0.21882333566E+02  0.29801994807E+03  0.00000000000E+00 0. -1.
</event>
<event>
 5    1  0.4866530E-005  0.3443355E+02  0.7818608E-02  0.1372481E+00
         21   -1    0    0  501  502  0.00000000000E+00  0.00000000000E+00  0.13590059868E+03  0.13590059868E+03  0.00000000000E+00 0.  1.
          4   -1    0    0  502    0 -0.00000000000E+00 -0.00000000000E+00 -0.88994034582E+02  0.88994034582E+02  0.00000000000E+00 0.  1.
        -13    1    1    2    0    0  0.32082972710E+02 -0.13753066561E+02 -0.81411513371E+02  0.88579397442E+02  0.10566000000E+00 0.  1.
         13    1    1    2    0    0 -0.28499707301E+02 -0.66806611037E+00  0.60386148353E+02  0.66777074700E+02  0.10566000000E+00 0. -1.
          4    1    1    2  501    0 -0.35832654093E+01  0.14421132671E+02  0.67931929118E+02  0.69538161122E+02  0.00000000000E+00 0.  1.
</event>
<event>
 5    1  0.4866530E-005  0.3989466E+03  0.7818608E-02  0.9732093E-01
         -4   -1    0    0    0  501 -0.00000000000E+00  0.00000000000E+00  0.52299367838E+03  0.52299367838E+03  0.00000000000E+00 0. -1.
         21   -1    0    0  501  502  0.00000000000E+00 -0.00000000000E+00 -0.14326358673E+04  0.14326358673E+04  0.00000000000E+00 0. -1.
        -13    1    1    2    0    0  0.24531988197E+03  0.30127473671E+03  0.17693390026E+03  0.42691208427E+03  0.10566000000E+00 0.  1.
         13    1    1    2    0    0 -0.32149732908E+03 -0.39117440181E+03 -0.12375940509E+04  0.13371675255E+04  0.10566000000E+00 0. -1.
         -4    1    1    2    0  502  0.76177447104E+02  0.89899665103E+02  0.15101796166E+03  0.19154993599E+03  0.00000000000E+00 0. -1.
</event>
<event>
 5    1  0.4866530E-005  0.2371445E+03  0.7818608E-02  0.1037279E+00
         -4   -1    0    0    0  501 -0.00000000000E+00  0.00000000000E+00  0.55002119629E+03  0.55002119629E+03  0.00000000000E+00 0. -1.
         21   -1    0    0  501  502  0.00000000000E+00 -0.00000000000E+00 -0.40917354838E+03  0.40917354838E+03  0.00000000000E+00 0.  1.
        -13    1    1    2    0    0  0.88766746310E+02 -0.20017998013E+03 -0.27922363000E+03  0.35484842737E+03  0.10566000000E+00 0.  1.
         13    1    1    2    0    0 -0.11729442692E+03  0.20804603216E+03  0.48076631924E+03  0.53682157088E+03  0.10566000000E+00 0. -1.
         -4    1    1    2    0  502  0.28527680610E+02 -0.78660520283E+01 -0.60695041335E+02  0.67524746413E+02  0.00000000000E+00 0. -1.
</event>
<event>
 5    1  0.4866530E-005  0.1296081E+03  0.7818608E-02  0.1123165E+00
          4   -1    0    0  502    0 -0.00000000000E+00  0.00000000000E+00  0.83012277080E+03  0.83012277080E+03  0.00000000000E+00 0.  1.
         21   -1    0    0  501  502  0.00000000000E+00 -0.00000000000E+00 -0.39760939909E+02  0.39760939909E+02  0.00000000000E+00 0.  1.
        -13    1    1    2    0    0  0.11474412790E+03 -0.69345168651E+02  0.20153482784E+03  0.24205632671E+03  0.10566000000E+00 0.  1.
         13    1    1    2    0    0 -0.99770218468E+02  0.80846086901E+02  0.59442224202E+03  0.60813485284E+03  0.10566000000E+00 0. -1.
          4    1    1    2  501    0 -0.14973909433E+02 -0.11500918249E+02 -0.55952389745E+01  0.19692531160E+02  0.00000000000E+00 0.  1.
</event>
<event>
 5    1  0.4866530E-005  0.5860096E+03  0.7818608E-02  0.9307098E-01
         21   -1    0    0  501  502  0.00000000000E+00  0.00000000000E+00  0.41925452059E+03  0.41925452059E+03  0.00000000000E+00 0.  1.
          4   -1    0    0  502    0 -0.00000000000E+00 -0.00000000000E+00 -0.22995215986E+04  0.22995215986E+04  0.00000000000E+00 0.  1.
        -13    1    1    2    0    0 -0.28202574800E+03 -0.67492747630E+03 -0.97754752789E+02  0.73798483972E+03  0.10566000000E+00 0.  1.
         13    1    1    2    0    0  0.38629653772E+03  0.41487040375E+03 -0.13644872340E+04  0.14775546994E+04  0.10566000000E+00 0. -1.
          4    1    1    2  501    0 -0.10427078972E+03  0.26005707255E+03 -0.41802509120E+03  0.50323657999E+03  0.00000000000E+00 0.  1.
</event>
<event>
 5    1  0.4866530E-005  0.1579039E+03  0.7818608E-02  0.1093568E+00
         21   -1    0    0  501  502  0.00000000000E+00  0.00000000000E+00  0.66590565740E+03  0.66590565740E+03  0.00000000000E+00 0.  1.
         -4   -1    0    0    0  501 -0.00000000000E+00 -0.00000000000E+00 -0.84411519498E+02  0.84411519498E+02  0.00000000000E+00 0. -1.
        -13    1    1    2    0    0  0.16116237811E+03  0.82873373222E+02  0.45419482513E+03  0.48901355650E+03  0.10566000000E+00 0.  1.
         13    1    1    2    0    0 -0.14210219841E+03 -0.58058438819E+02  0.26520749459E+02  0.15577926186E+03  0.10566000000E+00 0. -1.
         -4    1    1    2    0  502 -0.19060179696E+02 -0.24814934403E+02  0.10077856332E+03  0.10552435853E+03  0.00000000000E+00 0. -1.
</event>
<event>
 5    1  0.4866530E-005  0.1969233E+03  0.7818608E-02  0.1062266E+00
         21   -1    0    0  501  502  0.00000000000E+00  0.00000000000E+00  0.99138224672E+03  0.99138224672E+03  0.00000000000E+00 0.  1.
         -4   -1    0    0    0  501 -0.00000000000E+00 -0.00000000000E+00 -0.80638874800E+02  0.80638874800E+02  0.00000000000E+00 0. -1.
        -13    1    1    2    0    0  0.20013809496E+03 -0.88845345817E+01  0.40303171264E+03  0.45007639858E+03  0.10566000000E+00 0.  1.
         13    1    1    2    0    0 -0.19464567148E+03  0.20052508185E+02  0.11085955084E+03  0.22489751374E+03  0.10566000000E+00 0. -1.
         -4    1    1    2    0  502 -0.54924234721E+01 -0.11167973603E+02  0.39685210844E+03  0.39704720919E+03  0.00000000000E+00 0. -1.
</event>
<event>
 5    1  0.4866530E-005  0.1020912E+03  0.7818608E-02  0.1207134E+00
         21   -1    0    0  501  502  0.00000000000E+00  0.00000000000E+00  0.23531122372E+03  0.23531122372E+03  0.00000000000E+00 0. -1.
         -4   -1    0    0    0  501 -0.00000000000E+00 -0.00000000000E+00 -0.13207417411E+03  0.13207417411E+03  0.00000000000E+00 0. -1.
        -13    1    1    2    0    0  0.19139399253E+02  0.29087098312E+02  0.38845413628E+02  0.52166590994E+02  0.10566000000E+00 0.  1.
         13    1    1    2    0    0  0.34616852881E+01  0.74685815216E+02 -0.96721448687E+02  0.12224976098E+03  0.10566000000E+00 0. -1.
         -4    1    1    2    0  502 -0.22601084541E+02 -0.10377291353E+03  0.16111308468E+03  0.19296904586E+03  0.00000000000E+00 0. -1.
</event>
<event>
 5    1  0.4866530E-005  0.4786858E+03  0.7818608E-02  0.9774387E-01
         21   -1    0    0  501  502  0.00000000000E+00  0.00000000000E+00  0.17065505479E+03  0.17065505479E+03  0.00000000000E+00 0.  1.
          4   -1    0    0  502    0 -0.00000000000E+00 -0.00000000000E+00 -0.24586316163E+04  0.24586316163E+04  0.00000000000E+00 0.  1.
        -13    1    1    2    0    0  0.47323580217E+03 -0.18858111886E+03 -0.77643691381E+03  0.92863838772E+03  0.10566000000E+00 0.  1.
         13    1    1    2    0    0 -0.22872365484E+02  0.19830853464E+03 -0.10878930361E+03  0.22734234924E+03  0.10566000000E+00 0. -1.
          4    1    1    2  501    0 -0.45036343668E+03 -0.97274157786E+01 -0.14027503441E+04  0.14733059341E+04  0.00000000000E+00 0.  1.
</event>
<event>
 5    1  0.4866530E-005  0.1155876E+03  0.7818608E-02  0.1215866E+00
         -4   -1    0    0    0  501 -0.00000000000E+00  0.00000000000E+00  0.19317544251E+03  0.19317544251E+03  0.00000000000E+00 0. -1.
         21   -1    0    0  501  502  0.00000000000E+00 -0.00000000000E+00 -0.22601265824E+03  0.22601265824E+03  0.00000000000E+00 0. -1.
        -13    1    1    2    0    0  0.26778880524E+01 -0.19556307914E+02 -0.43665520892E+02  0.47919819934E+02  0.10566000000E+00 0.  1.
         13    1    1    2    0    0  0.91790990791E+02  0.84437499406E+02  0.14733268148E+03  0.19303421327E+03  0.10566000000E+00 0. -1.
         -4    1    1    2    0  502 -0.94468878843E+02 -0.64881191492E+02 -0.13650437632E+03  0.17823406755E+03  0.00000000000E+00 0. -1.
</event>
<event>
 5    1  0.4866530E-005  0.3595814E+03  0.7818608E-02  0.9911893E-01
          4   -1    0    0  502    0 -0.00000000000E+00  0.00000000000E+00  0.48746967636E+04  0.48746967636E+04  0.00000000000E+00 0.  1.
         21   -1    0    0  501  502  0.00000000000E+00 -0.00000000000E+00 -0.98868096056E+02  0.98868096056E+02  0.00000000000E+00 0.  1.
        -13    1    1    2    0    0 -0.25858099023E+03 -0.28270278602E+03  0.40517486454E+03  0.55763041143E+03  0.10566000000E+00 0.  1.
         13    1    1    2    0    0 -0.68284781347E+02  0.28771599500E+03  0.17252645693E+04  0.17504231346E+04  0.10566000000E+00 0. -1.
          4    1    1    2  501    0  0.32686577158E+03 -0.50132089801E+01  0.26453892337E+04  0.26655113136E+04  0.00000000000E+00 0.  1.
</event>
<event>
 5    1  0.4866530E-005  0.3704527E+03  0.7818608E-02  0.9818487E-01
         21   -1    0    0  501  502  0.00000000000E+00  0.00000000000E+00  0.16884937239E+03  0.16884937239E+03  0.00000000000E+00 0. -1.
          4   -1    0    0  502    0 -0.00000000000E+00 -0.00000000000E+00 -0.25820873169E+04  0.25820873169E+04  0.00000000000E+00 0.  1.
        -13    1    1    2    0    0  0.35257511206E+03  0.10366998709E+03 -0.21318854901E+04  0.21633290156E+04  0.10566000000E+00 0.  1.
         13    1    1    2    0    0 -0.36381192509E+03 -0.13347590905E+03 -0.34345087287E+03  0.51781603719E+03  0.10566000000E+00 0. -1.
          4    1    1    2  501    0  0.11236813032E+02  0.29805921969E+02  0.62098418435E+02  0.69791636488E+02  0.00000000000E+00 0.  1.
</event>
<event>
 5    1  0.4866530E-005  0.4947261E+03  0.7818608E-02  0.9666187E-01
         21   -1    0    0  501  502  0.00000000000E+00  0.00000000000E+00  0.15589052016E+03  0.15589052016E+03  0.00000000000E+00 0.  1.
         -4   -1    0    0    0  501 -0.00000000000E+00 -0.00000000000E+00 -0.27288395973E+04  0.27288395973E+04  0.00000000000E+00 0. -1.
        -13    1    1    2    0    0  0.17241953934E+03  0.19884892986E+03 -0.60492443753E+03  0.65969915926E+03  0.10566000000E+00 0.  1.
         13    1    1    2    0    0 -0.29022233754E+03  0.36129026173E+03 -0.80764493712E+03  0.93115520406E+03  0.10566000000E+00 0. -1.
         -4    1    1    2    0  502  0.11780279820E+03 -0.56013919159E+03 -0.11603797025E+04  0.12938757542E+04  0.00000000000E+00 0. -1.
</event>
<event>
 5    1  0.4866530E-005  0.4104353E+03  0.7818608E-02  0.9699383E-01
          4   -1    0    0  502    0 -0.00000000000E+00  0.00000000000E+00  0.21889024865E+04  0.21889024865E+04  0.00000000000E+00 0.  1.
         21   -1    0    0  501  502  0.00000000000E+00 -0.00000000000E+00 -0.93100706466E+02  0.93100706466E+02  0.00000000000E+00 0. -1.
        -13    1    1    2    0    0  0.30921277337E+03  0.28702386390E+03  0.12846887616E+04  0.13521909862E+04  0.10566000000E+00 0.  1.
         13    1    1    2    0    0 -0.29523874903E+03 -0.25617604147E+03  0.60063495062E+03  0.71662712635E+03  0.10566000000E+00 0. -1.
          4    1    1    2  501    0 -0.13974024336E+02 -0.30847822430E+02  0.21047806785E+03  0.21318508051E+03  0.00000000000E+00 0.  1.
</event>
<event>
 5    1  0.4866530E-005  0.4896734E+03  0.7818608E-02  0.9500897E-01
          4   -1    0    0  502    0 -0.00000000000E+00  0.00000000000E+00  0.10731762042E+04  0.10731762042E+04  0.00000000000E+00 0.  1.
         21   -1    0    0  501  502  0.00000000000E+00 -0.00000000000E+00 -0.40849259112E+03  0.40849259112E+03  0.00000000000E+00 0.  1.
        -13    1    1    2    0    0  0.50959708354E+03  0.77147363498E+02  0.46303442853E+02  0.51747939402E+03  0.10566000000E+00 0.  1.
         13    1    1    2    0    0 -0.48195481983E+03 -0.18330663668E+02  0.70605086114E+03  0.85505806309E+03  0.10566000000E+00 0. -1.
          4    1    1    2  501    0 -0.27642263713E+02 -0.58816699830E+02 -0.87670690946E+02  0.10913133818E+03  0.00000000000E+00 0.  1.
</event>
<event>
 5    1  0.4866530E-005  0.4555301E+03  0.7818608E-02  0.1004222E+00
         21   -1    0    0  501  502  0.00000000000E+00  0.00000000000E+00  0.11033313005E+04  0.11033313005E+04  0.00000000000E+00 0.  1.
          4   -1    0    0  502    0 -0.00000000000E+00 -0.00000000000E+00 -0.45545601307E+03  0.45545601307E+03  0.00000000000E+00 0.  1.
        -13    1    1    2    0    0  0.40787163837E+02 -0.43251381976E+03  0.61149746513E+03  0.75010729768E+03  0.10566000000E+00 0.  1.
         13    1    1    2    0    0  0.73190858880E+02 -0.60080618144E+02 -0.22165529103E+03  0.24103456537E+03  0.10566000000E+00 0. -1.
          4    1    1    2  501    0 -0.11397802272E+03  0.49259443790E+03  0.25803311333E+03  0.56764545051E+03  0.00000000000E+00 0.  1.
</event>
<event>
 5    1  0.4866530E-005  0.1977551E+03  0.7818608E-02  0.1061686E+00
         21   -1    0    0  501  502  0.00000000000E+00  0.00000000000E+00  0.28132941012E+03  0.28132941012E+03  0.00000000000E+00 0. -1.
         -4   -1    0    0    0  501 -0.00000000000E+00 -0.00000000000E+00 -0.47646015797E+03  0.47646015797E+03  0.00000000000E+00 0. -1.
        -13    1    1    2    0    0 -0.79670276613E+02 -0.18252036037E+03 -0.30312237558E+03  0.36269025444E+03  0.10566000000E+00 0.  1.
         13    1    1    2    0    0  0.99902136618E+02  0.16823810757E+03 -0.75661740159E+02  0.20978371678E+03  0.10566000000E+00 0. -1.
         -4    1    1    2    0  502 -0.20231860005E+02  0.14282252802E+02  0.18365336789E+03  0.18531559686E+03  0.00000000000E+00 0. -1.
</event>
<event>
 5    1  0.4866530E-005  0.1958404E+03  0.7818608E-02  0.1063025E+00
          4   -1    0    0  502    0 -0.00000000000E+00  0.00000000000E+00  0.22184652663E+03  0.22184652663E+03  0.00000000000E+00 0.  1.
         21   -1    0    0  501  502  0.00000000000E+00 -0.00000000000E+00 -0.40888195314E+03  0.40888195314E+03  0.00000000000E+00 0. -1.
        -13    1    1    2    0    0  0.33523027146E+00 -0.17927899846E+03  0.48913468143E+02  0.18583220979E+03  0.10566000000E+00 0.  1.
         13    1    1    2    0    0 -0.76611903631E+02  0.22900490377E+03 -0.63190278590E+02  0.24961100177E+03  0.10566000000E+00 0. -1.
          4    1    1    2  501    0  0.76276673359E+02 -0.49725905316E+02 -0.17275861606E+03  0.19528526822E+03  0.00000000000E+00 0.  1.
</event>
<event>
 5    1  0.4866530E-005  0.3626760E+02  0.7818608E-02  0.1360655E+00
         21   -1    0    0  501  502  0.00000000000E+00  0.00000000000E+00  0.23296231431E+02  0.23296231431E+02  0.00000000000E+00 0. -1.
          4   -1    0    0  502    0 -0.00000000000E+00 -0.00000000000E+00 -0.91941137515E+02  0.91941137515E+02  0.00000000000E+00 0.  1.
        -13    1    1    2    0    0  0.59870785889E+01 -0.29313363290E+02 -0.68296013307E+01  0.30688320185E+02  0.10566000000E+00 0.  1.
         13    1    1    2    0    0  0.26155465028E+00  0.39644159743E+02 -0.60597732087E+02  0.72414253505E+02  0.10566000000E+00 0. -1.
          4    1    1    2  501    0 -0.62486332392E+01 -0.10330796453E+02 -0.12175726668E+01  0.12134795256E+02  0.00000000000E+00 0.  1.
</event>
<event>
 5    1  0.4866530E-005  0.3726813E+03  0.7818608E-02  0.1011597E+00
         21   -1    0    0  501  502  0.00000000000E+00  0.00000000000E+00  0.43988139296E+03  0.43988139296E+03  0.00000000000E+00 0.  1.
          4   -1    0    0  502    0 -0.00000000000E+00 -0.00000000000E+00 -0.88915512818E+03  0.88915512818E+03  0.00000000000E+00 0.  1.
        -13    1    1    2    0    0  0.43251030066E+03  0.10465672683E+03 -0.64066927597E+03  0.78004828247E+03  0.10566000000E+00 0.  1.
         13    1    1    2    0    0 -0.11721028823E+03  0.69582054582E+02  0.12029362983E+03  0.18179791673E+03  0.10566000000E+00 0. -1.
          4    1    1    2  501    0 -0.31530001243E+03 -0.17423878141E+03  0.71101910915E+02  0.36719032194E+03  0.00000000000E+00 0.  1.
</event>
<event>
 5    1  0.4866530E-005  0.7153852E+02  0.7818608E-02  0.1225216E+00
         21   -1    0    0  501  502  0.00000000000E+00  0.00000000000E+00  0.46575820498E+03  0.46575820498E+03  0.00000000000E+00 0. -1.
         -4   -1    0    0    0  501 -0.00000000000E+00 -0.00000000000E+00 -0.39793851899E+02  0.39793851899E+02  0.00000000000E+00 0. -1.
        -13    1    1    2    0    0  0.52046420628E+02 -0.51892915810E+02  0.67364151277E+02  0.99697766538E+02  0.10566000000E+00 0.  1.
         13    1    1    2    0    0 -0.72893614279E+02 -0.20615992339E+02  0.56572777795E+02  0.94546224115E+02  0.10566000000E+00 0. -1.
         -4    1    1    2    0  502  0.20847193651E+02  0.72508908148E+02  0.30202742401E+03  0.31130806622E+03  0.00000000000E+00 0. -1.
</event>
<event>
 5    1  0.4866530E-005  0.1975472E+03  0.7818608E-02  0.1069589E+00
          4   -1    0    0  502    0 -0.00000000000E+00  0.00000000000E+00  0.16848878010E+04  0.16848878010E+04  0.00000000000E+00 0.  1.
         21   -1    0    0  501  502  0.00000000000E+00 -0.00000000000E+00 -0.64153461760E+02  0.64153461760E+02  0.00000000000E+00 0.  1.
        -13    1    1    2    0    0  0.23825621511E+03 -0.19160546960E+03  0.10074149697E+04  0.10527884936E+04  0.10566000000E+00 0.  1.
         13    1    1    2    0    0 -0.77616721550E+02  0.13752036656E+03  0.33556899205E+03  0.37086758590E+03  0.10566000000E+00 0. -1.
          4    1    1    2  501    0 -0.16063949355E+03  0.54085103037E+02  0.27775037752E+03  0.32538518324E+03  0.00000000000E+00 0.  1.
</event>
<event>
 5    1  0.4866530E-005  0.9011577E+02  0.7818608E-02  0.1182034E+00
         -4   -1    0    0    0  501 -0.00000000000E+00  0.00000000000E+00  0.21675021760E+03  0.21675021760E+03  0.00000000000E+00 0. -1.
         21   -1    0    0  501  502  0.00000000000E+00 -0.00000000000E+00 -0.31227244131E+03  0.31227244131E+03  0.00000000000E+00 0. -1.
        -13    1    1    2    0    0  0.99000258157E+02  0.52599559095E+02 -0.99289758837E+02  0.14975390514E+03  0.10566000000E+00 0.  1.
         13    1    1    2    0    0 -0.67974201312E+02 -0.56634918988E+02  0.17984659794E+03  0.20043157448E+03  0.10566000000E+00 0. -1.
         -4    1    1    2    0  502 -0.31026056845E+02  0.40353598932E+01 -0.17607906281E+03  0.17883717928E+03  0.00000000000E+00 0. -1.
</event>
<event>
 5    1  0.4866530E-005  0.2800903E+03  0.7818608E-02  0.1031291E+00
         -4   -1    0    0    0  501 -0.00000000000E+00  0.00000000000E+00  0.86411741098E+03  0.86411741098E+03  0.00000000000E+00 0. -1.
         21   -1    0    0  501  502  0.00000000000E+00 -0.00000000000E+00 -0.29662966023E+03  0.29662966023E+03  0.00000000000E+00 0. -1.
        -13    1    1    2    0    0 -0.15141610067E+03 -0.83504300088E+02  0.28251181479E+03  0.33122913570E+03  0.10566000000E+00 0.  1.
         13    1    1    2    0    0  0.39023689394E+03  0.16520041236E+03  0.37062627595E+03  0.56297411772E+03  0.10566000000E+00 0. -1.
         -4    1    1    2    0  502 -0.23882079327E+03 -0.81696112276E+02 -0.85650339991E+02  0.26654381778E+03  0.00000000000E+00 0. -1.
</event>
<event>
 5    1  0.4866530E-005  0.1527852E+03  0.7818608E-02  0.1098397E+00
         21   -1    0    0  501  502  0.00000000000E+00  0.00000000000E+00  0.48831476446E+02  0.48831476446E+02  0.00000000000E+00 0. -1.
         -4   -1    0    0    0  501 -0.00000000000E+00 -0.00000000000E+00 -0.81398117763E+03  0.81398117763E+03  0.00000000000E+00 0. -1.
        -13    1    1    2    0    0 -0.11015682126E+03  0.86200332978E+02 -0.13969378960E+03  0.19768507453E+03  0.10566000000E+00 0.  1.
         13    1    1    2    0    0  0.11232650414E+03 -0.11023917873E+03 -0.62093634018E+03  0.64057151808E+03  0.10566000000E+00 0. -1.
         -4    1    1    2    0  502 -0.21696828785E+01  0.24038845756E+02 -0.45195714088E+01  0.24556061467E+02  0.00000000000E+00 0. -1.
</event>
<event>
 5    1  0.4866530E-005  0.8412972E+02  0.7818608E-02  0.1193873E+00
         21   -1    0    0  501  502  0.00000000000E+00  0.00000000000E+00  0.47183937923E+02  0.47183937923E+02  0.00000000000E+00 0. -1.
          4   -1    0    0  502    0 -0.00000000000E+00 -0.00000000000E+00 -0.18072834462E+03  0.18072834462E+03  0.00000000000E+00 0.  1.
        -13    1    1    2    0    0 -0.76756843885E+01  0.90772530523E+02 -0.79497121153E+02  0.12090645915E+03  0.10566000000E+00 0.  1.
         13    1    1    2    0    0  0.48617485823E+01 -0.77031590124E+02 -0.51396558967E+02  0.92731439728E+02  0.10566000000E+00 0. -1.
          4    1    1    2  501    0  0.28139358062E+01 -0.13740940399E+02 -0.26507265811E+01  0.14274383670E+02  0.00000000000E+00 0.  1.
</event>
<event>
 5    1  0.4866530E-005  0.5164500E+03  0.7818608E-02  0.9442628E-01
         -4   -1    0    0    0  501 -0.00000000000E+00  0.00000000000E+00  0.16993993242E+04  0.16993993242E+04  0.00000000000E+00 0. -1.
         21   -1    0    0  501  502  0.00000000000E+00 -0.00000000000E+00 -0.35327526615E+03  0.35327526615E+03  0.00000000000E+00 0.  1.
        -13    1    1    2    0    0  0.42978948116E+03  0.13133979772E+03  0.58354763688E+03  0.73654395405E+03  0.10566000000E+00 0.  1.
         13    1    1    2    0    0 -0.57886160938E+03 -0.13155321460E+03  0.92282429072E+03  0.10972655530E+04  0.10566000000E+00 0. -1.
         -4    1    1    2    0  502  0.14907212822E+03  0.21341688215E+00 -0.16024786959E+03  0.21886508325E+03  0.00000000000E+00 0. -1.
</event>
<event>
 5    1  0.4866530E-005  0.1027046E+03  0.7818608E-02  0.1160157E+00
         -4   -1    0    0    0  501 -0.00000000000E+00  0.00000000000E+00  0.18423274910E+02  0.18423274910E+02  0.00000000000E+00 0. -1.
         21   -1    0    0  501  502  0.00000000000E+00 -0.00000000000E+00 -0.83286289453E+03  0.83286289453E+03  0.00000000000E+00 0.  1.
        -13    1    1    2    0    0  0.17158933896E+01  0.10136025946E+03 -0.33239987995E+03  0.34751480233E+03  0.10566000000E+00 0.  1.
         13    1    1    2    0    0  0.84337128489E+01 -0.10355288825E+03 -0.24017363149E+03  0.26168246522E+03  0.10566000000E+00 0. -1.
         -4    1    1    2    0  502 -0.10149606238E+02  0.21926287906E+01 -0.24186610818E+03  0.24208890189E+03  0.00000000000E+00 0. -1.
</event>
<event>
 5    1  0.4866530E-005  0.4591483E+03  0.7818608E-02  0.1026857E+00
          4   -1    0    0  502    0 -0.00000000000E+00  0.00000000000E+00  0.80320812753E+03  0.80320812753E+03  0.00000000000E+00 0.  1.
         21   -1    0    0  501  502  0.00000000000E+00 -0.00000000000E+00 -0.33063966332E+03  0.33063966332E+03  0.00000000000E+00 0.  1.
        -13    1    1    2    0    0  0.35870805312E+03  0.29102396893E+03  0.31700034726E+02  0.46300250672E+03  0.10566000000E+00 0.  1.
         13    1    1    2    0    0  0.20515038638E+02 -0.40083203641E+02  0.14016158919E+02  0.47159239808E+02  0.10566000000E+00 0. -1.
          4    1    1    2  501    0 -0.37922309176E+03 -0.25094076529E+03  0.42685227057E+03  0.62368604433E+03  0.00000000000E+00 0.  1.
</event>
<event>
 5    1  0.4866530E-005  0.1220355E+03  0.7818608E-02  0.1132507E+00
         21   -1    0    0  501  502  0.00000000000E+00  0.00000000000E+00  0.59015671881E+03  0.59015671881E+03  0.00000000000E+00 0. -1.
          4   -1    0    0  502    0 -0.00000000000E+00 -0.00000000000E+00 -0.49169331324E+02  0.49169331324E+02  0.00000000000E+00 0.  1.
        -13    1    1    2    0    0 -0.17762296153E+02  0.12570219032E+03  0.72501058601E+02  0.14619491947E+03  0.10566000000E+00 0.  1.
         13    1    1    2    0    0  0.97083805055E+01 -0.10116793833E+03  0.45010003694E+03  0.46143174881E+03  0.10566000000E+00 0. -1.
          4    1    1    2  501    0  0.80539156475E+01 -0.24534251990E+02  0.18386291943E+02  0.31699381846E+02  0.00000000000E+00 0.  1.
</event>
<event>
 5    1  0.4866530E-005  0.8309057E+02  0.7818608E-02  0.1205070E+00
         -4   -1    0    0    0  501 -0.00000000000E+00  0.00000000000E+00  0.10655552813E+03  0.10655552813E+03  0.00000000000E+00 0. -1.
         21   -1    0    0  501  502  0.00000000000E+00 -0.00000000000E+00 -0.50294549985E+03  0.50294549985E+03  0.00000000000E+00 0. -1.
        -13    1    1    2    0    0 -0.12918493326E+03  0.61725279849E+02 -0.13905592168E+03  0.19958786955E+03  0.10566000000E+00 0.  1.
         13    1    1    2    0    0  0.59623279182E+02 -0.16280599334E+02  0.57428355318E+02  0.84368361923E+02  0.10566000000E+00 0. -1.
         -4    1    1    2    0  502  0.69561654076E+02 -0.45444680515E+02 -0.31476240536E+03  0.32554479650E+03  0.00000000000E+00 0. -1.
</event>
<event>
 5    1  0.4866530E-005  0.7715164E+02  0.7818608E-02  0.1209123E+00
         21   -1    0    0  501  502  0.00000000000E+00  0.00000000000E+00  0.59686705381E+02  0.59686705381E+02  0.00000000000E+00 0. -1.
          4   -1    0    0  502    0 -0.00000000000E+00 -0.00000000000E+00 -0.22613704802E+03  0.22613704802E+03  0.00000000000E+00 0.  1.
        -13    1    1    2    0    0 -0.25700040426E+02 -0.69376479089E+02 -0.15307349460E+03  0.17001498123E+03  0.10566000000E+00 0.  1.
         13    1    1    2    0    0  0.43822371132E+02  0.80890464341E+02 -0.18252535217E+02  0.93791436916E+02  0.10566000000E+00 0. -1.
          4    1    1    2  501    0 -0.18122330706E+02 -0.11513985252E+02  0.48756871734E+01  0.22017335262E+02  0.00000000000E+00 0.  1.
</event>
<event>
 5    1  0.4866530E-005  0.4537034E+02  0.7818608E-02  0.1350012E+00
         21   -1    0    0  501  502  0.00000000000E+00  0.00000000000E+00  0.51021534112E+03  0.51021534112E+03  0.00000000000E+00 0.  1.
          4   -1    0    0  502    0 -0.00000000000E+00 -0.00000000000E+00 -0.13734676062E+02  0.13734676062E+02  0.00000000000E+00 0.  1.
        -13    1    1    2    0    0 -0.16827299222E+02 -0.33688913220E+02  0.18121872493E+03  0.18509008158E+03  0.10566000000E+00 0.  1.
         13    1    1    2    0    0  0.57935360625E+01 -0.21636398782E+02  0.42822439167E+01  0.22804551944E+02  0.10566000000E+00 0. -1.
          4    1    1    2  501    0  0.11033763159E+02  0.55325312003E+02  0.31097969622E+03  0.31605538366E+03  0.00000000000E+00 0.  1.
</event>
<event>
 5    1  0.4866530E-005  0.3783142E+03  0.7818608E-02  0.1011112E+00
         21   -1    0    0  501  502  0.00000000000E+00  0.00000000000E+00  0.18612445237E+03  0.18612445237E+03  0.00000000000E+00 0. -1.
         -4   -1    0    0    0  501 -0.00000000000E+00 -0.00000000000E+00 -0.17471620255E+04  0.17471620255E+04  0.00000000000E+00 0. -1.
        -13    1    1    2    0    0 -0.12414144816E+03  0.45889273847E+02 -0.27323158099E+03  0.30359913146E+03  0.10566000000E+00 0.  1.
         13    1    1    2    0    0  0.45795712347E+03  0.90648655670E+02 -0.11542651775E+04  0.12450983965E+04  0.10566000000E+00 0. -1.
         -4    1    1    2    0  502 -0.33381567531E+03 -0.13653792952E+03 -0.13354081468E+03  0.38458895000E+03  0.00000000000E+00 0. -1.
</event>
<event>
 5    1  0.4866530E-005  0.9975470E+03  0.7818608E-02  0.8776900E-01
         -4   -1    0    0    0  501 -0.00000000000E+00  0.00000000000E+00  0.15887752108E+04  0.15887752108E+04  0.00000000000E+00 0. -1.
         21   -1    0    0  501  502  0.00000000000E+00 -0.00000000000E+00 -0.11214447807E+04  0.11214447807E+04  0.00000000000E+00 0.  1.
        -13    1    1    2    0    0 -0.94601284027E+03  0.37038567102E+03  0.75186104221E+03  0.12638911651E+04  0.10566000000E+00 0.  1.
         13    1    1    2    0    0  0.10017373445E+04 -0.22902279085E+02 -0.13423494647E+02  0.10020890295E+04  0.10566000000E+00 0. -1.
         -4    1    1    2    0  502 -0.55724504211E+02 -0.34748339194E+03 -0.27110711743E+03  0.44423979692E+03  0.00000000000E+00 0. -1.
</event>
<event>
 5    1  0.4866530E-005  0.4531170E+03  0.7818608E-02  0.9587111E-01
         21   -1    0    0  501  502  0.00000000000E+00  0.00000000000E+00  0.43378028766E+03  0.43378028766E+03  0.00000000000E+00 0.  1.
          4   -1    0    0  502    0 -0.00000000000E+00 -0.00000000000E+00 -0.16803775744E+04  0.16803775744E+04  0.00000000000E+00 0.  1.
        -13    1    1    2    0    0  0.37111536310E+03 -0.22017827995E+03 -0.11768154940E+04  0.12534352020E+04  0.10566000000E+00 0.  1.
         13    1    1    2    0    0 -0.45459214675E+03  0.30592620494E+03 -0.28262774674E+03  0.61654141560E+03  0.10566000000E+00 0. -1.
          4    1    1    2  501    0  0.83476783642E+02 -0.85747924996E+02  0.21284595393E+03  0.24418124447E+03  0.00000000000E+00 0.  1.
</event>
<event>
 5    1  0.4866530E-005  0.4668970E+03  0.7818608E-02  0.9959141E-01
         21   -1    0    0  501  502  0.00000000000E+00  0.00000000000E+00  0.17216221403E+03  0.17216221403E+03  0.00000000000E+00 0.  1.
          4   -1    0    0  502    0 -0.00000000000E+00 -0.00000000000E+00 -0.20870326451E+04  0.20870326451E+04  0.00000000000E+00 0.  1.
        -13    1    1    2    0    0 -0.11294287477E+03  0.44478859788E+03 -0.93465877302E+03  0.10412396568E+04  0.10566000000E+00 0.  1.
         13    1    1    2    0    0 -0.11249671408E+03 -0.26002349787E+02 -0.59447639165E+03  0.60558552185E+03  0.10566000000E+00 0. -1.
          4    1    1    2  501    0  0.22543958884E+03 -0.41878624810E+03 -0.38573526640E+03  0.61236968047E+03  0.00000000000E+00 0.  1.
</event>
<event>
 5    1  0.4866530E-005  0.4345321E+03  0.7818608E-02  0.9777930E-01
          4   -1    0    0  502    0 -0.00000000000E+00  0.00000000000E+00  0.22532539267E+03  0.22532539267E+03  0.00000000000E+00 0.  1.
         21   -1    0    0  501  502  0.00000000000E+00 -0.00000000000E+00 -0.20236439600E+04  0.20236439600E+04  0.00000000000E+00 0. -1.
        -13    1    1    2    0    0  0.66607975007E+01 -0.44083526959E+03 -0.12523894754E+04  0.13277271973E+04  0.10566000000E+00 0.  1.
         13    1    1    2    0    0 -0.26045103386E+03  0.40907748277E+02 -0.14627162928E+03  0.30150221493E+03  0.10566000000E+00 0. -1.
          4    1    1    2  501    0  0.25379023636E+03  0.39992752131E+03 -0.39965746267E+03  0.61973994049E+03  0.00000000000E+00 0.  1.
</event>
<event>
 5    1  0.4866530E-005  0.7834569E+02  0.7818608E-02  0.1206390E+00
         21   -1    0    0  501  502  0.00000000000E+00  0.00000000000E+00  0.17668896031E+02  0.17668896031E+02  0.00000000000E+00 0. -1.
          4   -1    0    0  502    0 -0.00000000000E+00 -0.00000000000E+00 -0.53476910555E+03  0.53476910555E+03  0.00000000000E+00 0.  1.
        -13    1    1    2    0    0  0.56135583494E+02  0.47224986340E+02 -0.28565327643E+03  0.29492237719E+03  0.10566000000E+00 0.  1.
         13    1    1    2    0    0 -0.65553310938E+02 -0.57237559919E+02 -0.22693370277E+03  0.24304792008E+03  0.10566000000E+00 0. -1.
          4    1    1    2  501    0  0.94177274443E+01  0.10012573579E+02 -0.45132303147E+01  0.14467704302E+02  0.00000000000E+00 0.  1.
</event>
<event>
 5    1  0.4866530E-005  0.5087894E+03  0.7818608E-02  0.9502844E-01
         21   -1    0    0  501  502  0.00000000000E+00  0.00000000000E+00  0.76119126057E+03  0.76119126057E+03  0.00000000000E+00 0. -1.
         -4   -1    0    0    0  501 -0.00000000000E+00 -0.00000000000E+00 -0.11563310635E+04  0.11563310635E+04  0.00000000000E+00 0. -1.
        -13    1    1    2    0    0 -0.21460702639E+03  0.37659684723E+03  0.34124128485E+03  0.55165839681E+03  0.10566000000E+00 0.  1.
         13    1    1    2    0    0  0.38462233461E+03  0.20148014172E+03 -0.61235687337E+03  0.75067272451E+03  0.10566000000E+00 0. -1.
         -4    1    1    2    0  502 -0.17001530822E+03 -0.57807698896E+03 -0.12402421441E+03  0.61519120276E+03  0.00000000000E+00 0. -1.
</event>
<event>
 5    1  0.4866530E-005  0.5242230E+03  0.7818608E-02  0.9426404E-01
         21   -1    0    0  501  502  0.00000000000E+00  0.00000000000E+00  0.42373545030E+03  0.42373545030E+03  0.00000000000E+00 0.  1.
         -4   -1    0    0    0  501 -0.00000000000E+00 -0.00000000000E+00 -0.15689024476E+04  0.15689024476E+04  0.00000000000E+00 0. -1.
        -13    1    1    2    0    0  0.10178133591E+02 -0.50697165471E+03 -0.32500800254E+03  0.60229068229E+03  0.10566000000E+00 0.  1.
         13    1    1    2    0    0 -0.94089141023E+01  0.53206834022E+03 -0.10404441890E+04  0.11686356865E+04  0.10566000000E+00 0. -1.
         -4    1    1    2    0  502 -0.76921948895E+00 -0.25096685502E+02  0.22028519423E+03  0.22171152906E+03  0.00000000000E+00 0. -1.
</event>
<event>
 5    1  0.4866530E-005  0.4998984E+03  0.7818608E-02  0.9643415E-01
         -4   -1    0    0    0  501 -0.00000000000E+00  0.00000000000E+00  0.10021293638E+04  0.10021293638E+04  0.00000000000E+00 0. -1.
         21   -1    0    0  501  502  0.00000000000E+00 -0.00000000000E+00 -0.45775164440E+03  0.45775164440E+03  0.00000000000E+00 0. -1.
        -13    1    1    2    0    0 -0.22259905857E+03  0.16379979069E+03  0.27056550013E+03  0.38676402797E+03  0.10566000000E+00 0.  1.
         13    1    1    2    0    0 -0.13888335086E+02 -0.56452380311E+03  0.85399710425E+02  0.57111569041E+03  0.10566000000E+00 0. -1.
         -4    1    1    2    0  502  0.23648739365E+03  0.40072401242E+03  0.18841250882E+03  0.50200128980E+03  0.00000000000E+00 0. -1.
</event>
<event>
 5    1  0.4866530E-005  0.4402835E+03  0.7818608E-02  0.9979094E-01
         21   -1    0    0  501  502  0.00000000000E+00  0.00000000000E+00  0.41209467133E+03  0.41209467133E+03  0.00000000000E+00 0.  1.
          4   -1    0    0  502    0 -0.00000000000E+00 -0.00000000000E+00 -0.63862268349E+03  0.63862268349E+03  0.00000000000E+00 0.  1.
        -13    1    1    2    0    0 -0.21376874549E+03  0.34584148023E+03 -0.89262290188E+02  0.41625854179E+03  0.10566000000E+00 0.  1.
         13    1    1    2    0    0 -0.12889507481E+03  0.26252611320E+01 -0.92660134768E+01  0.12925440989E+03  0.10566000000E+00 0. -1.
          4    1    1    2  501    0  0.34266382030E+03 -0.34846674136E+03 -0.12799970850E+03  0.50520440314E+03  0.00000000000E+00 0.  1.
</event>
<event>
 5    1  0.4866530E-005  0.3422193E+03  0.7818608E-02  0.9912608E-01
         21   -1    0    0  501  502  0.00000000000E+00  0.00000000000E+00  0.24026809571E+03  0.24026809571E+03  0.00000000000E+00 0. -1.
         -4   -1    0    0    0  501 -0.00000000000E+00 -0.00000000000E+00 -0.18514371268E+04  0.18514371268E+04  0.00000000000E+00 0. -1.
        -13    1    1    2    0    0 -0.21598384944E+03 -0.18314251571E+03 -0.33691495107E+03  0.44011577988E+03  0.10566000000E+00 0.  1.
         13    1    1    2    0    0  0.22386300177E+03  0.29715677671E+03 -0.14191152673E+04  0.14670735995E+04  0.10566000000E+00 0. -1.
         -4    1    1    2    0  502 -0.78791523314E+01 -0.11401426100E+03  0.14486118729E+03  0.18451584305E+03  0.00000000000E+00 0. -1.
</event>
<event>
 5    1  0.4866530E-005  0.5937008E+03  0.7818608E-02  0.9293335E-01
         21   -1    0    0  501  502  0.00000000000E+00  0.00000000000E+00  0.12283279262E+04  0.12283279262E+04  0.00000000000E+00 0. -1.
          4   -1    0    0  502    0 -0.00000000000E+00 -0.00000000000E+00 -0.10977987138E+04  0.10977987138E+04  0.00000000000E+00 0.  1.
        -13    1    1    2    0    0  0.14375042602E+03 -0.54816480905E+03 -0.68093859357E+03  0.88590418344E+03  0.10566000000E+00 0.  1.
         13    1    1    2    0    0 -0.47326016631E+03  0.67935667817E+03  0.49335594339E+03  0.96379498818E+03  0.10566000000E+00 0. -1.
          4    1    1    2  501    0  0.32950974029E+03 -0.13119186912E+03  0.31811186263E+03  0.47642746836E+03  0.00000000000E+00 0.  1.
</event>
<event>
 5    1  0.4866530E-005  0.2056225E+03  0.7818608E-02  0.1056348E+00
         21   -1    0    0  501  502  0.00000000000E+00  0.00000000000E+00  0.31366987721E+03  0.31366987721E+03  0.00000000000E+00 0. -1.
          4   -1    0    0  502    0 -0.00000000000E+00 -0.00000000000E+00 -0.20099903886E+03  0.20099903886E+03  0.00000000000E+00 0.  1.
        -13    1    1    2    0    0  0.85893511662E+02  0.21491437921E+03  0.15086673873E+03  0.27627281762E+03  0.10566000000E+00 0.  1.
         13    1    1    2    0    0 -0.58051216736E+02 -0.18705411091E+03 -0.34019604042E+02  0.19878764749E+03  0.10566000000E+00 0. -1.
          4    1    1    2  501    0 -0.27842294926E+02 -0.27860268297E+02 -0.41762963284E+01  0.39608450959E+02  0.00000000000E+00 0.  1.
</event>
<event>
 5    1  0.4866530E-005  0.3252192E+03  0.7818608E-02  0.1012740E+00
         21   -1    0    0  501  502  0.00000000000E+00  0.00000000000E+00  0.25114838725E+03  0.25114838725E+03  0.00000000000E+00 0.  1.
          4   -1    0    0  502    0 -0.00000000000E+00 -0.00000000000E+00 -0.13410123233E+04  0.13410123233E+04  0.00000000000E+00 0.  1.
        -13    1    1    2    0    0  0.21077729695E+03 -0.26968762625E+03  0.17859648886E+02  0.34274985468E+03  0.10566000000E+00 0.  1.
         13    1    1    2    0    0  0.41718780517E+02  0.19330199795E+03 -0.12983440253E+03  0.23656521787E+03  0.10566000000E+00 0. -1.
          4    1    1    2  501    0 -0.25249607746E+03  0.76385628305E+02 -0.97788918239E+03  0.10128456380E+04  0.00000000000E+00 0.  1.
</event>
<event>
 5    1  0.4866530E-005  0.1116218E+03  0.7818608E-02  0.1146639E+00
         21   -1    0    0  501  502  0.00000000000E+00  0.00000000000E+00  0.41144039634E+02  0.41144039634E+02  0.00000000000E+00 0. -1.
         -4   -1    0    0    0  501 -0.00000000000E+00 -0.00000000000E+00 -0.79333457890E+03  0.79333457890E+03  0.00000000000E+00 0. -1.
        -13    1    1    2    0    0  0.60110337032E+02  0.83411820840E+02 -0.45296906671E+03  0.46449087293E+03  0.10566000000E+00 0.  1.
         13    1    1    2    0    0 -0.49627902299E+02 -0.14591361275E+03 -0.21755942275E+03  0.26661925036E+03  0.10566000000E+00 0. -1.
         -4    1    1    2    0  502 -0.10482434733E+02  0.62501791911E+02 -0.81662049804E+02  0.10336849524E+03  0.00000000000E+00 0. -1.
</event>
<event>
 5    1  0.4866530E-005  0.3700955E+03  0.7818608E-02  0.9819621E-01
         21   -1    0    0  501  502  0.00000000000E+00  0.00000000000E+00  0.68459883320E+03  0.68459883320E+03  0.00000000000E+00 0. -1.
         -4   -1    0    0    0  501 -0.00000000000E+00 -0.00000000000E+00 -0.98395474815E+03  0.98395474815E+03  0.00000000000E+00 0. -1.
        -13    1    1    2    0    0  0.57211307235E+02 -0.51150581803E+03 -0.18744976971E+03  0.54776706991E+03  0.10566000000E+00 0.  1.
         13    1    1    2    0    0  0.14729212572E+03  0.31108192554E+03 -0.51919172122E+03  0.62291812403E+03  0.10566000000E+00 0. -1.
         -4    1    1    2    0  502 -0.20450343295E+03  0.20042389249E+03  0.40728557598E+03  0.49786838740E+03  0.00000000000E+00 0. -1.
</event>
<event>
 5    1  0.4866530E-005  0.1116067E+03  0.7818608E-02  0.1146661E+00
          4   -1    0    0  502    0 -0.00000000000E+00  0.00000000000E+00  0.28455062671E+03  0.28455062671E+03  0.00000000000E+00 0.  1.
         21   -1    0    0  501  502  0.00000000000E+00 -0.00000000000E+00 -0.28920566168E+03  0.28920566168E+03  0.00000000000E+00 0. -1.
        -13    1    1    2    0    0  0.51978071503E+02 -0.95633274625E+02  0.21459995621E+03  0.24062542572E+03  0.10566000000E+00 0.  1.
         13    1    1    2    0    0 -0.30910126044E+02  0.12858126233E+03 -0.24508293340E+02  0.13449626211E+03  0.10566000000E+00 0. -1.
          4    1    1    2  501    0 -0.21067945459E+02 -0.32947987707E+02 -0.19474669785E+03  0.19863460056E+03  0.00000000000E+00 0.  1.
</event>
<event>
 5    1  0.6534002E-005  0.3007845E+03  0.7818608E-02  0.1029934E+00
         21   -1    0    0  501  502  0.00000000000E+00  0.00000000000E+00  0.74732179182E+03  0.74732179182E+03  0.00000000000E+00 0.  1.
          4   -1    0    0  502    0 -0.00000000000E+00 -0.00000000000E+00 -0.44773736513E+03  0.44773736513E+03  0.00000000000E+00 0.  1.
        -13    1    1    2    0    0 -0.19989940281E+03  0.11908547463E+03 -0.30615575544E+03  0.38454190833E+03  0.10566000000E+00 0.  1.
         13    1    1    2    0    0  0.31338168225E+02  0.14218353345E+03  0.19458921382E+02  0.14689077152E+03  0.10566000000E+00 0. -1.
          4    1    1    2  501    0  0.16856123459E+03 -0.26126900808E+03  0.58628126075E+03  0.66362647709E+03  0.00000000000E+00 0.  1.
</event>
<event>
 5    1  0.4866530E-005  0.2755102E+03  0.7818608E-02  0.1022202E+00
          4   -1    0    0  502    0 -0.00000000000E+00  0.00000000000E+00  0.11161083431E+04  0.11161083431E+04  0.00000000000E+00 0.  1.
         21   -1    0    0  501  502  0.00000000000E+00 -0.00000000000E+00 -0.36484885569E+03  0.36484885569E+03  0.00000000000E+00 0.  1.
        -13    1    1    2    0    0  0.38622751761E+02 -0.22569112795E+03  0.72380904624E+03  0.75916253119E+03  0.10566000000E+00 0.  1.
         13    1    1    2    0    0  0.21999728037E+03  0.98478922831E+02  0.25773484140E+03  0.35287981134E+03  0.10566000000E+00 0. -1.
          4    1    1    2  501    0 -0.25862003213E+03  0.12721220512E+03 -0.23028440025E+03  0.36891485624E+03  0.00000000000E+00 0.  1.
</event>
<event>
 5    1  0.4866530E-005  0.4736159E+03  0.7818608E-02  0.9741117E-01
         21   -1    0    0  501  502  0.00000000000E+00  0.00000000000E+00  0.20637915779E+03  0.20637915779E+03  0.00000000000E+00 0. -1.
         -4   -1    0    0    0  501 -0.00000000000E+00 -0.00000000000E+00 -0.19975989775E+04  0.19975989775E+04  0.00000000000E+00 0. -1.
        -13    1    1    2    0    0 -0.22979480191E+03  0.24676897317E+02 -0.52094072403E+03  0.56990687780E+03  0.10566000000E+00 0.  1.
         13    1    1    2    0    0  0.92351806664E+02  0.45346765065E+03 -0.90636494104E+03  0.10176734171E+04  0.10566000000E+00 0. -1.
         -4    1    1    2    0  502  0.13744299525E+03 -0.47814454797E+03 -0.36391415468E+03  0.61639784042E+03  0.00000000000E+00 0. -1.
</event>
<event>
 5    1  0.4866530E-005  0.2795973E+03  0.7818608E-02  0.1016101E+00
          4   -1    0    0  502    0 -0.00000000000E+00  0.00000000000E+00  0.14213121087E+04  0.14213121087E+04  0.00000000000E+00 0.  1.
         21   -1    0    0  501  502  0.00000000000E+00 -0.00000000000E+00 -0.76680317474E+02  0.76680317474E+02  0.00000000000E+00 0. -1.
        -13    1    1    2    0    0 -0.86131637202E+01 -0.28174787023E+03  0.10560745168E+04  0.10930459484E+04  0.10566000000E+00 0.  1.
         13    1    1    2    0    0  0.14018669009E+02  0.27246680487E+03  0.28193270081E+03  0.39232734010E+03  0.10566000000E+00 0. -1.
          4    1    1    2  501    0 -0.54055052885E+01  0.92810653603E+01  0.66245736047E+01  0.12619137732E+02  0.00000000000E+00 0.  1.
</event>
<event>
 5    1  0.4866530E-005  0.4932798E+03  0.7818608E-02  0.9598661E-01
         21   -1    0    0  501  502  0.00000000000E+00  0.00000000000E+00  0.15530757774E+03  0.15530757774E+03  0.00000000000E+00 0.  1.
          4   -1    0    0  502    0 -0.00000000000E+00 -0.00000000000E+00 -0.31173140677E+04  0.31173140677E+04  0.00000000000E+00 0.  1.
        -13    1    1    2    0    0 -0.49796456267E+03  0.39790149612E+03 -0.99005780003E+03  0.11775010679E+04  0.10566000000E+00 0.  1.
         13    1    1    2    0    0  0.33024096189E+03 -0.67394332744E+02 -0.92159752589E+03  0.98129664215E+03  0.10566000000E+00 0. -1.
          4    1    1    2  501    0  0.16772360077E+03 -0.33050716337E+03 -0.10503511640E+04  0.11138239354E+04  0.00000000000E+00 0.  1.
</event>
<event>
 5    1  0.4866530E-005  0.1252881E+03  0.7818608E-02  0.1128406E+00
          4   -1    0    0  502    0 -0.00000000000E+00  0.00000000000E+00  0.45251962534E+03  0.45251962534E+03  0.00000000000E+00 0.  1.
         21   -1    0    0  501  502  0.00000000000E+00 -0.00000000000E+00 -0.32645539919E+03  0.32645539919E+03  0.00000000000E+00 0.  1.
        -13    1    1    2    0    0 -0.41823222166E+02 -0.12140217479E+03  0.39984813514E+03  0.41995977462E+03  0.10566000000E+00 0.  1.
         13    1    1    2    0    0  0.55904225397E+02  0.90569001244E+02 -0.26852691396E+02  0.10976841350E+03  0.10566000000E+00 0. -1.
          4    1    1    2  501    0 -0.14081003231E+02  0.30833173545E+02 -0.24693121759E+03  0.24924683641E+03  0.00000000000E+00 0.  1.
</event>
<event>
 5    1  0.4866530E-005  0.2520680E+03  0.7818608E-02  0.1029327E+00
         -4   -1    0    0    0  501 -0.00000000000E+00  0.00000000000E+00  0.15041312591E+04  0.15041312591E+04  0.00000000000E+00 0. -1.
         21   -1    0    0  501  502  0.00000000000E+00 -0.00000000000E+00 -0.55180988985E+03  0.55180988985E+03  0.00000000000E+00 0. -1.
        -13    1    1    2    0    0 -0.18143189027E+03  0.14511808887E+03  0.80488486657E+02  0.24587638799E+03  0.10566000000E+00 0.  1.
         13    1    1    2    0    0  0.19782818760E+03 -0.16084101925E+03  0.13285445904E+04  0.13527884406E+04  0.10566000000E+00 0. -1.
         -4    1    1    2    0  502 -0.16396297334E+02  0.15722930382E+02 -0.45671170779E+03  0.45727632034E+03  0.00000000000E+00 0. -1.
</event>
<event>
 5    1  0.4866530E-005  0.3453134E+03  0.7818608E-02  0.9901831E-01
         21   -1    0    0  501  502  0.00000000000E+00  0.00000000000E+00  0.83027551097E+03  0.83027551097E+03  0.00000000000E+00 0.  1.
         -4   -1    0    0    0  501 -0.00000000000E+00 -0.00000000000E+00 -0.26385133985E+03  0.26385133985E+03  0.00000000000E+00 0. -1.
        -13    1    1    2    0    0 -0.44297646927E+00 -0.33251397837E+03  0.51559450641E+03  0.61351727624E+03  0.10566000000E+00 0.  1.
         13    1    1    2    0    0  0.60302540276E+01  0.34848224542E+03 -0.72608757804E+02  0.35601724988E+03  0.10566000000E+00 0. -1.
         -4    1    1    2    0  502 -0.55872775583E+01 -0.15968267050E+02  0.12343842252E+03  0.12459232471E+03  0.00000000000E+00 0. -1.
</event>
<event>
 5    1  0.4866530E-005  0.4827507E+03  0.7818608E-02  0.9641447E-01
          4   -1    0    0  502    0 -0.00000000000E+00  0.00000000000E+00  0.26390360400E+03  0.26390360400E+03  0.00000000000E+00 0.  1.
         21   -1    0    0  501  502  0.00000000000E+00 -0.00000000000E+00 -0.18950421963E+04  0.18950421963E+04  0.00000000000E+00 0.  1.
        -13    1    1    2    0    0  0.58261366177E+03  0.13193127741E+03 -0.65654964886E+03  0.88763843620E+03  0.10566000000E+00 0.  1.
         13    1    1    2    0    0 -0.25446821889E+03  0.17531967570E+03 -0.17796544467E+03  0.35659889760E+03  0.10566000000E+00 0. -1.
          4    1    1    2  501    0 -0.32814544288E+03 -0.30725095311E+03 -0.79662349872E+03  0.91470846645E+03  0.00000000000E+00 0.  1.
</event>
<event>
 5    1  0.4866530E-005  0.4450917E+03  0.7818608E-02  0.9607193E-01
         21   -1    0    0  501  502  0.00000000000E+00  0.00000000000E+00  0.19621191915E+03  0.19621191915E+03  0.00000000000E+00 0. -1.
          4   -1    0    0  502    0 -0.00000000000E+00 -0.00000000000E+00 -0.23871138470E+04  0.23871138470E+04  0.00000000000E+00 0.  1.
        -13    1    1    2    0    0 -0.35449291165E+03  0.31227044015E+03 -0.59417126070E+03  0.75908994883E+03  0.10566000000E+00 0.  1.
         13    1    1    2    0    0  0.28614543392E+03 -0.33006575998E+03 -0.16677895573E+04  0.17240489071E+04  0.10566000000E+00 0. -1.
          4    1    1    2  501    0  0.68347477737E+02  0.17795319826E+02  0.71058890157E+02  0.10018691028E+03  0.00000000000E+00 0.  1.
</event>
<event>
 5    1  0.4866530E-005  0.4817826E+02  0.7818608E-02  0.1299389E+00
          4   -1    0    0  502    0 -0.00000000000E+00  0.00000000000E+00  0.13058871800E+03  0.13058871800E+03  0.00000000000E+00 0.  1.
         21   -1    0    0  501  502  0.00000000000E+00 -0.00000000000E+00 -0.12721868809E+03  0.12721868809E+03  0.00000000000E+00 0. -1.
        -13    1    1    2    0    0 -0.17494805138E+02 -0.36651612813E+02  0.58532681878E+02  0.71242507960E+02  0.10566000000E+00 0.  1.
         13    1    1    2    0    0  0.23292274637E+02  0.83389715228E+02  0.27996478552E+02  0.90995541863E+02  0.10566000000E+00 0. -1.
          4    1    1    2  501    0 -0.57974694995E+01 -0.46738102415E+02 -0.83159130518E+02  0.95569356273E+02  0.00000000000E+00 0.  1.
</event>
<event>
 5    1  0.4866530E-005  0.6643866E+03  0.7818608E-02  0.9176305E-01
         21   -1    0    0  501  502  0.00000000000E+00  0.00000000000E+00  0.42467654003E+03  0.42467654003E+03  0.00000000000E+00 0. -1.
          4   -1    0    0  502    0 -0.00000000000E+00 -0.00000000000E+00 -0.15099133989E+04  0.15099133989E+04  0.00000000000E+00 0.  1.
        -13    1    1    2    0    0  0.65304899818E+03  0.94503992503E+02 -0.10425313253E+04  0.12338053226E+04  0.10566000000E+00 0.  1.
         13    1    1    2    0    0 -0.67297496628E+03 -0.94333477983E+02 -0.41279853109E+02  0.68080698274E+03  0.10566000000E+00 0. -1.
          4    1    1    2  501    0  0.19925968107E+02 -0.17051451939E+00 -0.14256804564E+01  0.19977633618E+02  0.00000000000E+00 0.  1.
</event>
<event>
 5    1  0.4866530E-005  0.1929666E+03  0.7818608E-02  0.1065067E+00
         21   -1    0    0  501  502  0.00000000000E+00  0.00000000000E+00  0.59941350594E+03  0.59941350594E+03  0.00000000000E+00 0.  1.
         -4   -1    0    0    0  501 -0.00000000000E+00 -0.00000000000E+00 -0.12205691095E+03  0.12205691095E+03  0.00000000000E+00 0. -1.
        -13    1    1    2    0    0 -0.12030300346E+03  0.15791440430E+03  0.35333753839E+03  0.40528656396E+03  0.10566000000E+00 0.  1.
         13    1    1    2    0    0  0.14872481968E+03 -0.12236654141E+03  0.93598344045E+01  0.19282183515E+03  0.10566000000E+00 0. -1.
         -4    1    1    2    0  502 -0.28421816226E+02 -0.35547862895E+02  0.11465922220E+03  0.12336201777E+03  0.00000000000E+00 0. -1.
</event>
<event>
 5    1  0.4866530E-005  0.4162755E+02  0.7818608E-02  0.1330214E+00
         21   -1    0    0  501  502  0.00000000000E+00  0.00000000000E+00  0.64652926476E+02  0.64652926476E+02  0.00000000000E+00 0. -1.
          4   -1    0    0  502    0 -0.00000000000E+00 -0.00000000000E+00 -0.13166160174E+03  0.13166160174E+03  0.00000000000E+00 0.  1.
        -13    1    1    2    0    0  0.33803151791E+02  0.24387227902E+02 -0.11264908085E+03  0.12011334870E+03  0.10566000000E+00 0.  1.
         13    1    1    2    0    0 -0.41947098996E+02 -0.11398431913E+02  0.41999926257E+02  0.60444092631E+02  0.10566000000E+00 0. -1.
          4    1    1    2  501    0  0.81439472055E+01 -0.12988795988E+02  0.36404793289E+01  0.15757086884E+02  0.00000000000E+00 0.  1.
</event>
<event>
 5    1  0.4866530E-005  0.4926719E+03  0.7818608E-02  0.9663815E-01
         -4   -1    0    0    0  501 -0.00000000000E+00  0.00000000000E+00  0.19175713765E+04  0.19175713765E+04  0.00000000000E+00 0. -1.
         21   -1    0    0  501  502  0.00000000000E+00 -0.00000000000E+00 -0.35594720720E+03  0.35594720720E+03  0.00000000000E+00 0. -1.
        -13    1    1    2    0    0 -0.35364025234E+02 -0.26638613222E+03  0.11327665506E+04  0.11642045589E+04  0.10566000000E+00 0.  1.
         13    1    1    2    0    0  0.36802442641E+03  0.47046670630E+03  0.11450914028E+03  0.60818850247E+03  0.10566000000E+00 0. -1.
         -4    1    1    2    0  502 -0.33266040118E+03 -0.20408057408E+03  0.31434847851E+03  0.50112552237E+03  0.00000000000E+00 0. -1.
</event>
<event>
 5    1  0.4866530E-005  0.1563753E+03  0.7818608E-02  0.1094989E+00
         21   -1    0    0  501  502  0.00000000000E+00  0.00000000000E+00  0.73289950635E+03  0.73289950635E+03  0.00000000000E+00 0. -1.
          4   -1    0    0  502    0 -0.00000000000E+00 -0.00000000000E+00 -0.59327601030E+02  0.59327601030E+02  0.00000000000E+00 0.  1.
        -13    1    1    2    0    0 -0.68520503793E+02 -0.15181625682E+03  0.10861428233E+03  0.19884745099E+03  0.10566000000E+00 0.  1.
         13    1    1    2    0    0  0.74901044574E+02  0.10294620333E+03  0.46221750503E+03  0.47942999528E+03  0.10566000000E+00 0. -1.
          4    1    1    2  501    0 -0.63805407808E+01  0.48870053487E+02  0.10274011796E+03  0.11394966111E+03  0.00000000000E+00 0.  1.
</event>
<event>
 5    1  0.4866530E-005  0.1275899E+03  0.7818608E-02  0.1125585E+00
         -4   -1    0    0    0  501 -0.00000000000E+00  0.00000000000E+00  0.56262735358E+03  0.56262735358E+03  0.00000000000E+00 0. -1.
         21   -1    0    0  501  502  0.00000000000E+00 -0.00000000000E+00 -0.49116055006E+02  0.49116055006E+02  0.00000000000E+00 0.  1.
        -13    1    1    2    0    0 -0.76140687119E+02 -0.11559493692E+03  0.11966999667E+03  0.18297680985E+03  0.10566000000E+00 0.  1.
         13    1    1    2    0    0  0.68365344346E+02  0.10384207262E+03  0.39549668310E+03  0.41457765721E+03  0.10566000000E+00 0. -1.
         -4    1    1    2    0  502  0.77753427729E+01  0.11752864305E+02 -0.16553811934E+01  0.14188941522E+02  0.00000000000E+00 0. -1.
</event>
<event>
 5    1  0.4866530E-005  0.2251815E+03  0.7818608E-02  0.1044121E+00
          4   -1    0    0  502    0 -0.00000000000E+00  0.00000000000E+00  0.13679457125E+04  0.13679457125E+04  0.00000000000E+00 0.  1.
         21   -1    0    0  501  502  0.00000000000E+00 -0.00000000000E+00 -0.74092024415E+02  0.74092024415E+02  0.00000000000E+00 0. -1.
        -13    1    1    2    0    0  0.21384251456E+02 -0.21769598233E+03  0.10029575215E+04  0.10265342800E+04  0.10566000000E+00 0.  1.
         13    1    1    2    0    0 -0.23773652553E+02  0.24949900005E+03  0.29041261956E+03  0.38360714063E+03  0.10566000000E+00 0. -1.
          4    1    1    2  501    0  0.23894010975E+01 -0.31803017717E+02  0.48354701565E+00  0.31896316264E+02  0.00000000000E+00 0.  1.
</event>
<event>
 5    1  0.4866530E-005  0.4469502E+03  0.7818608E-02  0.9748337E-01
          4   -1    0    0  502    0 -0.00000000000E+00  0.00000000000E+00  0.61184900466E+03  0.61184900466E+03  0.00000000000E+00 0.  1.
         21   -1    0    0  501  502  0.00000000000E+00 -0.00000000000E+00 -0.69758057877E+03  0.69758057877E+03  0.00000000000E+00 0.  1.
        -13    1    1    2    0    0 -0.58360924782E+03  0.74593349980E+02  0.98915778741E+02  0.59661399954E+03  0.10566000000E+00 0.  1.
         13    1    1    2    0    0  0.19373299406E+03 -0.18551332955E+03 -0.20492382355E+01  0.26823847406E+03  0.10566000000E+00 0. -1.
          4    1    1    2  501    0  0.38987625376E+03  0.11091997957E+03 -0.18259811461E+03  0.44457710982E+03  0.00000000000E+00 0.  1.
</event>
<event>
 5    1  0.4866530E-005  0.1018074E+03  0.7818608E-02  0.1161599E+00
         21   -1    0    0  501  502  0.00000000000E+00  0.00000000000E+00  0.55823888047E+03  0.55823888047E+03  0.00000000000E+00 0.  1.
          4   -1    0    0  502    0 -0.00000000000E+00 -0.00000000000E+00 -0.11256883969E+03  0.11256883969E+03  0.00000000000E+00 0.  1.
        -13    1    1    2    0    0  0.13212808273E+03 -0.11270797692E+03  0.32339717861E+03  0.36707855373E+03  0.10566000000E+00 0.  1.
         13    1    1    2    0    0 -0.50203353250E+02  0.82317365676E+02 -0.51436596126E+02  0.10928064767E+03  0.10566000000E+00 0. -1.
          4    1    1    2  501    0 -0.81924729480E+02  0.30390611249E+02  0.17370945829E+03  0.19444851877E+03  0.00000000000E+00 0.  1.
</event>
<event>
 5    1  0.4866530E-005  0.2939245E+03  0.7818608E-02  0.1009845E+00
         21   -1    0    0  501  502  0.00000000000E+00  0.00000000000E+00  0.26369722363E+03  0.26369722363E+03  0.00000000000E+00 0. -1.
          4   -1    0    0  502    0 -0.00000000000E+00 -0.00000000000E+00 -0.56344595346E+03  0.56344595346E+03  0.00000000000E+00 0.  1.
        -13    1    1    2    0    0  0.64554893560E+02 -0.28512246072E+03 -0.35730870630E+03  0.46166186181E+03  0.10566000000E+00 0.  1.
         13    1    1    2    0    0 -0.86635595649E+02  0.28611797996E+03 -0.51487563411E+01  0.29899121349E+03  0.10566000000E+00 0. -1.
          4    1    1    2  501    0  0.22080702089E+02 -0.99551923824E+00  0.62708732811E+02  0.66490101775E+02  0.00000000000E+00 0.  1.
</event>
<event>
 5    1  0.4866530E-005  0.5083093E+03  0.7818608E-02  0.9779859E-01
         21   -1    0    0  501  502  0.00000000000E+00  0.00000000000E+00  0.50808773645E+03  0.50808773645E+03  0.00000000000E+00 0.  1.
          4   -1    0    0  502    0 -0.00000000000E+00 -0.00000000000E+00 -0.80922805799E+03  0.80922805799E+03  0.00000000000E+00 0.  1.
        -13    1    1    2    0    0  0.26076335213E+03  0.41426942892E+03  0.70627064620E+02  0.49457545327E+03  0.10566000000E+00 0.  1.
         13    1    1    2    0    0  0.15972489332E+03 -0.35474182603E+02 -0.47017220932E+02  0.17023833119E+03  0.10566000000E+00 0. -1.
          4    1    1    2  501    0 -0.42048824546E+03 -0.37879524632E+03 -0.32475016524E+03  0.65250200998E+03  0.00000000000E+00 0.  1.
</event>
<event>
 5    1  0.4866530E-005  0.4955911E+03  0.7818608E-02  0.9859473E-01
          4   -1    0    0  502    0 -0.00000000000E+00  0.00000000000E+00  0.12610405562E+04  0.12610405562E+04  0.00000000000E+00 0.  1.
         21   -1    0    0  501  502  0.00000000000E+00 -0.00000000000E+00 -0.48127012392E+03  0.48127012392E+03  0.00000000000E+00 0.  1.
        -13    1    1    2    0    0  0.10045481628E+03  0.53353637020E+03  0.12029582986E+03  0.55607852529E+03  0.10566000000E+00 0.  1.
         13    1    1    2    0    0 -0.11881496959E+03 -0.63393226141E+02  0.70107787515E+03  0.71389487763E+03  0.10566000000E+00 0. -1.
          4    1    1    2  501    0  0.18360153316E+02 -0.47014314406E+03 -0.41603272731E+02  0.47233727721E+03  0.00000000000E+00 0.  1.
</event>
<event>
 5    1  0.4866530E-005  0.4036253E+03  0.7818608E-02  0.9731428E-01
         21   -1    0    0  501  502  0.00000000000E+00  0.00000000000E+00  0.69766944087E+03  0.69766944087E+03  0.00000000000E+00 0.  1.
          4   -1    0    0  502    0 -0.00000000000E+00 -0.00000000000E+00 -0.17263559541E+04  0.17263559541E+04  0.00000000000E+00 0.  1.
        -13    1    1    2    0    0 -0.32155599356E+03  0.39034594567E+02  0.22528772448E+03  0.39455864777E+03  0.10566000000E+00 0.  1.
         13    1    1    2    0    0 -0.33631285682E+03  0.23914999777E+03 -0.12487593281E+04  0.13151801891E+04  0.10566000000E+00 0. -1.
          4    1    1    2  501    0  0.65786885038E+03 -0.27818459233E+03 -0.52149095460E+01  0.71428655804E+03  0.00000000000E+00 0.  1.
</event>
<event>
 5    1  0.4866530E-005  0.5002236E+03  0.7818608E-02  0.9807171E-01
         21   -1    0    0  501  502  0.00000000000E+00  0.00000000000E+00  0.62346295346E+03  0.62346295346E+03  0.00000000000E+00 0. -1.
         -4   -1    0    0    0  501 -0.00000000000E+00 -0.00000000000E+00 -0.58367127993E+03  0.58367127993E+03  0.00000000000E+00 0. -1.
        -13    1    1    2    0    0  0.13116585935E+03  0.85142144726E+02 -0.94928036373E+02  0.18293444378E+03  0.10566000000E+00 0.  1.
         13    1    1    2    0    0  0.24864331779E+03  0.35364473915E+03  0.20915049622E+02  0.43281121921E+03  0.10566000000E+00 0. -1.
         -4    1    1    2    0  502 -0.37980917714E+03 -0.43878688387E+03  0.11380466028E+03  0.59138857040E+03  0.00000000000E+00 0. -1.
</event>
<event>
 5    1  0.4866530E-005  0.4278460E+03  0.7818608E-02  0.9901852E-01
          4   -1    0    0  502    0 -0.00000000000E+00  0.00000000000E+00  0.92151048936E+03  0.92151048936E+03  0.00000000000E+00 0.  1.
         21   -1    0    0  501  502  0.00000000000E+00 -0.00000000000E+00 -0.41890414034E+03  0.41890414034E+03  0.00000000000E+00 0.  1.
        -13    1    1    2    0    0  0.27045418661E+03 -0.29279726480E+03 -0.84148055368E+02  0.40737772609E+03  0.10566000000E+00 0.  1.
         13    1    1    2    0    0 -0.26563828007E+02 -0.17958078216E+03  0.22909399351E+03  0.29229944116E+03  0.10566000000E+00 0. -1.
          4    1    1    2  501    0 -0.24389035861E+03  0.47237804696E+03  0.35766041088E+03  0.64073746244E+03  0.00000000000E+00 0.  1.
</event>
<event>
 5    1  0.4866530E-005  0.4832948E+03  0.7818608E-02  0.9582401E-01
         -4   -1    0    0    0  501 -0.00000000000E+00  0.00000000000E+00  0.24161347114E+04  0.24161347114E+04  0.00000000000E+00 0. -1.
         21   -1    0    0  501  502  0.00000000000E+00 -0.00000000000E+00 -0.34628402126E+03  0.34628402126E+03  0.00000000000E+00 0. -1.
        -13    1    1    2    0    0  0.19629371455E+02  0.37924944075E+03  0.15410900480E+04  0.15871905991E+04  0.10566000000E+00 0.  1.
         13    1    1    2    0    0  0.34778031559E+03 -0.54248750009E+03  0.28116708948E+03  0.70306385132E+03  0.10566000000E+00 0. -1.
         -4    1    1    2    0  502 -0.36740968704E+03  0.16323805933E+03  0.24759355266E+03  0.47216428229E+03  0.00000000000E+00 0. -1.
</event>
<event>
 5    1  0.4866530E-005  0.3481468E+03  0.7818608E-02  0.9910989E-01
         -4   -1    0    0    0  501 -0.00000000000E+00  0.00000000000E+00  0.15745963922E+04  0.15745963922E+04  0.00000000000E+00 0. -1.
         21   -1    0    0  501  502  0.00000000000E+00 -0.00000000000E+00 -0.57615092211E+03  0.57615092211E+03  0.00000000000E+00 0. -1.
        -13    1    1    2    0    0  0.43915431526E+03 -0.93011503688E+02  0.96179695674E+03  0.10613958025E+04  0.10566000000E+00 0.  1.
         13    1    1    2    0    0 -0.23123345004E+03 -0.20006448576E+03  0.44847513031E+03  0.54279338662E+03  0.10566000000E+00 0. -1.
         -4    1    1    2    0  502 -0.20792086522E+03  0.29307598945E+03 -0.41182661695E+03  0.54655812519E+03  0.00000000000E+00 0. -1.
</event>
<event>
 5    1  0.4866530E-005  0.2099742E+03  0.7818608E-02  0.1053505E+00
         -4   -1    0    0    0  501 -0.00000000000E+00  0.00000000000E+00  0.40654505380E+03  0.40654505380E+03  0.00000000000E+00 0. -1.
         21   -1    0    0  501  502  0.00000000000E+00 -0.00000000000E+00 -0.27830547483E+03  0.27830547483E+03  0.00000000000E+00 0.  1.
        -13    1    1    2    0    0  0.39287162121E+02  0.16048961337E+03 -0.32520599717E+02  0.16839833039E+03  0.10566000000E+00 0.  1.
         13    1    1    2    0    0 -0.15673636119E+03 -0.17703773232E+03  0.26740351081E+03  0.35694998857E+03  0.10566000000E+00 0. -1.
         -4    1    1    2    0  502  0.11744919906E+03  0.16548118950E+02 -0.10664333212E+03  0.15950220967E+03  0.00000000000E+00 0. -1.
</event>
<event>
 5    1  0.4866530E-005  0.9195902E+02  0.7818608E-02  0.1192360E+00
          4   -1    0    0  502    0 -0.00000000000E+00  0.00000000000E+00  0.63505374088E+02  0.63505374088E+02  0.00000000000E+00 0.  1.
         21   -1    0    0  501  502  0.00000000000E+00 -0.00000000000E+00 -0.34584298320E+03  0.34584298320E+03  0.00000000000E+00 0.  1.
        -13    1    1    2    0    0 -0.75337091665E+02  0.10885209778E+03 -0.69196726623E+02  0.14937421033E+03  0.10566000000E+00 0.  1.
         13    1    1    2    0    0  0.60418032493E+02 -0.28264372943E+02 -0.89056230999E+02  0.11126651281E+03  0.10566000000E+00 0. -1.
          4    1    1    2  501    0  0.14919059172E+02 -0.80587724835E+02 -0.12408465149E+03  0.14870763415E+03  0.00000000000E+00 0.  1.
</event>
<event>
 5    1  0.4866530E-005  0.2677876E+03  0.7818608E-02  0.1021566E+00
          4   -1    0    0  502    0 -0.00000000000E+00  0.00000000000E+00  0.25966856666E+04  0.25966856666E+04  0.00000000000E+00 0.  1.
         21   -1    0    0  501  502  0.00000000000E+00 -0.00000000000E+00 -0.19609965247E+03  0.19609965247E+03  0.00000000000E+00 0.  1.
        -13    1    1    2    0    0 -0.14351633932E+03 -0.91514704778E+02 -0.12623784269E+03  0.21191480584E+03  0.10566000000E+00 0.  1.
         13    1    1    2    0    0  0.25871493465E+02  0.28384820278E+03  0.10991753740E+04  0.11355287977E+04  0.10566000000E+00 0. -1.
          4    1    1    2  501    0  0.11764484585E+03 -0.19233349800E+03  0.14276484828E+04  0.14453417156E+04  0.00000000000E+00 0.  1.
</event>
<event>
 5    1  0.4866530E-005  0.3201814E+03  0.7818608E-02  0.9993063E-01
          4   -1    0    0  502    0 -0.00000000000E+00  0.00000000000E+00  0.12260325632E+04  0.12260325632E+04  0.00000000000E+00 0.  1.
         21   -1    0    0  501  502  0.00000000000E+00 -0.00000000000E+00 -0.11534396176E+03  0.11534396176E+03  0.00000000000E+00 0. -1.
        -13    1    1    2    0    0  0.18192736925E+03 -0.25488334927E+03  0.45837909430E+03  0.55513466355E+03  0.10566000000E+00 0.  1.
         13    1    1    2    0    0 -0.18951252378E+03  0.26469665260E+03  0.68109543908E+03  0.75489755786E+03  0.10566000000E+00 0. -1.
          4    1    1    2  501    0  0.75851545226E+01 -0.98133033315E+01 -0.28785931906E+02  0.31344303583E+02  0.00000000000E+00 0.  1.
</event>
<event>
 5    1  0.4866530E-005  0.9816083E+02  0.7818608E-02  0.1169706E+00
         21   -1    0    0  501  502  0.00000000000E+00  0.00000000000E+00  0.54677901498E+02  0.54677901498E+02  0.00000000000E+00 0.  1.
          4   -1    0    0  502    0 -0.00000000000E+00 -0.00000000000E+00 -0.59069570992E+03  0.59069570992E+03  0.00000000000E+00 0.  1.
        -13    1    1    2    0    0 -0.74927843215E+02  0.78957602151E+02 -0.37061616999E+03  0.38627042503E+03  0.10566000000E+00 0.  1.
         13    1    1    2    0    0  0.89966273692E+02  0.25090476242E+02 -0.65503160448E+02  0.11407952311E+03  0.10566000000E+00 0. -1.
          4    1    1    2  501    0 -0.15038430478E+02 -0.10404807839E+03 -0.99898477978E+02  0.14502366328E+03  0.00000000000E+00 0.  1.
</event>
<event>
 5    1  0.4866530E-005  0.1923628E+03  0.7818608E-02  0.1065501E+00
          4   -1    0    0  502    0 -0.00000000000E+00  0.00000000000E+00  0.20840947944E+04  0.20840947944E+04  0.00000000000E+00 0.  1.
         21   -1    0    0  501  502  0.00000000000E+00 -0.00000000000E+00 -0.33787313342E+02  0.33787313342E+02  0.00000000000E+00 0. -1.
        -13    1    1    2    0    0  0.10931917929E+03  0.17292758212E+03  0.10634556703E+04  0.10829554956E+04  0.10566000000E+00 0.  1.
         13    1    1    2    0    0 -0.57511683197E+02 -0.17494473960E+03  0.95810722103E+03  0.97564476823E+03  0.10566000000E+00 0. -1.
          4    1    1    2  501    0 -0.51807496092E+02  0.20171574866E+01  0.28744589695E+02  0.59281843868E+02  0.00000000000E+00 0.  1.
</event>
<event>
 5    1  0.4866530E-005  0.4771402E+03  0.7818608E-02  0.9891883E-01
          4   -1    0    0  502    0 -0.00000000000E+00  0.00000000000E+00  0.17467491454E+04  0.17467491454E+04  0.00000000000E+00 0.  1.
         21   -1    0    0  501  502  0.00000000000E+00 -0.00000000000E+00 -0.21433201222E+03  0.21433201222E+03  0.00000000000E+00 0.  1.
        -13    1    1    2    0    0  0.44280163877E+03 -0.29846993947E+03  0.70444864410E+03  0.88397143585E+03  0.10566000000E+00 0.  1.
         13    1    1    2    0    0 -0.24291572862E+02  0.13312674224E+03  0.50604117164E+03  0.52382295537E+03  0.10566000000E+00 0. -1.
          4    1    1    2  501    0 -0.41851006591E+03  0.16534319723E+03  0.32192731741E+03  0.55328676636E+03  0.00000000000E+00 0.  1.
</event>
<event>
 5    1  0.4866530E-005  0.3218355E+02  0.7818608E-02  0.1453395E+00
         -4   -1    0    0    0  501 -0.00000000000E+00  0.00000000000E+00  0.24904683470E+03  0.24904683470E+03  0.00000000000E+00 0. -1.
         21   -1    0    0  501  502  0.00000000000E+00 -0.00000000000E+00 -0.83527868832E+01  0.83527868832E+01  0.00000000000E+00 0. -1.
        -13    1    1    2    0    0 -0.91902653091E+01  0.63238389558E+01  0.12890033736E+02  0.17047464601E+02  0.10566000000E+00 0.  1.
         13    1    1    2    0    0  0.23827080879E+02  0.22615352602E+02  0.17740338622E+03  0.18041939076E+03  0.10566000000E+00 0. -1.
         -4    1    1    2    0  502 -0.14636815570E+02 -0.28939191558E+02  0.50400627864E+02  0.59932766223E+02  0.00000000000E+00 0. -1.
</event>
<event>
 5    1  0.4866530E-005  0.6473594E+02  0.7818608E-02  0.1374965E+00
         21   -1    0    0  501  502  0.00000000000E+00  0.00000000000E+00  0.12476408454E+03  0.12476408454E+03  0.00000000000E+00 0.  1.
          4   -1    0    0  502    0 -0.00000000000E+00 -0.00000000000E+00 -0.30578691165E+04  0.30578691165E+04  0.00000000000E+00 0.  1.
        -13    1    1    2    0    0 -0.97534907748E+01  0.15030358515E+02  0.10393977863E+03  0.10547289227E+03  0.10566000000E+00 0.  1.
         13    1    1    2    0    0 -0.20466196424E+03 -0.11303060469E+03 -0.10236474771E+04  0.10500079075E+04  0.10566000000E+00 0. -1.
          4    1    1    2  501    0  0.21441545501E+03  0.98000246174E+02 -0.20133973335E+04  0.20271524013E+04  0.00000000000E+00 0.  1.
</event>
<event>
 5    1  0.4866530E-005  0.9273419E+02  0.7818608E-02  0.1177171E+00
         21   -1    0    0  501  502  0.00000000000E+00  0.00000000000E+00  0.85180146244E+02  0.85180146244E+02  0.00000000000E+00 0.  1.
         -4   -1    0    0    0  501 -0.00000000000E+00 -0.00000000000E+00 -0.15625862081E+03  0.15625862081E+03  0.00000000000E+00 0. -1.
        -13    1    1    2    0    0 -0.56916566677E+02 -0.86224156716E+02 -0.99809908846E+01  0.10379659005E+03  0.10566000000E+00 0.  1.
         13    1    1    2    0    0  0.41463016025E+02  0.77898436646E+02 -0.74554580376E+02  0.11552378434E+03  0.10566000000E+00 0. -1.
         -4    1    1    2    0  502  0.15453550652E+02  0.83257200694E+01  0.13457096693E+02  0.22118392659E+02  0.00000000000E+00 0. -1.
</event>
<event>
 5    1  0.4866530E-005  0.2351806E+03  0.7818608E-02  0.1062264E+00
         -4   -1    0    0    0  501 -0.00000000000E+00  0.00000000000E+00  0.24071347693E+03  0.24071347693E+03  0.00000000000E+00 0. -1.
         21   -1    0    0  501  502  0.00000000000E+00 -0.00000000000E+00 -0.49211955729E+03  0.49211955729E+03  0.00000000000E+00 0. -1.
        -13    1    1    2    0    0 -0.10048769947E+03 -0.57170524335E+02 -0.36995178050E+02  0.12138740034E+03  0.10566000000E+00 0.  1.
         13    1    1    2    0    0  0.24751255242E+03 -0.11845702796E+03  0.30538643097E+02  0.27609264924E+03  0.10566000000E+00 0. -1.
         -4    1    1    2    0  502 -0.14702485295E+03  0.17562755229E+03 -0.24494954541E+03  0.33535298464E+03  0.00000000000E+00 0. -1.
</event>
<event>
 5    1  0.4866530E-005  0.8221360E+03  0.7818608E-02  0.8962494E-01
          4   -1    0    0  502    0 -0.00000000000E+00  0.00000000000E+00  0.15166009264E+04  0.15166009264E+04  0.00000000000E+00 0.  1.
         21   -1    0    0  501  502  0.00000000000E+00 -0.00000000000E+00 -0.65565840608E+03  0.65565840608E+03  0.00000000000E+00 0.  1.
        -13    1    1    2    0    0  0.71907864696E+03 -0.66909735020E+03  0.33789434794E+03  0.10387193876E+04  0.10566000000E+00 0.  1.
         13    1    1    2    0    0 -0.53101979451E+03  0.50495622607E+03  0.49054819100E+03  0.88181650657E+03  0.10566000000E+00 0. -1.
          4    1    1    2  501    0 -0.18805885245E+03  0.16414112413E+03  0.32499981370E+02  0.25172343833E+03  0.00000000000E+00 0.  1.
</event>
<event>
 5    1  0.4866530E-005  0.1282000E+03  0.7818608E-02  0.1124848E+00
         -4   -1    0    0    0  501 -0.00000000000E+00  0.00000000000E+00  0.73072924875E+03  0.73072924875E+03  0.00000000000E+00 0. -1.
         21   -1    0    0  501  502  0.00000000000E+00 -0.00000000000E+00 -0.12740620267E+03  0.12740620267E+03  0.00000000000E+00 0. -1.
        -13    1    1    2    0    0 -0.15155072547E+03 -0.23821314830E+02  0.47139931781E+02  0.16049069058E+03  0.10566000000E+00 0.  1.
         13    1    1    2    0    0  0.78793288289E+02  0.10311024053E+03  0.57407141197E+03  0.58855594567E+03  0.10566000000E+00 0. -1.
         -4    1    1    2    0  502  0.72757437179E+02 -0.79288925697E+02 -0.17888297671E+02  0.10908881518E+03  0.00000000000E+00 0. -1.
</event>
<event>
 5    1  0.4866530E-005  0.1921712E+02  0.7818608E-02  0.1521043E+00
         21   -1    0    0  501  502  0.00000000000E+00  0.00000000000E+00  0.13637513228E+03  0.13637513228E+03  0.00000000000E+00 0.  1.
          4   -1    0    0  502    0 -0.00000000000E+00 -0.00000000000E+00 -0.45812189116E+02  0.45812189116E+02  0.00000000000E+00 0.  1.
        -13    1    1    2    0    0 -0.18204714414E+02 -0.74529906270E+01 -0.42636859946E+02  0.46956061230E+02  0.10566000000E+00 0.  1.
         13    1    1    2    0    0  0.78556507654E+01  0.78350483374E+01  0.41834070160E+02  0.43280478528E+02  0.10566000000E+00 0. -1.
          4    1    1    2  501    0  0.10349063648E+02 -0.38205771038E+00  0.91365732951E+02  0.91950781639E+02  0.00000000000E+00 0.  1.
</event>
<event>
 5    1  0.4866530E-005  0.7466109E+02  0.7818608E-02  0.1215003E+00
         21   -1    0    0  501  502  0.00000000000E+00  0.00000000000E+00  0.28193426745E+03  0.28193426745E+03  0.00000000000E+00 0.  1.
         -4   -1    0    0    0  501 -0.00000000000E+00 -0.00000000000E+00 -0.33011646629E+02  0.33011646629E+02  0.00000000000E+00 0. -1.
        -13    1    1    2    0    0  0.62923092312E+02 -0.93098798592E+01  0.98314294839E+02  0.11709697324E+03  0.10566000000E+00 0.  1.
         13    1    1    2    0    0 -0.83932011099E+02 -0.13128952004E+02  0.65233985988E+02  0.10710945784E+03  0.10566000000E+00 0. -1.
         -4    1    1    2    0  502  0.21008918787E+02  0.22438831863E+02  0.85374339992E+02  0.90739482989E+02  0.00000000000E+00 0. -1.
</event>
<event>
 5    1  0.4866530E-005  0.8228973E+02  0.7818608E-02  0.1197731E+00
         -4   -1    0    0    0  501 -0.00000000000E+00  0.00000000000E+00  0.39955696186E+02  0.39955696186E+02  0.00000000000E+00 0. -1.
         21   -1    0    0  501  502  0.00000000000E+00 -0.00000000000E+00 -0.57332268623E+03  0.57332268623E+03  0.00000000000E+00 0. -1.
        -13    1    1    2    0    0  0.75577742652E+02 -0.23093985290E+02 -0.63426122779E+02  0.10133218421E+03  0.10566000000E+00 0.  1.
         13    1    1    2    0    0 -0.86508688228E+02  0.75412993324E+01 -0.69956360437E+02  0.11151021417E+03  0.10566000000E+00 0. -1.
         -4    1    1    2    0  502  0.10930945576E+02  0.15552685958E+02 -0.39998450683E+03  0.40043598404E+03  0.00000000000E+00 0. -1.
</event>
<event>
 5    1  0.4866530E-005  0.9465453E+02  0.7818608E-02  0.1173716E+00
         -4   -1    0    0    0  501 -0.00000000000E+00  0.00000000000E+00  0.20270026711E+03  0.20270026711E+03  0.00000000000E+00 0. -1.
         21   -1    0    0  501  502  0.00000000000E+00 -0.00000000000E+00 -0.89431900102E+02  0.89431900102E+02  0.00000000000E+00 0.  1.
        -13    1    1    2    0    0 -0.47993774947E+02  0.77498928896E+02 -0.11795935077E+02  0.91916492874E+02  0.10566000000E+00 0.  1.
         13    1    1    2    0    0  0.62696955475E+02 -0.72531021388E+02  0.14568866159E+03  0.17440428484E+03  0.10566000000E+00 0. -1.
         -4    1    1    2    0  502 -0.14703180528E+02 -0.49679075083E+01 -0.20624359509E+02  0.25811389498E+02  0.00000000000E+00 0. -1.
</event>
<event>
 5    1  0.4866530E-005  0.3255979E+03  0.7818608E-02  0.9972661E-01
         21   -1    0    0  501  502  0.00000000000E+00  0.00000000000E+00  0.22998215535E+03  0.22998215535E+03  0.00000000000E+00 0.  1.
          4   -1    0    0  502    0 -0.00000000000E+00 -0.00000000000E+00 -0.17663801756E+04  0.17663801756E+04  0.00000000000E+00 0.  1.
        -13    1    1    2    0    0 -0.17213903128E+03 -0.33794270169E+03 -0.21212950592E+03  0.43455270585E+03  0.10566000000E+00 0.  1.
         13    1    1    2    0    0 -0.10715452581E+03  0.31636230275E+03 -0.12167408943E+04  0.12617549739E+04  0.10566000000E+00 0. -1.
          4    1    1    2  501    0  0.27929355709E+03  0.21580398942E+02 -0.10752762000E+03  0.30005465121E+03  0.00000000000E+00 0.  1.
</event>
<event>
 5    1  0.4866530E-005  0.3448535E+03  0.7818608E-02  0.1008717E+00
          4   -1    0    0  502    0 -0.00000000000E+00  0.00000000000E+00  0.23305821701E+04  0.23305821701E+04  0.00000000000E+00 0.  1.
         21   -1    0    0  501  502  0.00000000000E+00 -0.00000000000E+00 -0.16568323464E+03  0.16568323464E+03  0.00000000000E+00 0.  1.
        -13    1    1    2    0    0  0.30258681464E+02  0.33186063763E+03  0.11777647086E+03  0.35343794203E+03  0.10566000000E+00 0.  1.
         13    1    1    2    0    0  0.17964909924E+03  0.57791443617E+02  0.69111433108E+03  0.71641655453E+03  0.10566000000E+00 0. -1.
          4    1    1    2  501    0 -0.20990778071E+03 -0.38965208125E+03  0.13560081335E+04  0.14264109082E+04  0.00000000000E+00 0.  1.
</event>
<event>
 5    1  0.4866530E-005  0.3880062E+03  0.7818608E-02  0.9977320E-01
         21   -1    0    0  501  502  0.00000000000E+00  0.00000000000E+00  0.46258756257E+03  0.46258756257E+03  0.00000000000E+00 0.  1.
          4   -1    0    0  502    0 -0.00000000000E+00 -0.00000000000E+00 -0.87005147215E+03  0.87005147215E+03  0.00000000000E+00 0.  1.
        -13    1    1    2    0    0 -0.13234095687E+02 -0.41284580831E+03  0.15392770283E+03  0.44080670548E+03  0.10566000000E+00 0.  1.
         13    1    1    2    0    0  0.12815221400E+03  0.13955823584E+03  0.63787675655E+02  0.19992090904E+03  0.10566000000E+00 0. -1.
          4    1    1    2  501    0 -0.11491811831E+03  0.27328757247E+03 -0.62517928806E+03  0.69191142020E+03  0.00000000000E+00 0.  1.
</event>
<event>
 5    1  0.4866530E-005  0.2204841E+03  0.7818608E-02  0.1046933E+00
         -4   -1    0    0    0  501 -0.00000000000E+00  0.00000000000E+00  0.52968103982E+03  0.52968103982E+03  0.00000000000E+00 0. -1.
         21   -1    0    0  501  502  0.00000000000E+00 -0.00000000000E+00 -0.19655888449E+03  0.19655888449E+03  0.00000000000E+00 0.  1.
        -13    1    1    2    0    0  0.50128760063E+02 -0.20382974067E+03 -0.43152686686E+02  0.21429330670E+03  0.10566000000E+00 0.  1.
         13    1    1    2    0    0 -0.34201375854E+02  0.22030675452E+03  0.41260888780E+03  0.46898923831E+03  0.10566000000E+00 0. -1.
         -4    1    1    2    0  502 -0.15927384210E+02 -0.16477013853E+02 -0.36334045779E+02  0.42957379296E+02  0.00000000000E+00 0. -1.
</event>
<event>
 5    1  0.4866530E-005  0.6696648E+02  0.7818608E-02  0.1247577E+00
         21   -1    0    0  501  502  0.00000000000E+00  0.00000000000E+00  0.34866082563E+02  0.34866082563E+02  0.00000000000E+00 0.  1.
         -4   -1    0    0    0  501 -0.00000000000E+00 -0.00000000000E+00 -0.37448271008E+03  0.37448271008E+03  0.00000000000E+00 0. -1.
        -13    1    1    2    0    0  0.53206154228E+01  0.50876675561E+02 -0.32903003198E+02  0.60822395942E+02  0.10566000000E+00 0.  1.
         13    1    1    2    0    0 -0.60888648340E+02 -0.74228865495E+02 -0.24066737244E+03  0.25911029947E+03  0.10566000000E+00 0. -1.
         -4    1    1    2    0  502  0.55568032917E+02  0.23352189934E+02 -0.66046251882E+02  0.89416097234E+02  0.00000000000E+00 0. -1.
</event>
<event>
 5    1  0.4866530E-005  0.2047200E+03  0.7818608E-02  0.1056947E+00
          4   -1    0    0  502    0 -0.00000000000E+00  0.00000000000E+00  0.27702244484E+03  0.27702244484E+03  0.00000000000E+00 0.  1.
         21   -1    0    0  501  502  0.00000000000E+00 -0.00000000000E+00 -0.29543165281E+03  0.29543165281E+03  0.00000000000E+00 0.  1.
        -13    1    1    2    0    0 -0.13752034521E+03 -0.21952084724E+03  0.41235799210E+02  0.26230068627E+03  0.10566000000E+00 0.  1.
         13    1    1    2    0    0  0.14559507325E+03  0.86901436918E+02 -0.16033839372E+02  0.17031406361E+03  0.10566000000E+00 0. -1.
          4    1    1    2  501    0 -0.80747280418E+01  0.13261941032E+03 -0.43611167804E+02  0.13983934777E+03  0.00000000000E+00 0.  1.
</event>
<event>
 5    1  0.4866530E-005  0.5506634E+03  0.7818608E-02  0.9373343E-01
         21   -1    0    0  501  502  0.00000000000E+00  0.00000000000E+00  0.24017439994E+03  0.24017439994E+03  0.00000000000E+00 0.  1.
          4   -1    0    0  502    0 -0.00000000000E+00 -0.00000000000E+00 -0.32928161254E+04  0.32928161254E+04  0.00000000000E+00 0.  1.
        -13    1    1    2    0    0 -0.55255576460E+03 -0.56977026265E+03 -0.88518940200E+03  0.11889139219E+04  0.10566000000E+00 0.  1.
         13    1    1    2    0    0  0.28734325336E+03  0.40604257965E+03 -0.17723789733E+04  0.18408595704E+04  0.10566000000E+00 0. -1.
          4    1    1    2  501    0  0.26521251125E+03  0.16372768300E+03 -0.39507335018E+03  0.50321703302E+03  0.00000000000E+00 0.  1.
</event>
<event>
 5    1  0.4866530E-005  0.1689022E+03  0.7818608E-02  0.1083832E+00
         21   -1    0    0  501  502  0.00000000000E+00  0.00000000000E+00  0.35351842298E+03  0.35351842298E+03  0.00000000000E+00 0. -1.
         -4   -1    0    0    0  501 -0.00000000000E+00 -0.00000000000E+00 -0.13150390536E+04  0.13150390536E+04  0.00000000000E+00 0. -1.
        -13    1    1    2    0    0  0.39398236232E+02  0.14455700221E+03  0.11345980965E+03  0.18794171297E+03  0.10566000000E+00 0.  1.
         13    1    1    2    0    0 -0.14497748184E+03 -0.14822569355E+03  0.14694618101E+03  0.25413090671E+03  0.10566000000E+00 0. -1.
         -4    1    1    2    0  502  0.10557924561E+03  0.36686913434E+01 -0.12219266213E+04  0.12264848569E+04  0.00000000000E+00 0. -1.
</event>
<event>
 5    1  0.4866530E-005  0.1395662E+03  0.7818608E-02  0.1111884E+00
         21   -1    0    0  501  502  0.00000000000E+00  0.00000000000E+00  0.11813943668E+04  0.11813943668E+04  0.00000000000E+00 0.  1.
          4   -1    0    0  502    0 -0.00000000000E+00 -0.00000000000E+00 -0.29658397754E+03  0.29658397754E+03  0.00000000000E+00 0.  1.
        -13    1    1    2    0    0 -0.28668616010E+02 -0.13579055311E+03 -0.23203343286E+03  0.27037102098E+03  0.10566000000E+00 0.  1.
         13    1    1    2    0    0  0.11291731627E+03  0.12259887561E+03  0.11583850394E+03  0.20297629116E+03  0.10566000000E+00 0. -1.
          4    1    1    2  501    0 -0.84248700261E+02  0.13191677507E+02  0.10010053182E+04  0.10046310323E+04  0.00000000000E+00 0.  1.
</event>
<event>
 5    1  0.4866530E-005  0.3040475E+03  0.7818608E-02  0.1005649E+00
         -4   -1    0    0    0  501 -0.00000000000E+00  0.00000000000E+00  0.12092775277E+04  0.12092775277E+04  0.00000000000E+00 0. -1.
         21   -1    0    0  501  502  0.00000000000E+00 -0.00000000000E+00 -0.42695634131E+03  0.42695634131E+03  0.00000000000E+00 0. -1.
        -13    1    1    2    0    0  0.28451397725E+03 -0.27241755452E+02  0.47577232103E+03  0.55502218794E+03  0.10566000000E+00 0.  1.
         13    1    1    2    0    0 -0.45628170608E+03  0.16254139642E+03 -0.20418050012E+03  0.52564473615E+03  0.10566000000E+00 0. -1.
         -4    1    1    2    0  502  0.17176772883E+03 -0.13529964097E+03  0.51072936552E+03  0.55556694495E+03  0.00000000000E+00 0. -1.
</event>
<event>
 5    1  0.4866530E-005  0.3577821E+03  0.7818608E-02  0.1007969E+00
         -4   -1    0    0    0  501 -0.00000000000E+00  0.00000000000E+00  0.15432833804E+04  0.15432833804E+04  0.00000000000E+00 0. -1.
         21   -1    0    0  501  502  0.00000000000E+00 -0.00000000000E+00 -0.29596074085E+03  0.29596074085E+03  0.00000000000E+00 0. -1.
        -13    1    1    2    0    0  0.10103192911E+03 -0.14057235818E+03  0.64164832492E+03  0.66459056766E+03  0.10566000000E+00 0.  1.
         13    1    1    2    0    0  0.28841977238E+03  0.21034256558E+03 -0.95523535080E+02  0.36953310665E+03  0.10566000000E+00 0. -1.
         -4    1    1    2    0  502 -0.38945170148E+03 -0.69770207397E+02  0.70119784974E+03  0.80512044695E+03  0.00000000000E+00 0. -1.
</event>
<event>
 5    1  0.4866530E-005  0.3344500E+03  0.7818608E-02  0.1015099E+00
         21   -1    0    0  501  502  0.00000000000E+00  0.00000000000E+00  0.50333449074E+03  0.50333449074E+03  0.00000000000E+00 0.  1.
          4   -1    0    0  502    0 -0.00000000000E+00 -0.00000000000E+00 -0.11293926686E+04  0.11293926686E+04  0.00000000000E+00 0.  1.
        -13    1    1    2    0    0 -0.20323976206E+03 -0.41704986896E+03 -0.34014039084E+03  0.57526732110E+03  0.10566000000E+00 0.  1.
         13    1    1    2    0    0  0.12849360966E+03  0.10922595996E+03 -0.59285701749E+03  0.61637681040E+03  0.10566000000E+00 0. -1.
          4    1    1    2  501    0  0.74746152399E+02  0.30782390900E+03  0.30693923047E+03  0.44108302784E+03  0.00000000000E+00 0.  1.
</event>
<event>
 5    1  0.4866530E-005  0.3915451E+03  0.7818608E-02  0.9753786E-01
          4   -1    0    0  502    0 -0.00000000000E+00  0.00000000000E+00  0.22432870224E+04  0.22432870224E+04  0.00000000000E+00 0.  1.
         21   -1    0    0  501  502  0.00000000000E+00 -0.00000000000E+00 -0.31898790001E+03  0.31898790001E+03  0.00000000000E+00 0.  1.
        -13    1    1    2    0    0  0.58639567598E+02  0.41838625509E+03 -0.10746014880E+03  0.43592815014E+03  0.10566000000E+00 0.  1.
         13    1    1    2    0    0 -0.25540292572E+03 -0.30108463858E+03  0.11787962178E+04  0.12431585371E+04  0.10566000000E+00 0. -1.
          4    1    1    2  501    0  0.19676335812E+03 -0.11730161652E+03  0.85296305344E+03  0.88318823524E+03  0.00000000000E+00 0.  1.
</event>
<event>
 5    1  0.4866530E-005  0.4697239E+03  0.7818608E-02  0.9697464E-01
         21   -1    0    0  501  502  0.00000000000E+00  0.00000000000E+00  0.12800063214E+03  0.12800063214E+03  0.00000000000E+00 0.  1.
          4   -1    0    0  502    0 -0.00000000000E+00 -0.00000000000E+00 -0.33424564536E+04  0.33424564536E+04  0.00000000000E+00 0.  1.
        -13    1    1    2    0    0 -0.51993421165E+03 -0.13674887010E+03 -0.17125223821E+04  0.17949275078E+04  0.10566000000E+00 0.  1.
         13    1    1    2    0    0  0.19795565334E+03 -0.19181918545E+03 -0.67759626166E+03  0.73151742671E+03  0.10566000000E+00 0. -1.
          4    1    1    2  501    0  0.32197855830E+03  0.32856805556E+03 -0.82433717771E+03  0.94401215124E+03  0.00000000000E+00 0.  1.
</event>
<event>
 5    1  0.4866530E-005  0.4109550E+03  0.7818608E-02  0.9697930E-01
         21   -1    0    0  501  502  0.00000000000E+00  0.00000000000E+00  0.15636076873E+03  0.15636076873E+03  0.00000000000E+00 0. -1.
          4   -1    0    0  502    0 -0.00000000000E+00 -0.00000000000E+00 -0.17573060329E+04  0.17573060329E+04  0.00000000000E+00 0.  1.
        -13    1    1    2    0    0  0.77658299442E+02 -0.42401055606E+03 -0.10197257304E+04  0.11070936454E+04  0.10566000000E+00 0.  1.
         13    1    1    2    0    0 -0.11391433942E+03  0.36985620558E+03 -0.61990259708E+03  0.73078678871E+03  0.10566000000E+00 0. -1.
          4    1    1    2  501    0  0.36256039976E+02  0.54154350488E+02  0.38683063367E+02  0.75786367527E+02  0.00000000000E+00 0.  1.
</event>
<event>
 5    1  0.4935969E-005  0.4895398E+03  0.7818608E-02  0.9858750E-01
         -4   -1    0    0    0  501 -0.00000000000E+00  0.00000000000E+00  0.11732781813E+04  0.11732781813E+04  0.00000000000E+00 0. -1.
         21   -1    0    0  501  502  0.00000000000E+00 -0.00000000000E+00 -0.46693492864E+03  0.46693492864E+03  0.00000000000E+00 0. -1.
        -13    1    1    2    0    0 -0.11249722957E+02 -0.13961351811E+03  0.60651911235E+03  0.62248207647E+03  0.10566000000E+00 0.  1.
         13    1    1    2    0    0  0.88614301703E+02 -0.39767363987E+03  0.21815281717E+03  0.46215525650E+03  0.10566000000E+00 0. -1.
         -4    1    1    2    0  502 -0.77364578746E+02  0.53728715798E+03 -0.11832867686E+03  0.55557577696E+03  0.00000000000E+00 0. -1.
</event>
<event>
 5    1  0.4866530E-005  0.4745870E+03  0.7818608E-02  0.9791781E-01
         21   -1    0    0  501  502  0.00000000000E+00  0.00000000000E+00  0.12871188807E+03  0.12871188807E+03  0.00000000000E+00 0. -1.
         -4   -1    0    0    0  501 -0.00000000000E+00 -0.00000000000E+00 -0.28450063478E+04  0.28450063478E+04  0.00000000000E+00 0. -1.
        -13    1    1    2    0    0  0.11904768802E+03  0.15189935188E+03 -0.67805743031E+03  0.70498769853E+03  0.10566000000E+00 0.  1.
         13    1    1    2    0    0  0.35002469023E+03  0.11956318738E+03 -0.13083804178E+04  0.13596587691E+04  0.10566000000E+00 0. -1.
         -4    1    1    2    0  502 -0.46907237825E+03 -0.27146253926E+03 -0.72985661159E+03  0.90907176820E+03  0.00000000000E+00 0. -1.
</event>
<event>
 5    1  0.4866530E-005  0.1330248E+03  0.7818608E-02  0.1119174E+00
         21   -1    0    0  501  502  0.00000000000E+00  0.00000000000E+00  0.30973390769E+03  0.30973390769E+03  0.00000000000E+00 0.  1.
          4   -1    0    0  502    0 -0.00000000000E+00 -0.00000000000E+00 -0.43301461118E+03  0.43301461118E+03  0.00000000000E+00 0.  1.
        -13    1    1    2    0    0 -0.64699581855E+02 -0.14378010391E+03 -0.26924268626E+03  0.31201023932E+03  0.10566000000E+00 0.  1.
         13    1    1    2    0    0 -0.24841218993E+01  0.11292074356E+03 -0.11399368070E+03  0.16047378475E+03  0.10566000000E+00 0. -1.
          4    1    1    2  501    0  0.67183703755E+02  0.30859360354E+02  0.25995566348E+03  0.27026449479E+03  0.00000000000E+00 0.  1.
</event>
<event>
 5    1  0.4866530E-005  0.2261738E+02  0.7818608E-02  0.1476401E+00
         21   -1    0    0  501  502  0.00000000000E+00  0.00000000000E+00  0.31310237177E+03  0.31310237177E+03  0.00000000000E+00 0.  1.
          4   -1    0    0  502    0 -0.00000000000E+00 -0.00000000000E+00 -0.67159959016E+02  0.67159959016E+02  0.00000000000E+00 0.  1.
        -13    1    1    2    0    0  0.17928928476E+02 -0.16445077619E+02 -0.59325719334E+02  0.64120505244E+02  0.10566000000E+00 0.  1.
         13    1    1    2    0    0 -0.14175375295E+02  0.60799426520E+01  0.58126123358E+01  0.16483464248E+02  0.10566000000E+00 0. -1.
          4    1    1    2  501    0 -0.37535531815E+01  0.10365134967E+02  0.29945551975E+03  0.29965836130E+03  0.00000000000E+00 0.  1.
</event>
<event>
 5    1  0.4866530E-005  0.3615347E+03  0.7818608E-02  0.9852692E-01
         -4   -1    0    0    0  501 -0.00000000000E+00  0.00000000000E+00  0.10285686198E+04  0.10285686198E+04  0.00000000000E+00 0. -1.
         21   -1    0    0  501  502  0.00000000000E+00 -0.00000000000E+00 -0.58158911781E+03  0.58158911781E+03  0.00000000000E+00 0. -1.
        -13    1    1    2    0    0  0.12062994641E+03 -0.33378984758E+03  0.41810340947E+03  0.54843205458E+03  0.10566000000E+00 0.  1.
         13    1    1    2    0    0  0.28728238535E+03  0.24424048481E+03 -0.33758670538E+03  0.50611202136E+03  0.10566000000E+00 0. -1.
         -4    1    1    2    0  502 -0.40791233176E+03  0.89549362773E+02  0.36646279790E+03  0.55561366166E+03  0.00000000000E+00 0. -1.
</event>
<event>
 5    1  0.4866530E-005  0.1232009E+03  0.7818608E-02  0.1131022E+00
         -4   -1    0    0    0  501 -0.00000000000E+00  0.00000000000E+00  0.10322756761E+03  0.10322756761E+03  0.00000000000E+00 0. -1.
         21   -1    0    0  501  502  0.00000000000E+00 -0.00000000000E+00 -0.24310359356E+03  0.24310359356E+03  0.00000000000E+00 0.  1.
        -13    1    1    2    0    0 -0.11209116390E+03  0.32747065966E+02 -0.43452050149E+02  0.12459892126E+03  0.10566000000E+00 0.  1.
         13    1    1    2    0    0  0.12594799401E+03 -0.25411806614E+02 -0.45884490385E+01  0.12856796700E+03  0.10566000000E+00 0. -1.
         -4    1    1    2    0  502 -0.13856830116E+02 -0.73352593518E+01 -0.91835526766E+02  0.93164272910E+02  0.00000000000E+00 0. -1.
</event>
<event>
 5    1  0.4866530E-005  0.4496296E+02  0.7818608E-02  0.1313777E+00
         21   -1    0    0  501  502  0.00000000000E+00  0.00000000000E+00  0.33796680908E+02  0.33796680908E+02  0.00000000000E+00 0. -1.
         -4   -1    0    0    0  501 -0.00000000000E+00 -0.00000000000E+00 -0.26615380724E+03  0.26615380724E+03  0.00000000000E+00 0. -1.
        -13    1    1    2    0    0  0.40130210512E+02 -0.89517520930E+01 -0.11834389140E+03  0.12528310124E+03  0.10566000000E+00 0.  1.
         13    1    1    2    0    0 -0.41773179045E+02  0.34071702516E+02 -0.13275569793E+03  0.14328281787E+03  0.10566000000E+00 0. -1.
         -4    1    1    2    0  502  0.16429685326E+01 -0.25119950423E+02  0.18742462992E+02  0.31384569040E+02  0.00000000000E+00 0. -1.
</event>
<event>
 5    1  0.4866530E-005  0.5580174E+03  0.7818608E-02  0.9597132E-01
         -4   -1    0    0    0  501 -0.00000000000E+00  0.00000000000E+00  0.15416612524E+04  0.15416612524E+04  0.00000000000E+00 0. -1.
         21   -1    0    0  501  502  0.00000000000E+00 -0.00000000000E+00 -0.34508936637E+03  0.34508936637E+03  0.00000000000E+00 0. -1.
        -13    1    1    2    0    0 -0.22722680361E+03 -0.56285398529E+02  0.47985256646E+03  0.53390875913E+03  0.10566000000E+00 0.  1.
         13    1    1    2    0    0  0.33732553283E+03 -0.48043081284E+03  0.27107166561E+03  0.64659271577E+03  0.10566000000E+00 0. -1.
         -4    1    1    2    0  502 -0.11009872922E+03  0.53671621137E+03  0.44564765395E+03  0.70624914385E+03  0.00000000000E+00 0. -1.
</event>
<event>
 5    1  0.6295743E-005  0.3425966E+03  0.7818608E-02  0.1019848E+00
         -4   -1    0    0    0  501 -0.00000000000E+00  0.00000000000E+00  0.11245490644E+04  0.11245490644E+04  0.00000000000E+00 0. -1.
         21   -1    0    0  501  502  0.00000000000E+00 -0.00000000000E+00 -0.32252398143E+03  0.32252398143E+03  0.00000000000E+00 0. -1.
        -13    1    1    2    0    0 -0.80140092102E+02  0.10862757011E+03  0.28766979608E+03  0.31776769202E+03  0.10566000000E+00 0.  1.
         13    1    1    2    0    0 -0.65946764021E+02  0.22108959412E+03  0.69045014755E+03  0.72797733600E+03  0.10566000000E+00 0. -1.
         -4    1    1    2    0  502  0.14608685612E+03 -0.32971716423E+03 -0.17609486068E+03  0.40132801780E+03  0.00000000000E+00 0. -1.
</event>
<event>
 5    1  0.4866530E-005  0.4863462E+03  0.7818608E-02  0.1003563E+00
         21   -1    0    0  501  502  0.00000000000E+00  0.00000000000E+00  0.68762831689E+03  0.68762831689E+03  0.00000000000E+00 0. -1.
         -4   -1    0    0    0  501 -0.00000000000E+00 -0.00000000000E+00 -0.67993162908E+03  0.67993162908E+03  0.00000000000E+00 0. -1.
        -13    1    1    2    0    0  0.24574910449E+02  0.75601512646E+02 -0.31049471756E+03  0.32050974359E+03  0.10566000000E+00 0.  1.
         13    1    1    2    0    0 -0.43815215621E+03 -0.26015334154E+03  0.30521025102E+03  0.59397843530E+03  0.10566000000E+00 0. -1.
         -4    1    1    2    0  502  0.41357724576E+03  0.18455182889E+03  0.12981154346E+02  0.45307176708E+03  0.00000000000E+00 0. -1.
</event>
<event>
 5    1  0.4866530E-005  0.2964617E+03  0.7818608E-02  0.1061773E+00
         -4   -1    0    0    0  501 -0.00000000000E+00  0.00000000000E+00  0.52450821023E+03  0.52450821023E+03  0.00000000000E+00 0. -1.
         21   -1    0    0  501  502  0.00000000000E+00 -0.00000000000E+00 -0.49975963253E+03  0.49975963253E+03  0.00000000000E+00 0. -1.
        -13    1    1    2    0    0  0.58463716867E+02 -0.31310855568E+01  0.79592319122E+02  0.98806671404E+02  0.10566000000E+00 0.  1.
         13    1    1    2    0    0  0.12521149768E+03  0.26579109605E+03 -0.37235206827E+03  0.47430886540E+03  0.10566000000E+00 0. -1.
         -4    1    1    2    0  502 -0.18367521454E+03 -0.26266001049E+03  0.31750832684E+03  0.45115230595E+03  0.00000000000E+00 0. -1.
</event>
<event>
 5    1  0.4866530E-005  0.3274651E+02  0.7818608E-02  0.1384123E+00
         21   -1    0    0  501  502  0.00000000000E+00  0.00000000000E+00  0.36146851867E+02  0.36146851867E+02  0.00000000000E+00 0. -1.
         -4   -1    0    0    0  501 -0.00000000000E+00 -0.00000000000E+00 -0.87681347953E+02  0.87681347953E+02  0.00000000000E+00 0. -1.
        -13    1    1    2    0    0  0.25287787203E+01 -0.24232299829E+02 -0.17777922269E+01  0.24428892444E+02  0.10566000000E+00 0.  1.
         13    1    1    2    0    0  0.87121114193E+01  0.35657061862E+02 -0.66664694410E+02  0.76102034078E+02  0.10566000000E+00 0. -1.
         -4    1    1    2    0  502 -0.11240890140E+02 -0.11424762033E+02  0.16907990551E+02  0.23297273298E+02  0.00000000000E+00 0. -1.
</event>
<event>
 5    1  0.4866530E-005  0.3832033E+03  0.7818608E-02  0.9778848E-01
         21   -1    0    0  501  502  0.00000000000E+00  0.00000000000E+00  0.52371908002E+03  0.52371908002E+03  0.00000000000E+00 0.  1.
          4   -1    0    0  502    0 -0.00000000000E+00 -0.00000000000E+00 -0.28389596786E+04  0.28389596786E+04  0.00000000000E+00 0.  1.
        -13    1    1    2    0    0 -0.56201141387E+03  0.30905591559E+03  0.23034326239E+03  0.68149131907E+03  0.10566000000E+00 0.  1.
         13    1    1    2    0    0  0.32801665859E+03 -0.18064713318E+03 -0.22579448468E+04  0.22887864159E+04  0.10566000000E+00 0. -1.
          4    1    1    2  501    0  0.23399475528E+03 -0.12840878241E+03 -0.28763901411E+03  0.39240102361E+03  0.00000000000E+00 0.  1.
</event>
<event>
 5    1  0.4866530E-005  0.1831963E+03  0.7818608E-02  0.1072309E+00
         21   -1    0    0  501  502  0.00000000000E+00  0.00000000000E+00  0.82577907598E+02  0.82577907598E+02  0.00000000000E+00 0.  1.
         -4   -1    0    0    0  501 -0.00000000000E+00 -0.00000000000E+00 -0.80747406392E+03  0.80747406392E+03  0.00000000000E+00 0. -1.
        -13    1    1    2    0    0  0.62562292618E+02  0.17096546728E+03 -0.98832254021E+02  0.20714984204E+03  0.10566000000E+00 0.  1.
         13    1    1    2    0    0 -0.74000349996E+02 -0.16796220063E+03 -0.63931595417E+03  0.66514077688E+03  0.10566000000E+00 0. -1.
         -4    1    1    2    0  502  0.11438057378E+02 -0.30032666484E+01  0.13252051873E+02  0.17761352595E+02  0.00000000000E+00 0. -1.
</event>
<event>
 5    1  0.4866530E-005  0.1554519E+03  0.7818608E-02  0.1101175E+00
         21   -1    0    0  501  502  0.00000000000E+00  0.00000000000E+00  0.54060371739E+03  0.54060371739E+03  0.00000000000E+00 0. -1.
          4   -1    0    0  502    0 -0.00000000000E+00 -0.00000000000E+00 -0.20329459600E+03  0.20329459600E+03  0.00000000000E+00 0.  1.
        -13    1    1    2    0    0 -0.22588362542E+02  0.15028103088E+03 -0.72355183398E+02  0.16831490158E+03  0.10566000000E+00 0.  1.
         13    1    1    2    0    0  0.15918557990E+03 -0.54033953757E+02  0.36617200512E+03  0.40291644978E+03  0.10566000000E+00 0. -1.
          4    1    1    2  501    0 -0.13659721736E+03 -0.96247077123E+02  0.43492299663E+02  0.17266696202E+03  0.00000000000E+00 0.  1.
</event>
<event>
 5    1  0.4866530E-005  0.4559967E+03  0.7818608E-02  0.9986348E-01
         21   -1    0    0  501  502  0.00000000000E+00  0.00000000000E+00  0.15543920527E+03  0.15543920527E+03  0.00000000000E+00 0. -1.
         -4   -1    0    0    0  501 -0.00000000000E+00 -0.00000000000E+00 -0.21252700581E+04  0.21252700581E+04  0.00000000000E+00 0. -1.
        -13    1    1    2    0    0 -0.97545063556E+02 -0.57659300959E+02 -0.48896328512E+03  0.50192104934E+03  0.10566000000E+00 0.  1.
         13    1    1    2    0    0  0.34600265216E+03 -0.32098418540E+03 -0.10609291953E+04  0.11611715856E+04  0.10566000000E+00 0. -1.
         -4    1    1    2    0  502 -0.24845758860E+03  0.37864348636E+03 -0.41993837241E+03  0.61761662844E+03  0.00000000000E+00 0. -1.
</event>
<event>
 5    1  0.4866530E-005  0.1538480E+02  0.7818608E-02  0.1586535E+00
         21   -1    0    0  501  502  0.00000000000E+00  0.00000000000E+00  0.18898791916E+02  0.18898791916E+02  0.00000000000E+00 0. -1.
         -4   -1    0    0    0  501 -0.00000000000E+00 -0.00000000000E+00 -0.28073541515E+02  0.28073541515E+02  0.00000000000E+00 0. -1.
        -13    1    1    2    0    0 -0.19242085715E+02 -0.50974721354E+01 -0.10080213198E+02  0.22312865056E+02  0.10566000000E+00 0.  1.
         13    1    1    2    0    0  0.79055798847E+01  0.95525416325E+01 -0.41971213620E+00  0.12407117605E+02  0.10566000000E+00 0. -1.
         -4    1    1    2    0  502  0.11336505830E+02 -0.44550694970E+01  0.13251757356E+01  0.12252350770E+02  0.00000000000E+00 0. -1.
</event>
<event>
 5    1  0.4866530E-005  0.2295525E+03  0.7818608E-02  0.1050371E+00
         21   -1    0    0  501  502  0.00000000000E+00  0.00000000000E+00  0.17012098221E+04  0.17012098221E+04  0.00000000000E+00 0. -1.
         -4   -1    0    0    0  501 -0.00000000000E+00 -0.00000000000E+00 -0.24448198992E+03  0.24448198992E+03  0.00000000000E+00 0. -1.
        -13    1    1    2    0    0 -0.72473212546E+02  0.16075670192E+03  0.70485292123E+01  0.17647882785E+03  0.10566000000E+00 0.  1.
         13    1    1    2    0    0 -0.12441219288E+03 -0.27630394182E+03  0.13726555736E+01  0.30302501110E+03  0.10566000000E+00 0. -1.
         -4    1    1    2    0  502  0.19688540543E+03  0.11554723990E+03  0.14483066474E+04  0.14661879731E+04  0.00000000000E+00 0. -1.
</event>
<event>
 5    1  0.4866530E-005  0.4294603E+03  0.7818608E-02  0.1000342E+00
         21   -1    0    0  501  502  0.00000000000E+00  0.00000000000E+00  0.10702965257E+04  0.10702965257E+04  0.00000000000E+00 0. -1.
         -4   -1    0    0    0  501 -0.00000000000E+00 -0.00000000000E+00 -0.30817330944E+03  0.30817330944E+03  0.00000000000E+00 0. -1.
        -13    1    1    2    0    0 -0.12759893692E+03 -0.12946129719E+02  0.49891568663E+02  0.13761638989E+03  0.10566000000E+00 0.  1.
         13    1    1    2    0    0  0.46893533728E+03  0.22489452658E+03  0.13457199482E+03  0.53720343594E+03  0.10566000000E+00 0. -1.
         -4    1    1    2    0  502 -0.34133640036E+03 -0.21194839686E+03  0.57765965278E+03  0.70365000930E+03  0.00000000000E+00 0. -1.
</event>
<event>
 5    1  0.4866530E-005  0.4643756E+03  0.7818608E-02  0.9559669E-01
         21   -1    0    0  501  502  0.00000000000E+00  0.00000000000E+00  0.42724687990E+03  0.42724687990E+03  0.00000000000E+00 0.  1.
         -4   -1    0    0    0  501 -0.00000000000E+00 -0.00000000000E+00 -0.12237819042E+04  0.12237819042E+04  0.00000000000E+00 0. -1.
        -13    1    1    2    0    0 -0.30706486158E+03 -0.19142834628E+03 -0.89529640799E+02  0.37275891501E+03  0.10566000000E+00 0.  1.
         13    1    1    2    0    0  0.55681308668E+03  0.32732185916E+03 -0.16566250128E+03  0.66680168602E+03  0.10566000000E+00 0. -1.
         -4    1    1    2    0  502 -0.24974822510E+03 -0.13589351288E+03 -0.54134288219E+03  0.61146818305E+03  0.00000000000E+00 0. -1.
</event>
<event>
 5    1  0.4866530E-005  0.1956202E+03  0.7818608E-02  0.1064907E+00
         21   -1    0    0  501  502  0.00000000000E+00  0.00000000000E+00  0.23438827264E+03  0.23438827264E+03  0.00000000000E+00 0. -1.
         -4   -1    0    0    0  501 -0.00000000000E+00 -0.00000000000E+00 -0.17399290381E+04  0.17399290381E+04  0.00000000000E+00 0. -1.
        -13    1    1    2    0    0  0.17835992264E+03 -0.53052089997E+02 -0.52371664663E+03  0.55579305805E+03  0.10566000000E+00 0.  1.
         13    1    1    2    0    0  0.89010188239E+02 -0.16834843231E+03  0.14505740983E+03  0.23938603047E+03  0.10566000000E+00 0. -1.
         -4    1    1    2    0  502 -0.26737011088E+03  0.22140052231E+03 -0.11268815286E+04  0.11791382222E+04  0.00000000000E+00 0. -1.
</event>
<event>
 5    1  0.4866530E-005  0.4370537E+03  0.7818608E-02  0.1003698E+00
         -4   -1    0    0    0  501 -0.00000000000E+00  0.00000000000E+00  0.81487526073E+03  0.81487526073E+03  0.00000000000E+00 0. -1.
         21   -1    0    0  501  502  0.00000000000E+00 -0.00000000000E+00 -0.61238562930E+03  0.61238562930E+03  0.00000000000E+00 0. -1.
        -13    1    1    2    0    0 -0.14889390292E+02 -0.10803763440E+03  0.37082603895E+03  0.38653044734E+03  0.10566000000E+00 0.  1.
         13    1    1    2    0    0  0.31372633655E+02 -0.35464210614E+03  0.23509584873E+03  0.42664427202E+03  0.10566000000E+00 0. -1.
         -4    1    1    2    0  502 -0.16483243363E+02  0.46267974054E+03 -0.40343225626E+03  0.61408617068E+03  0.00000000000E+00 0. -1.
</event>
<event>
 5    1  0.4866530E-005  0.6084120E+03  0.7818608E-02  0.9267613E-01
         -4   -1    0    0    0  501 -0.00000000000E+00  0.00000000000E+00  0.13418747348E+04  0.13418747348E+04  0.00000000000E+00 0. -1.
         21   -1    0    0  501  502  0.00000000000E+00 -0.00000000000E+00 -0.52169383940E+03  0.52169383940E+03  0.00000000000E+00 0. -1.
        -13    1    1    2    0    0 -0.15968685796E+02 -0.57216446493E+03  0.31787770404E+03  0.65473156312E+03  0.10566000000E+00 0.  1.
         13    1    1    2    0    0  0.56748555873E+02  0.63163568567E+03  0.73175382532E+03  0.96832211069E+03  0.10566000000E+00 0. -1.
         -4    1    1    2    0  502 -0.40779870076E+02 -0.59471220743E+02 -0.22945063395E+03  0.24051490041E+03  0.00000000000E+00 0. -1.
</event>
<event>
 5    1  0.4866530E-005  0.4797452E+03  0.7818608E-02  0.9877506E-01
         -4   -1    0    0    0  501 -0.00000000000E+00  0.00000000000E+00  0.85500501789E+03  0.85500501789E+03  0.00000000000E+00 0. -1.
         21   -1    0    0  501  502  0.00000000000E+00 -0.00000000000E+00 -0.64018482192E+03  0.64018482192E+03  0.00000000000E+00 0. -1.
        -13    1    1    2    0    0  0.61274255704E+02  0.12555976694E+03  0.41644297734E+03  0.43925454354E+03  0.10566000000E+00 0.  1.
         13    1    1    2    0    0 -0.21076099841E+01  0.39294679247E+03  0.15653629595E+03  0.42298374300E+03  0.10566000000E+00 0. -1.
         -4    1    1    2    0  502 -0.59166645720E+02 -0.51850655941E+03 -0.35815907732E+03  0.63295155326E+03  0.00000000000E+00 0. -1.
</event>
<event>
 5    1  0.4866530E-005  0.4403856E+03  0.7818608E-02  0.9868954E-01
         21   -1    0    0  501  502  0.00000000000E+00  0.00000000000E+00  0.16756948245E+03  0.16756948245E+03  0.00000000000E+00 0. -1.
         -4   -1    0    0    0  501 -0.00000000000E+00 -0.00000000000E+00 -0.18907912959E+04  0.18907912959E+04  0.00000000000E+00 0. -1.
        -13    1    1    2    0    0 -0.18513880351E+03  0.16728125144E+02 -0.43221369541E+03  0.47049431070E+03  0.10566000000E+00 0.  1.
         13    1    1    2    0    0 -0.30827997521E+03 -0.13499485102E+03 -0.85508299166E+03  0.91892713895E+03  0.10566000000E+00 0. -1.
         -4    1    1    2    0  502  0.49341877872E+03  0.11826672587E+03 -0.43592512635E+03  0.66893932866E+03  0.00000000000E+00 0. -1.
</event>
<event>
 5    1  0.4866530E-005  0.3718018E+03  0.7818608E-02  0.9814214E-01
         21   -1    0    0  501  502  0.00000000000E+00  0.00000000000E+00  0.74672300540E+02  0.74672300540E+02  0.00000000000E+00 0.  1.
         -4   -1    0    0    0  501 -0.00000000000E+00 -0.00000000000E+00 -0.28205632397E+04  0.28205632397E+04  0.00000000000E+00 0. -1.
        -13    1    1    2    0    0 -0.21035162008E+03 -0.24647603975E+03 -0.78031890017E+03  0.84492357014E+03  0.10566000000E+00 0.  1.
         13    1    1    2    0    0  0.36347616346E+03  0.22599392857E+03 -0.13936328443E+04  0.14578754038E+04  0.10566000000E+00 0. -1.
         -4    1    1    2    0  502 -0.15312454338E+03  0.20482111183E+02 -0.57193919477E+03  0.59243656637E+03  0.00000000000E+00 0. -1.
</event>
<event>
 5    1  0.4866530E-005  0.3179845E+03  0.7818608E-02  0.1000146E+00
         21   -1    0    0  501  502  0.00000000000E+00  0.00000000000E+00  0.12190022885E+04  0.12190022885E+04  0.00000000000E+00 0.  1.
          4   -1    0    0  502    0 -0.00000000000E+00 -0.00000000000E+00 -0.21159097211E+03  0.21159097211E+03  0.00000000000E+00 0.  1.
        -13    1    1    2    0    0 -0.11616027779E+03 -0.30083252514E+03 -0.25897603201E+02  0.32351833849E+03  0.10566000000E+00 0.  1.
         13    1    1    2    0    0  0.15662279496E+03  0.25828642347E+03  0.62057262514E+03  0.69018328775E+03  0.10566000000E+00 0. -1.
          4    1    1    2  501    0 -0.40462517172E+02  0.42546101677E+02  0.41273629440E+03  0.41689163434E+03  0.00000000000E+00 0.  1.
</event>
<event>
 5    1  0.4866530E-005  0.4553413E+03  0.7818608E-02  0.9745811E-01
         21   -1    0    0  501  502  0.00000000000E+00  0.00000000000E+00  0.12302414146E+04  0.12302414146E+04  0.00000000000E+00 0.  1.
          4   -1    0    0  502    0 -0.00000000000E+00 -0.00000000000E+00 -0.11834738463E+04  0.11834738463E+04  0.00000000000E+00 0.  1.
        -13    1    1    2    0    0 -0.94116728114E+01  0.27929770310E+03 -0.10526372273E+03  0.29862392575E+03  0.10566000000E+00 0.  1.
         13    1    1    2    0    0 -0.15771757458E+03  0.20151106567E+03 -0.90575031973E+03  0.94120412015E+03  0.10566000000E+00 0. -1.
          4    1    1    2  501    0  0.16712924739E+03 -0.48080876878E+03  0.10577816108E+04  0.11738872150E+04  0.00000000000E+00 0.  1.
</event>
<event>
 5    1  0.4866530E-005  0.9958796E+02  0.7818608E-02  0.1165239E+00
          4   -1    0    0  502    0 -0.00000000000E+00  0.00000000000E+00  0.47912172791E+03  0.47912172791E+03  0.00000000000E+00 0.  1.
         21   -1    0    0  501  502  0.00000000000E+00 -0.00000000000E+00 -0.48733593391E+02  0.48733593391E+02  0.00000000000E+00 0.  1.
        -13    1    1    2    0    0 -0.86584374485E+02 -0.54076625023E+02  0.40702556179E+03  0.41963192728E+03  0.10566000000E+00 0.  1.
         13    1    1    2    0    0  0.70973813058E+02  0.50577800920E+02  0.28047533928E+02  0.91553653173E+02  0.10566000000E+00 0. -1.
          4    1    1    2  501    0  0.15610561428E+02  0.34988241031E+01 -0.46849612056E+01  0.16669740840E+02  0.00000000000E+00 0.  1.
</event>
<event>
 5    1  0.4866530E-005  0.4126367E+03  0.7818608E-02  0.1017962E+00
         21   -1    0    0  501  502  0.00000000000E+00  0.00000000000E+00  0.47126168744E+03  0.47126168744E+03  0.00000000000E+00 0. -1.
         -4   -1    0    0    0  501 -0.00000000000E+00 -0.00000000000E+00 -0.60723924879E+03  0.60723924879E+03  0.00000000000E+00 0. -1.
        -13    1    1    2    0    0  0.81100698643E+02  0.12107800663E+02 -0.71353968132E+01  0.82309460021E+02  0.10566000000E+00 0.  1.
         13    1    1    2    0    0  0.30087665018E+03 -0.20457919982E+03 -0.35843376981E+03  0.51073886295E+03  0.10566000000E+00 0. -1.
         -4    1    1    2    0  502 -0.38197734883E+03  0.19247139915E+03  0.22959160527E+03  0.48545261326E+03  0.00000000000E+00 0. -1.
</event>
<event>
 5    1  0.4866530E-005  0.3554474E+03  0.7818608E-02  0.1009769E+00
         21   -1    0    0  501  502  0.00000000000E+00  0.00000000000E+00  0.56394381208E+03  0.56394381208E+03  0.00000000000E+00 0. -1.
         -4   -1    0    0    0  501 -0.00000000000E+00 -0.00000000000E+00 -0.13008629781E+04  0.13008629781E+04  0.00000000000E+00 0. -1.
        -13    1    1    2    0    0  0.46782098269E+03 -0.22515426825E+03 -0.52684413520E+03  0.73967267783E+03  0.10566000000E+00 0.  1.
         13    1    1    2    0    0  0.18618858052E+03 -0.94424821611E+02  0.20046630895E+03  0.28942872463E+03  0.10566000000E+00 0. -1.
         -4    1    1    2    0  502 -0.65400956321E+03  0.31957908987E+03 -0.41054133982E+03  0.83570538777E+03  0.00000000000E+00 0. -1.
</event>
<event>
 5    1  0.4866530E-005  0.4572380E+02  0.7818608E-02  0.1332463E+00
          4   -1    0    0  502    0 -0.00000000000E+00  0.00000000000E+00  0.26770401559E+03  0.26770401559E+03  0.00000000000E+00 0.  1.
         21   -1    0    0  501  502  0.00000000000E+00 -0.00000000000E+00 -0.17939092443E+02  0.17939092443E+02  0.00000000000E+00 0.  1.
        -13    1    1    2    0    0 -0.51486997755E+01 -0.63570303783E+02  0.15635515047E+03  0.16886277528E+03  0.10566000000E+00 0.  1.
         13    1    1    2    0    0 -0.11417804211E+02  0.27885037505E+02  0.32987410829E+02  0.44677981231E+02  0.10566000000E+00 0. -1.
          4    1    1    2  501    0  0.16566503986E+02  0.35685266277E+02  0.60422361842E+02  0.72102351516E+02  0.00000000000E+00 0.  1.
</event>
<event>
 5    1  0.4866530E-005  0.1081706E+03  0.7818608E-02  0.1151702E+00
         21   -1    0    0  501  502  0.00000000000E+00  0.00000000000E+00  0.42453750247E+03  0.42453750247E+03  0.00000000000E+00 0. -1.
          4   -1    0    0  502    0 -0.00000000000E+00 -0.00000000000E+00 -0.28203870318E+03  0.28203870318E+03  0.00000000000E+00 0.  1.
        -13    1    1    2    0    0 -0.30227322800E+02  0.10459202952E+03 -0.26254599996E+03  0.28422455373E+03  0.10566000000E+00 0.  1.
         13    1    1    2    0    0  0.40815346648E+02 -0.81899371199E+02  0.27225909254E+03  0.28722538913E+03  0.10566000000E+00 0. -1.
          4    1    1    2  501    0 -0.10588023848E+02 -0.22692658319E+02  0.13278570671E+03  0.13512626279E+03  0.00000000000E+00 0.  1.
</event>
<event>
 5    1  0.4866530E-005  0.4221178E+03  0.7818608E-02  0.9813416E-01
          4   -1    0    0  502    0 -0.00000000000E+00  0.00000000000E+00  0.25171118937E+04  0.25171118937E+04  0.00000000000E+00 0.  1.
         21   -1    0    0  501  502  0.00000000000E+00 -0.00000000000E+00 -0.17257774793E+03  0.17257774793E+03  0.00000000000E+00 0.  1.
        -13    1    1    2    0    0 -0.40827062592E+03  0.24188487095E+03  0.13030465497E+04  0.13867672900E+04  0.10566000000E+00 0.  1.
         13    1    1    2    0    0 -0.14656718603E+02 -0.25433368380E+03  0.74207967443E+03  0.78459078281E+03  0.10566000000E+00 0. -1.
          4    1    1    2  501    0  0.42292734453E+03  0.12448812846E+02  0.29940792164E+03  0.51833156882E+03  0.00000000000E+00 0.  1.
</event>
<event>
 5    1  0.4866530E-005  0.1057116E+03  0.7818608E-02  0.1155437E+00
         -4   -1    0    0    0  501 -0.00000000000E+00  0.00000000000E+00  0.99774145182E+02  0.99774145182E+02  0.00000000000E+00 0. -1.
         21   -1    0    0  501  502  0.00000000000E+00 -0.00000000000E+00 -0.44370301432E+03  0.44370301432E+03  0.00000000000E+00 0.  1.
        -13    1    1    2    0    0  0.13680803724E+03  0.41103569712E+02 -0.24042430214E+03  0.27966014861E+03  0.10566000000E+00 0.  1.
         13    1    1    2    0    0 -0.90444236130E+02 -0.45332654912E+02  0.43122506366E+02  0.10997623002E+03  0.10566000000E+00 0. -1.
         -4    1    1    2    0  502 -0.46363801112E+02  0.42290852003E+01 -0.14662707337E+03  0.15384078087E+03  0.00000000000E+00 0. -1.
</event>
<event>
 5    1  0.4866530E-005  0.4296686E+03  0.7818608E-02  0.1001618E+00
         21   -1    0    0  501  502  0.00000000000E+00  0.00000000000E+00  0.24512854802E+03  0.24512854802E+03  0.00000000000E+00 0.  1.
          4   -1    0    0  502    0 -0.00000000000E+00 -0.00000000000E+00 -0.11796333627E+04  0.11796333627E+04  0.00000000000E+00 0.  1.
        -13    1    1    2    0    0 -0.33643726378E+03  0.28402174839E+03 -0.68487198202E+03  0.81419164141E+03  0.10566000000E+00 0.  1.
         13    1    1    2    0    0 -0.56700478670E+02 -0.10896161581E+03 -0.86963686441E+02  0.15050007284E+03  0.10566000000E+00 0. -1.
          4    1    1    2  501    0  0.39313774245E+03 -0.17506013259E+03 -0.16266914621E+03  0.46007019648E+03  0.00000000000E+00 0.  1.
</event>
<event>
 5    1  0.4866530E-005  0.3495137E+03  0.7818608E-02  0.1052268E+00
         -4   -1    0    0    0  501 -0.00000000000E+00  0.00000000000E+00  0.11090391812E+04  0.11090391812E+04  0.00000000000E+00 0. -1.
         21   -1    0    0  501  502  0.00000000000E+00 -0.00000000000E+00 -0.29164627527E+03  0.29164627527E+03  0.00000000000E+00 0. -1.
        -13    1    1    2    0    0  0.30966606746E+02  0.35654001564E+02  0.25681073788E+03  0.26111664982E+03  0.10566000000E+00 0.  1.
         13    1    1    2    0    0  0.32748124026E+03  0.10409318130E+03 -0.11479879660E+03  0.36229563616E+03  0.10566000000E+00 0. -1.
         -4    1    1    2    0  502 -0.35844784701E+03 -0.13974718286E+03  0.67538096468E+03  0.77727317051E+03  0.00000000000E+00 0. -1.
</event>
<event>
 5    1  0.4866530E-005  0.4952181E+03  0.7818608E-02  0.9873835E-01
         -4   -1    0    0    0  501 -0.00000000000E+00  0.00000000000E+00  0.90122551441E+02  0.90122551441E+02  0.00000000000E+00 0. -1.
         21   -1    0    0  501  502  0.00000000000E+00 -0.00000000000E+00 -0.38905057491E+04  0.38905057491E+04  0.00000000000E+00 0. -1.
        -13    1    1    2    0    0 -0.92657529590E+02  0.89176631191E+02 -0.18866593016E+03  0.22832593744E+03  0.10566000000E+00 0.  1.
         13    1    1    2    0    0 -0.45369707855E+03  0.27687356797E+02 -0.17917082106E+04  0.18484658374E+04  0.10566000000E+00 0. -1.
         -4    1    1    2    0  502  0.54635460814E+03 -0.11686398799E+03 -0.18200090569E+04  0.19038365257E+04  0.00000000000E+00 0. -1.
</event>
<event>
 5    1  0.4866530E-005  0.5333999E+03  0.7818608E-02  0.9473229E-01
         21   -1    0    0  501  502  0.00000000000E+00  0.00000000000E+00  0.71633128923E+03  0.71633128923E+03  0.00000000000E+00 0.  1.
          4   -1    0    0  502    0 -0.00000000000E+00 -0.00000000000E+00 -0.19261814027E+04  0.19261814027E+04  0.00000000000E+00 0.  1.
        -13    1    1    2    0    0  0.21100974561E+03 -0.76638049010E+02 -0.30342634494E+03  0.37744676614E+03  0.10566000000E+00 0.  1.
         13    1    1    2    0    0  0.25916888666E+03  0.54314218046E+03 -0.13430774291E+04  0.14717435006E+04  0.10566000000E+00 0. -1.
          4    1    1    2  501    0 -0.47017863227E+03 -0.46650413145E+03  0.43665366058E+03  0.79332242513E+03  0.00000000000E+00 0.  1.
</event>
<event>
 5    1  0.4866530E-005  0.3056645E+03  0.7818608E-02  0.1004994E+00
         21   -1    0    0  501  502  0.00000000000E+00  0.00000000000E+00  0.63344159199E+03  0.63344159199E+03  0.00000000000E+00 0.  1.
          4   -1    0    0  502    0 -0.00000000000E+00 -0.00000000000E+00 -0.11775547294E+04  0.11775547294E+04  0.00000000000E+00 0.  1.
        -13    1    1    2    0    0  0.22475053472E+03  0.19863250094E+03 -0.72335705937E+03  0.78307925511E+03  0.10566000000E+00 0.  1.
         13    1    1    2    0    0 -0.25805490657E+03 -0.18603117735E+03 -0.36404927383E+03  0.48345818711E+03  0.10566000000E+00 0. -1.
          4    1    1    2  501    0  0.33304371849E+02 -0.12601323591E+02  0.54329319577E+03  0.54445887917E+03  0.00000000000E+00 0.  1.
</event>
<event>
 5    1  0.4866530E-005  0.4995892E+03  0.7818608E-02  0.9535454E-01
         21   -1    0    0  501  502  0.00000000000E+00  0.00000000000E+00  0.33011708471E+03  0.33011708471E+03  0.00000000000E+00 0. -1.
         -4   -1    0    0    0  501 -0.00000000000E+00 -0.00000000000E+00 -0.17616683023E+04  0.17616683023E+04  0.00000000000E+00 0. -1.
        -13    1    1    2    0    0  0.87682946064E+02  0.39732025350E+03 -0.61995035428E+03  0.74154577459E+03  0.10566000000E+00 0.  1.
         13    1    1    2    0    0  0.45386081508E+03 -0.17389036749E+03 -0.44626523684E+03  0.65983344273E+03  0.10566000000E+00 0. -1.
         -4    1    1    2    0  502 -0.54154376114E+03 -0.22342988602E+03 -0.36533562647E+03  0.69040616970E+03  0.00000000000E+00 0. -1.
</event>
<event>
 5    1  0.4866530E-005  0.3957473E+03  0.7818608E-02  0.9927881E-01
         -4   -1    0    0    0  501 -0.00000000000E+00  0.00000000000E+00  0.11125556438E+04  0.11125556438E+04  0.00000000000E+00 0. -1.
         21   -1    0    0  501  502  0.00000000000E+00 -0.00000000000E+00 -0.32669185097E+03  0.32669185097E+03  0.00000000000E+00 0. -1.
        -13    1    1    2    0    0  0.15593718917E+03 -0.14112045943E+03  0.31781909295E+03  0.38110415642E+03  0.10566000000E+00 0.  1.
         13    1    1    2    0    0  0.20388419704E+03 -0.27955284829E+03  0.21061910315E+02  0.34664416340E+03  0.10566000000E+00 0. -1.
         -4    1    1    2    0  502 -0.35982138620E+03  0.42067330772E+03  0.44698278961E+03  0.71149917499E+03  0.00000000000E+00 0. -1.
</event>
<event>
 5    1  0.6949003E-005  0.3098943E+03  0.7818608E-02  0.1038372E+00
          4   -1    0    0  502    0 -0.00000000000E+00  0.00000000000E+00  0.13241957385E+04  0.13241957385E+04  0.00000000000E+00 0.  1.
         21   -1    0    0  501  502  0.00000000000E+00 -0.00000000000E+00 -0.33839591996E+03  0.33839591996E+03  0.00000000000E+00 0.  1.
        -13    1    1    2    0    0 -0.63225617615E+02 -0.27160636472E+03  0.62621776901E+03  0.68550434096E+03  0.10566000000E+00 0.  1.
         13    1    1    2    0    0  0.93674360386E+02 -0.42328466018E+02  0.58208728582E+03  0.59109407399E+03  0.10566000000E+00 0. -1.
          4    1    1    2  501    0 -0.30448742770E+02  0.31393483074E+03 -0.22250523627E+03  0.38599324354E+03  0.00000000000E+00 0.  1.
</event>
<event>
 5    1  0.4866530E-005  0.4563286E+03  0.7818608E-02  0.1003395E+00
         21   -1    0    0  501  502  0.00000000000E+00  0.00000000000E+00  0.16925295741E+04  0.16925295741E+04  0.00000000000E+00 0. -1.
         -4   -1    0    0    0  501 -0.00000000000E+00 -0.00000000000E+00 -0.17902768826E+03  0.17902768826E+03  0.00000000000E+00 0. -1.
        -13    1    1    2    0    0  0.55316015407E+02  0.79395053885E+02  0.95392574604E+02  0.13587932365E+03  0.10566000000E+00 0.  1.
         13    1    1    2    0    0 -0.24271145316E+03  0.37256325193E+03  0.99111515846E+03  0.10862879428E+04  0.10566000000E+00 0. -1.
         -4    1    1    2    0  502  0.18739543775E+03 -0.45195830581E+03  0.42699415275E+03  0.64938999590E+03  0.00000000000E+00 0. -1.
</event>
<event>
 5    1  0.4866530E-005  0.1201343E+03  0.7818608E-02  0.1134969E+00
          4   -1    0    0  502    0 -0.00000000000E+00  0.00000000000E+00  0.59405720652E+02  0.59405720652E+02  0.00000000000E+00 0.  1.
         21   -1    0    0  501  502  0.00000000000E+00 -0.00000000000E+00 -0.29794870557E+03  0.29794870557E+03  0.00000000000E+00 0. -1.
        -13    1    1    2    0    0  0.10017497006E+03  0.72920384785E+02 -0.57905266693E+02  0.13676782596E+03  0.10566000000E+00 0.  1.
         13    1    1    2    0    0 -0.90493517674E+02 -0.67223716701E+02 -0.17461028445E+03  0.20783856098E+03  0.10566000000E+00 0. -1.
          4    1    1    2  501    0 -0.96814523882E+01 -0.56966680841E+01 -0.60274337714E+01  0.12748039280E+02  0.00000000000E+00 0.  1.
</event>
<event>
 5    1  0.4866530E-005  0.4483006E+02  0.7818608E-02  0.1314401E+00
         21   -1    0    0  501  502  0.00000000000E+00  0.00000000000E+00  0.40948367603E+03  0.40948367603E+03  0.00000000000E+00 0.  1.
          4   -1    0    0  502    0 -0.00000000000E+00 -0.00000000000E+00 -0.13907179580E+03  0.13907179580E+03  0.00000000000E+00 0.  1.
        -13    1    1    2    0    0 -0.44767583054E+02 -0.65437107903E+01 -0.13241919493E+03  0.13993502419E+03  0.10566000000E+00 0.  1.
         13    1    1    2    0    0  0.29127855092E+02 -0.20513719309E+02  0.16933587727E+03  0.17304304411E+03  0.10566000000E+00 0. -1.
          4    1    1    2  501    0  0.15639727963E+02  0.27057430099E+02  0.23349519790E+03  0.23557740354E+03  0.00000000000E+00 0.  1.
</event>
<event>
 5    1  0.4866530E-005  0.6763151E+02  0.7818608E-02  0.1233083E+00
         -4   -1    0    0    0  501 -0.00000000000E+00  0.00000000000E+00  0.11366187377E+03  0.11366187377E+03  0.00000000000E+00 0. -1.
         21   -1    0    0  501  502  0.00000000000E+00 -0.00000000000E+00 -0.17161362056E+03  0.17161362056E+03  0.00000000000E+00 0.  1.
        -13    1    1    2    0    0  0.39581138601E+02  0.34814465989E+02 -0.12876289952E+03  0.13913521852E+03  0.10566000000E+00 0.  1.
         13    1    1    2    0    0 -0.45249297513E+02 -0.51989877369E+02  0.94107194209E+02  0.11664742363E+03  0.10566000000E+00 0. -1.
         -4    1    1    2    0  502  0.56681589121E+01  0.17175411380E+02 -0.23296041470E+02  0.29492852180E+02  0.00000000000E+00 0. -1.
</event>
<event>
 5    1  0.4866530E-005  0.6319814E+03  0.7818608E-02  0.9227959E-01
         21   -1    0    0  501  502  0.00000000000E+00  0.00000000000E+00  0.43108210021E+03  0.43108210021E+03  0.00000000000E+00 0. -1.
          4   -1    0    0  502    0 -0.00000000000E+00 -0.00000000000E+00 -0.13821738392E+04  0.13821738392E+04  0.00000000000E+00 0.  1.
        -13    1    1    2    0    0 -0.63442956106E+03 -0.54719658117E+02 -0.75239747412E+03  0.98569624081E+03  0.10566000000E+00 0.  1.
         13    1    1    2    0    0  0.61912548359E+03  0.81997114289E+02 -0.32038321723E+03  0.70191545661E+03  0.10566000000E+00 0. -1.
          4    1    1    2  501    0  0.15304077472E+02 -0.27277456172E+02  0.12168895239E+03  0.12564424195E+03  0.00000000000E+00 0.  1.
</event>
<event>
 5    1  0.4866530E-005  0.4579771E+03  0.7818608E-02  0.9852361E-01
         21   -1    0    0  501  502  0.00000000000E+00  0.00000000000E+00  0.15860023168E+04  0.15860023168E+04  0.00000000000E+00 0. -1.
         -4   -1    0    0    0  501 -0.00000000000E+00 -0.00000000000E+00 -0.36180115058E+03  0.36180115058E+03  0.00000000000E+00 0. -1.
        -13    1    1    2    0    0 -0.89517471259E+02 -0.15013518912E+03 -0.16269205212E+03  0.23879419520E+03  0.10566000000E+00 0.  1.
         13    1    1    2    0    0  0.32894428083E+02  0.50573787722E+03  0.12014741132E+04  0.13039911425E+04  0.10566000000E+00 0. -1.
         -4    1    1    2    0  502  0.56623043176E+02 -0.35560268810E+03  0.18541910512E+03  0.40501812965E+03  0.00000000000E+00 0. -1.
</event>
<event>
 5    1  0.4866530E-005  0.4760247E+03  0.7818608E-02  0.9550171E-01
         21   -1    0    0  501  502  0.00000000000E+00  0.00000000000E+00  0.15561106793E+04  0.15561106793E+04  0.00000000000E+00 0.  1.
         -4   -1    0    0    0  501 -0.00000000000E+00 -0.00000000000E+00 -0.63981275079E+03  0.63981275079E+03  0.00000000000E+00 0. -1.
        -13    1    1    2    0    0  0.43959239392E+03  0.75746660550E+02 -0.30024480700E+03  0.53770436549E+03  0.10566000000E+00 0.  1.
         13    1    1    2    0    0  0.42654291724E+02  0.27148983523E+03 -0.30812879558E+02  0.27654215583E+03  0.10566000000E+00 0. -1.
         -4    1    1    2    0  502 -0.48224668564E+03 -0.34723649578E+03  0.12473556151E+04  0.13816769088E+04  0.00000000000E+00 0. -1.
</event>
<event>
 5    1  0.4866530E-005  0.1863276E+03  0.7818608E-02  0.1069936E+00
         21   -1    0    0  501  502  0.00000000000E+00  0.00000000000E+00  0.86002041244E+03  0.86002041244E+03  0.00000000000E+00 0. -1.
         -4   -1    0    0    0  501 -0.00000000000E+00 -0.00000000000E+00 -0.44296511380E+03  0.44296511380E+03  0.00000000000E+00 0. -1.
        -13    1    1    2    0    0  0.38541932766E+02 -0.20666315901E+03  0.18091967237E+03  0.27735731627E+03  0.10566000000E+00 0.  1.
         13    1    1    2    0    0 -0.49638564850E+02  0.17733883376E+03 -0.37284327069E+03  0.41584271635E+03  0.10566000000E+00 0. -1.
         -4    1    1    2    0  502  0.11096632085E+02  0.29324325253E+02  0.60897889695E+03  0.60978549362E+03  0.00000000000E+00 0. -1.
</event>
<event>
 5    1  0.4866530E-005  0.7429139E+02  0.7818608E-02  0.1281117E+00
         21   -1    0    0  501  502  0.00000000000E+00  0.00000000000E+00  0.15173372779E+03  0.15173372779E+03  0.00000000000E+00 0. -1.
         -4   -1    0    0    0  501 -0.00000000000E+00 -0.00000000000E+00 -0.19109823429E+03  0.19109823429E+03  0.00000000000E+00 0. -1.
        -13    1    1    2    0    0  0.18303930149E+02 -0.44245622518E+01 -0.82516173034E+02  0.84637701920E+02  0.10566000000E+00 0.  1.
         13    1    1    2    0    0 -0.80381719710E+02  0.42053438220E+02 -0.76217344905E+02  0.11848547319E+03  0.10566000000E+00 0. -1.
         -4    1    1    2    0  502  0.62077789561E+02 -0.37628875968E+02  0.11936901144E+03  0.13970878697E+03  0.00000000000E+00 0. -1.
</event>
<event>
 5    1  0.4866530E-005  0.2970853E+03  0.7818608E-02  0.1014872E+00
         -4   -1    0    0    0  501 -0.00000000000E+00  0.00000000000E+00  0.21761905630E+04  0.21761905630E+04  0.00000000000E+00 0. -1.
         21   -1    0    0  501  502  0.00000000000E+00 -0.00000000000E+00 -0.49510140100E+03  0.49510140100E+03  0.00000000000E+00 0. -1.
        -13    1    1    2    0    0 -0.24622243846E+03 -0.21808870660E+03  0.15776568199E+04  0.16115797298E+04  0.10566000000E+00 0.  1.
         13    1    1    2    0    0 -0.24777761842E+03  0.44425495668E+02 -0.30511552499E+03  0.39555387447E+03  0.10566000000E+00 0. -1.
         -4    1    1    2    0  502  0.49400005688E+03  0.17366321093E+03  0.40854786713E+03  0.66415835970E+03  0.00000000000E+00 0. -1.
</event>
<event>
 5    1  0.4866530E-005  0.5875429E+02  0.7818608E-02  0.1259750E+00
         21   -1    0    0  501  502  0.00000000000E+00  0.00000000000E+00  0.30990650489E+02  0.30990650489E+02  0.00000000000E+00 0. -1.
          4   -1    0    0  502    0 -0.00000000000E+00 -0.00000000000E+00 -0.15644668371E+03  0.15644668371E+03  0.00000000000E+00 0.  1.
        -13    1    1    2    0    0  0.60808938141E+02 -0.18567061812E+02 -0.92878525895E+02  0.11255618365E+03  0.10566000000E+00 0.  1.
         13    1    1    2    0    0 -0.45481376696E+02  0.23559788158E+02 -0.23186024789E+02  0.56224746809E+02  0.10566000000E+00 0. -1.
          4    1    1    2  501    0 -0.15327561446E+02 -0.49927263462E+01 -0.93914825412E+01  0.18656403742E+02  0.00000000000E+00 0.  1.
</event>
<event>
 5    1  0.4866530E-005  0.1376372E+03  0.7818608E-02  0.1113988E+00
         21   -1    0    0  501  502  0.00000000000E+00  0.00000000000E+00  0.69059943347E+02  0.69059943347E+02  0.00000000000E+00 0. -1.
          4   -1    0    0  502    0 -0.00000000000E+00 -0.00000000000E+00 -0.48577469018E+03  0.48577469018E+03  0.00000000000E+00 0.  1.
        -13    1    1    2    0    0  0.12834229964E+03 -0.62101781981E+02 -0.34624365368E+03  0.37445033860E+03  0.10566000000E+00 0.  1.
         13    1    1    2    0    0 -0.10986897972E+03  0.62367371866E+02 -0.88750777056E+02  0.15439427894E+03  0.10566000000E+00 0. -1.
          4    1    1    2  501    0 -0.18473319913E+02 -0.26558988465E+00  0.18279683909E+02  0.25990015975E+02  0.00000000000E+00 0.  1.
</event>
<event>
 5    1  0.4866530E-005  0.1776069E+03  0.7818608E-02  0.1076676E+00
         21   -1    0    0  501  502  0.00000000000E+00  0.00000000000E+00  0.18683221462E+03  0.18683221462E+03  0.00000000000E+00 0. -1.
          4   -1    0    0  502    0 -0.00000000000E+00 -0.00000000000E+00 -0.35911150514E+03  0.35911150514E+03  0.00000000000E+00 0.  1.
        -13    1    1    2    0    0 -0.85257472319E+02 -0.14054924527E+03 -0.18403170855E+03  0.24676022339E+03  0.10566000000E+00 0.  1.
         13    1    1    2    0    0  0.90605257082E+02  0.19542042735E+03 -0.45008919355E+02  0.22005515222E+03  0.10566000000E+00 0. -1.
          4    1    1    2  501    0 -0.53477847632E+01 -0.54871182075E+02  0.56761337384E+02  0.79128344137E+02  0.00000000000E+00 0.  1.
</event>
<event>
 5    1  0.4866530E-005  0.2774911E+03  0.7818608E-02  0.1033632E+00
         -4   -1    0    0    0  501 -0.00000000000E+00  0.00000000000E+00  0.87132421503E+03  0.87132421503E+03  0.00000000000E+00 0. -1.
         21   -1    0    0  501  502  0.00000000000E+00 -0.00000000000E+00 -0.55449445557E+03  0.55449445557E+03  0.00000000000E+00 0. -1.
        -13    1    1    2    0    0 -0.96993122605E+02 -0.13405897171E+03  0.37249389289E+03  0.40759193458E+03  0.10566000000E+00 0.  1.
         13    1    1    2    0    0  0.27876991407E+03  0.32522489652E+03  0.33710723275E+03  0.54509191505E+03  0.10566000000E+00 0. -1.
         -4    1    1    2    0  502 -0.18177679147E+03 -0.19116592481E+03 -0.39277136619E+03  0.47313482098E+03  0.00000000000E+00 0. -1.
</event>
<event>
 5    1  0.4866530E-005  0.5461265E+03  0.7818608E-02  0.9382224E-01
          4   -1    0    0  502    0 -0.00000000000E+00  0.00000000000E+00  0.67174918735E+03  0.67174918735E+03  0.00000000000E+00 0.  1.
         21   -1    0    0  501  502  0.00000000000E+00 -0.00000000000E+00 -0.68242346979E+03  0.68242346979E+03  0.00000000000E+00 0. -1.
        -13    1    1    2    0    0  0.54032965108E+03  0.25302552447E+02  0.16836151494E+03  0.56651739768E+03  0.10566000000E+00 0.  1.
         13    1    1    2    0    0 -0.55164927532E+03 -0.34565328502E+02  0.52901771596E+02  0.55525696168E+03  0.10566000000E+00 0. -1.
          4    1    1    2  501    0  0.11319624234E+02  0.92627760547E+01 -0.23193756897E+03  0.23239829778E+03  0.00000000000E+00 0.  1.
</event>
<event>
 5    1  0.4866530E-005  0.3222465E+03  0.7818608E-02  0.1010209E+00
         21   -1    0    0  501  502  0.00000000000E+00  0.00000000000E+00  0.22594748844E+03  0.22594748844E+03  0.00000000000E+00 0.  1.
          4   -1    0    0  502    0 -0.00000000000E+00 -0.00000000000E+00 -0.17109445309E+04  0.17109445309E+04  0.00000000000E+00 0.  1.
        -13    1    1    2    0    0 -0.23009130332E+03 -0.39172314300E+03 -0.10937184447E+04  0.11843179793E+04  0.10566000000E+00 0.  1.
         13    1    1    2    0    0 -0.26175333109E+02  0.21888560035E+03 -0.38471767590E+03  0.44340022037E+03  0.10566000000E+00 0. -1.
          4    1    1    2  501    0  0.25626663642E+03  0.17283754264E+03 -0.65609218727E+01  0.30917381970E+03  0.00000000000E+00 0.  1.
</event>
<event>
 5    1  0.4866530E-005  0.4931515E+03  0.7818608E-02  0.9713266E-01
         21   -1    0    0  501  502  0.00000000000E+00  0.00000000000E+00  0.13831848596E+04  0.13831848596E+04  0.00000000000E+00 0.  1.
          4   -1    0    0  502    0 -0.00000000000E+00 -0.00000000000E+00 -0.32525898028E+03  0.32525898028E+03  0.00000000000E+00 0.  1.
        -13    1    1    2    0    0 -0.42154660892E+01 -0.58643010330E+03  0.85129189026E+03  0.10337388112E+04  0.10566000000E+00 0.  1.
         13    1    1    2    0    0 -0.82117679306E+02  0.20997183919E+03 -0.20916691202E+02  0.22642660100E+03  0.10566000000E+00 0. -1.
          4    1    1    2  501    0  0.86333145396E+02  0.37645826411E+03  0.22755068024E+03  0.44827842765E+03  0.00000000000E+00 0.  1.
</event>
<event>
 5    1  0.4866530E-005  0.5447835E+03  0.7818608E-02  0.9384871E-01
         -4   -1    0    0    0  501 -0.00000000000E+00  0.00000000000E+00  0.12330170294E+04  0.12330170294E+04  0.00000000000E+00 0. -1.
         21   -1    0    0  501  502  0.00000000000E+00 -0.00000000000E+00 -0.50067543894E+03  0.50067543894E+03  0.00000000000E+00 0.  1.
        -13    1    1    2    0    0  0.36380263155E+03 -0.36270537718E+03  0.24642098639E+02  0.51431001307E+03  0.10566000000E+00 0.  1.
         13    1    1    2    0    0 -0.33602723584E+03  0.44338506536E+03  0.87193772562E+03  0.10343017103E+04  0.10566000000E+00 0. -1.
         -4    1    1    2    0  502 -0.27775395709E+02 -0.80679688181E+02 -0.16423823383E+03  0.18508074493E+03  0.00000000000E+00 0. -1.
</event>
<event>
 5    1  0.4866530E-005  0.4146727E+02  0.7818608E-02  0.1359410E+00
         21   -1    0    0  501  502  0.00000000000E+00  0.00000000000E+00  0.14674349587E+03  0.14674349587E+03  0.00000000000E+00 0.  1.
          4   -1    0    0  502    0 -0.00000000000E+00 -0.00000000000E+00 -0.30356891420E+02  0.30356891420E+02  0.00000000000E+00 0.  1.
        -13    1    1    2    0    0 -0.16378571083E+02 -0.19903946779E+02 -0.64633472039E+01  0.26574625289E+02  0.10566000000E+00 0.  1.
         13    1    1    2    0    0  0.40021132929E+02 -0.14163106051E+02  0.42306282463E+02  0.59934275284E+02  0.10566000000E+00 0. -1.
          4    1    1    2  501    0 -0.23642561846E+02  0.34067052830E+02  0.80543669194E+02  0.90591486721E+02  0.00000000000E+00 0.  1.
</event>
<event>
 5    1  0.4866530E-005  0.4980694E+03  0.7818608E-02  0.9756694E-01
          4   -1    0    0  502    0 -0.00000000000E+00  0.00000000000E+00  0.30986716350E+04  0.30986716350E+04  0.00000000000E+00 0.  1.
         21   -1    0    0  501  502  0.00000000000E+00 -0.00000000000E+00 -0.12961428348E+03  0.12961428348E+03  0.00000000000E+00 0.  1.
        -13    1    1    2    0    0 -0.56672933006E+03  0.11958149478E+03  0.11052476265E+04  0.12478197764E+04  0.10566000000E+00 0.  1.
         13    1    1    2    0    0  0.17368600892E+03  0.72796151770E+02  0.93442223159E+03  0.95321090397E+03  0.10566000000E+00 0. -1.
          4    1    1    2  501    0  0.39304332114E+03 -0.19237764655E+03  0.92938749345E+03  0.10272552381E+04  0.00000000000E+00 0.  1.
</event>
<event>
 5    1  0.4866530E-005  0.1654076E+03  0.7818608E-02  0.1086837E+00
         21   -1    0    0  501  502  0.00000000000E+00  0.00000000000E+00  0.38741499903E+02  0.38741499903E+02  0.00000000000E+00 0.  1.
         -4   -1    0    0    0  501 -0.00000000000E+00 -0.00000000000E+00 -0.10037828373E+04  0.10037828373E+04  0.00000000000E+00 0. -1.
        -13    1    1    2    0    0  0.10463796053E+03  0.12404146598E+03 -0.56536978259E+03  0.58819927771E+03  0.10566000000E+00 0.  1.
         13    1    1    2    0    0 -0.99416250335E+02 -0.13843522697E+03 -0.40394484897E+03  0.43842827813E+03  0.10566000000E+00 0. -1.
         -4    1    1    2    0  502 -0.52217101923E+01  0.14393760991E+02  0.42732942072E+01  0.15896781315E+02  0.00000000000E+00 0. -1.
</event>
<event>
 5    1  0.4866530E-005  0.6578239E+02  0.7818608E-02  0.1238248E+00
          4   -1    0    0  502    0 -0.00000000000E+00  0.00000000000E+00  0.28303455814E+02  0.28303455814E+02  0.00000000000E+00 0.  1.
         21   -1    0    0  501  502  0.00000000000E+00 -0.00000000000E+00 -0.32964816846E+03  0.32964816846E+03  0.00000000000E+00 0. -1.
        -13    1    1    2    0    0  0.48881878246E+02  0.47503047704E+02 -0.68435948821E+02  0.96589170289E+02  0.10566000000E+00 0.  1.
         13    1    1    2    0    0 -0.58940017329E+02 -0.28004248020E+02 -0.65272963499E+02  0.92296990622E+02  0.10566000000E+00 0. -1.
          4    1    1    2  501    0  0.10058139083E+02 -0.19498799683E+02 -0.16763580032E+03  0.16906546336E+03  0.00000000000E+00 0.  1.
</event>
<event>
 5    1  0.4866530E-005  0.1625163E+03  0.7818608E-02  0.1089384E+00
         -4   -1    0    0    0  501 -0.00000000000E+00  0.00000000000E+00  0.34178185211E+03  0.34178185211E+03  0.00000000000E+00 0. -1.
         21   -1    0    0  501  502  0.00000000000E+00 -0.00000000000E+00 -0.30195328366E+03  0.30195328366E+03  0.00000000000E+00 0.  1.
        -13    1    1    2    0    0 -0.15437344711E+03  0.38041394714E+02 -0.24914028960E+03  0.29554898740E+03  0.10566000000E+00 0.  1.
         13    1    1    2    0    0  0.16119710309E+03 -0.23139276117E+02  0.28908202008E+03  0.33179565646E+03  0.10566000000E+00 0. -1.
         -4    1    1    2    0  502 -0.68236559878E+01 -0.14902118596E+02 -0.11316202912E+00  0.16390491919E+02  0.00000000000E+00 0. -1.
</event>
<event>
 5    1  0.4866530E-005  0.5006401E+03  0.7818608E-02  0.9634865E-01
         -4   -1    0    0    0  501 -0.00000000000E+00  0.00000000000E+00  0.25715114167E+04  0.25715114167E+04  0.00000000000E+00 0. -1.
         21   -1    0    0  501  502  0.00000000000E+00 -0.00000000000E+00 -0.21765894424E+03  0.21765894424E+03  0.00000000000E+00 0. -1.
        -13    1    1    2    0    0 -0.15277023747E+03  0.23889930466E+03  0.89951353366E+02  0.29749433668E+03  0.10566000000E+00 0.  1.
         13    1    1    2    0    0 -0.28780304092E+03  0.22709231865E+03  0.11422608574E+04  0.11996505279E+04  0.10566000000E+00 0. -1.
         -4    1    1    2    0  502  0.44057327839E+03 -0.46599162331E+03  0.11216402617E+04  0.12920254964E+04  0.00000000000E+00 0. -1.
</event>
<event>
 5    1  0.4866530E-005  0.2908546E+03  0.7818608E-02  0.1024827E+00
         21   -1    0    0  501  502  0.00000000000E+00  0.00000000000E+00  0.51895402334E+03  0.51895402334E+03  0.00000000000E+00 0. -1.
         -4   -1    0    0    0  501 -0.00000000000E+00 -0.00000000000E+00 -0.13900656327E+04  0.13900656327E+04  0.00000000000E+00 0. -1.
        -13    1    1    2    0    0  0.11006389269E+03 -0.15327879289E+03 -0.86870824865E+03  0.88896708672E+03  0.10566000000E+00 0.  1.
         13    1    1    2    0    0 -0.22527444226E+03  0.40147707616E+03 -0.34954845974E+03  0.57802816011E+03  0.10566000000E+00 0. -1.
         -4    1    1    2    0  502  0.11521054957E+03 -0.24819828327E+03  0.34714509903E+03  0.44202440921E+03  0.00000000000E+00 0. -1.
</event>
<event>
 5    1  0.4866530E-005  0.2413609E+03  0.7818608E-02  0.1034969E+00
         21   -1    0    0  501  502  0.00000000000E+00  0.00000000000E+00  0.10629987133E+03  0.10629987133E+03  0.00000000000E+00 0.  1.
         -4   -1    0    0    0  501 -0.00000000000E+00 -0.00000000000E+00 -0.10742937998E+04  0.10742937998E+04  0.00000000000E+00 0. -1.
        -13    1    1    2    0    0 -0.59069287228E+02  0.22790963753E+03 -0.60882554737E+03  0.65276377187E+03  0.10566000000E+00 0.  1.
         13    1    1    2    0    0  0.49781834241E+02 -0.24623629704E+03 -0.40557638059E+03  0.47707730679E+03  0.10566000000E+00 0. -1.
         -4    1    1    2    0  502  0.92874529867E+01  0.18326659512E+02  0.46407999455E+02  0.50752592498E+02  0.00000000000E+00 0. -1.
</event>
<event>
 5    1  0.4866530E-005  0.7247577E+02  0.7818608E-02  0.1220377E+00
         -4   -1    0    0    0  501 -0.00000000000E+00  0.00000000000E+00  0.64439053521E+02  0.64439053521E+02  0.00000000000E+00 0. -1.
         21   -1    0    0  501  502  0.00000000000E+00 -0.00000000000E+00 -0.28804849435E+03  0.28804849435E+03  0.00000000000E+00 0.  1.
        -13    1    1    2    0    0 -0.56558759897E+02 -0.40744155869E+02  0.60790142102E+01  0.69971030694E+02  0.10566000000E+00 0.  1.
         13    1    1    2    0    0  0.57546807514E+02  0.52330103339E+02 -0.31389953009E+02  0.83877381245E+02  0.10566000000E+00 0. -1.
         -4    1    1    2    0  502 -0.98804761641E+00 -0.11585947470E+02 -0.19829850203E+03  0.19863913593E+03  0.00000000000E+00 0. -1.
</event>
<event>
 5    1  0.4866530E-005  0.4407244E+03  0.7818608E-02  0.9895153E-01
          4   -1    0    0  502    0 -0.00000000000E+00  0.00000000000E+00  0.33298751248E+03  0.33298751248E+03  0.00000000000E+00 0.  1.
         21   -1    0    0  501  502  0.00000000000E+00 -0.00000000000E+00 -0.11008029146E+04  0.11008029146E+04  0.00000000000E+00 0.  1.
        -13    1    1    2    0    0 -0.37364312562E+03  0.56077773119E+02  0.29954354068E+02  0.37901342516E+03  0.10566000000E+00 0.  1.
         13    1    1    2    0    0 -0.84745886156E+02 -0.14719402523E+03 -0.57489015731E+02  0.17931242114E+03  0.10566000000E+00 0. -1.
          4    1    1    2  501    0  0.45838901177E+03  0.91116252107E+02 -0.74028074044E+03  0.87546458076E+03  0.00000000000E+00 0.  1.
</event>
<event>
 5    1  0.6713150E-005  0.2821382E+03  0.7818608E-02  0.1032908E+00
         -4   -1    0    0    0  501 -0.00000000000E+00  0.00000000000E+00  0.22610471628E+04  0.22610471628E+04  0.00000000000E+00 0. -1.
         21   -1    0    0  501  502  0.00000000000E+00 -0.00000000000E+00 -0.19184606651E+03  0.19184606651E+03  0.00000000000E+00 0. -1.
        -13    1    1    2    0    0  0.15069706652E+03  0.56569634169E+02  0.85995883592E+03  0.87489367354E+03  0.10566000000E+00 0.  1.
         13    1    1    2    0    0 -0.14764627766E+02 -0.30564998836E+03  0.12539438166E+04  0.12907420408E+04  0.10566000000E+00 0. -1.
         -4    1    1    2    0  502 -0.13593243875E+03  0.24908035419E+03 -0.44701556235E+02  0.28725751492E+03  0.00000000000E+00 0. -1.
</event>
<event>
 5    1  0.4866530E-005  0.4654398E+03  0.7818608E-02  0.9669074E-01
         -4   -1    0    0    0  501 -0.00000000000E+00  0.00000000000E+00  0.24351967240E+04  0.24351967240E+04  0.00000000000E+00 0. -1.
         21   -1    0    0  501  502  0.00000000000E+00 -0.00000000000E+00 -0.26371349848E+03  0.26371349848E+03  0.00000000000E+00 0.  1.
        -13    1    1    2    0    0 -0.20373049949E+02  0.31221586734E+03  0.37670281690E+02  0.31513944575E+03  0.10566000000E+00 0.  1.
         13    1    1    2    0    0  0.32155922164E+03 -0.56807819295E+03  0.15134451743E+04  0.16482200924E+04  0.10566000000E+00 0. -1.
         -4    1    1    2    0  502 -0.30118617169E+03  0.25586232561E+03  0.62036776949E+03  0.73555068425E+03  0.00000000000E+00 0. -1.
</event>
<event>
 5    1  0.4866530E-005  0.4350006E+03  0.7818608E-02  0.9937456E-01
         21   -1    0    0  501  502  0.00000000000E+00  0.00000000000E+00  0.37850028480E+03  0.37850028480E+03  0.00000000000E+00 0.  1.
          4   -1    0    0  502    0 -0.00000000000E+00 -0.00000000000E+00 -0.11876090149E+04  0.11876090149E+04  0.00000000000E+00 0.  1.
        -13    1    1    2    0    0  0.16415649278E+03  0.34605990806E+03 -0.47337150576E+03  0.60892151195E+03  0.10566000000E+00 0.  1.
         13    1    1    2    0    0 -0.10942364344E+03  0.10751084838E+03 -0.45902864337E+03  0.48398287456E+03  0.10566000000E+00 0. -1.
          4    1    1    2  501    0 -0.54732849345E+02 -0.45357075644E+03  0.12329141901E+03  0.47320491322E+03  0.00000000000E+00 0.  1.
</event>
<event>
 5    1  0.4866530E-005  0.4036586E+03  0.7818608E-02  0.9718539E-01
         21   -1    0    0  501  502  0.00000000000E+00  0.00000000000E+00  0.15506881550E+04  0.15506881550E+04  0.00000000000E+00 0. -1.
          4   -1    0    0  502    0 -0.00000000000E+00 -0.00000000000E+00 -0.11867369253E+03  0.11867369253E+03  0.00000000000E+00 0.  1.
        -13    1    1    2    0    0  0.39131012475E+03 -0.13640913632E+03  0.58780658691E+03  0.71919931937E+03  0.10566000000E+00 0.  1.
         13    1    1    2    0    0 -0.36711561658E+03  0.13627918777E+03  0.68421214828E+03  0.78834774559E+03  0.10566000000E+00 0. -1.
          4    1    1    2  501    0 -0.24194508167E+02  0.12994854922E+00  0.15999572730E+03  0.16181478259E+03  0.00000000000E+00 0.  1.
</event>
<event>
 5    1  0.4866530E-005  0.1310984E+03  0.7818608E-02  0.1121408E+00
         21   -1    0    0  501  502  0.00000000000E+00  0.00000000000E+00  0.11649516087E+04  0.11649516087E+04  0.00000000000E+00 0. -1.
          4   -1    0    0  502    0 -0.00000000000E+00 -0.00000000000E+00 -0.24153749062E+02  0.24153749062E+02  0.00000000000E+00 0.  1.
        -13    1    1    2    0    0 -0.10579086343E+03 -0.80938380987E+02  0.22778527289E+03  0.26387282924E+03  0.10566000000E+00 0.  1.
         13    1    1    2    0    0  0.10689407279E+03  0.66327281399E+02  0.66544197043E+03  0.67722867499E+03  0.10566000000E+00 0. -1.
          4    1    1    2  501    0 -0.11032093628E+01  0.14611099588E+02  0.24757061628E+03  0.24800385349E+03  0.00000000000E+00 0.  1.
</event>
<event>
 5    1  0.4866530E-005  0.5464497E+03  0.7818608E-02  0.9381589E-01
          4   -1    0    0  502    0 -0.00000000000E+00  0.00000000000E+00  0.16581018507E+04  0.16581018507E+04  0.00000000000E+00 0.  1.
         21   -1    0    0  501  502  0.00000000000E+00 -0.00000000000E+00 -0.38106608685E+03  0.38106608685E+03  0.00000000000E+00 0.  1.
        -13    1    1    2    0    0 -0.55057304542E+03 -0.43945936412E+03  0.35032327557E+03  0.78675384945E+03  0.10566000000E+00 0.  1.
         13    1    1    2    0    0  0.21809740685E+03  0.42947150141E+03  0.38457134901E+03  0.61636627344E+03  0.10566000000E+00 0. -1.
          4    1    1    2  501    0  0.33247563857E+03  0.99878627111E+01  0.54214113931E+03  0.63604781469E+03  0.00000000000E+00 0.  1.
</event>
<event>
 5    1  0.4866530E-005  0.3678635E+03  0.7818608E-02  0.1025840E+00
         21   -1    0    0  501  502  0.00000000000E+00  0.00000000000E+00  0.30601757827E+03  0.30601757827E+03  0.00000000000E+00 0. -1.
         -4   -1    0    0    0  501 -0.00000000000E+00 -0.00000000000E+00 -0.12993837603E+04  0.12993837603E+04  0.00000000000E+00 0. -1.
        -13    1    1    2    0    0  0.86795075576E+02 -0.25170960596E+02 -0.44538514482E+03  0.45446111032E+03  0.10566000000E+00 0.  1.
         13    1    1    2    0    0  0.35387140013E+03  0.17863797064E+02  0.99197272216E+02  0.36794591050E+03  0.10566000000E+00 0. -1.
         -4    1    1    2    0  502 -0.44066647570E+03  0.73071635318E+01 -0.64717830945E+03  0.78299431777E+03  0.00000000000E+00 0. -1.
</event>
<event>
 5    1  0.4866530E-005  0.4899230E+03  0.7818608E-02  0.9606799E-01
         -4   -1    0    0    0  501 -0.00000000000E+00  0.00000000000E+00  0.57070649136E+03  0.57070649136E+03  0.00000000000E+00 0. -1.
         21   -1    0    0  501  502  0.00000000000E+00 -0.00000000000E+00 -0.92061494650E+03  0.92061494650E+03  0.00000000000E+00 0. -1.
        -13    1    1    2    0    0 -0.25848885252E+03  0.21185213577E+03  0.11641826436E+03  0.35390823351E+03  0.10566000000E+00 0.  1.
         13    1    1    2    0    0 -0.16138522949E+03  0.27466310454E+03  0.37565755488E+02  0.32077439181E+03  0.10566000000E+00 0. -1.
         -4    1    1    2    0  502  0.41987408201E+03 -0.48651524031E+03 -0.50389247499E+03  0.81663881254E+03  0.00000000000E+00 0. -1.
</event>
<event>
 5    1  0.4866530E-005  0.3671335E+03  0.7818608E-02  0.9829083E-01
         -4   -1    0    0    0  501 -0.00000000000E+00  0.00000000000E+00  0.24446459320E+04  0.24446459320E+04  0.00000000000E+00 0. -1.
         21   -1    0    0  501  502  0.00000000000E+00 -0.00000000000E+00 -0.15936480233E+03  0.15936480233E+03  0.00000000000E+00 0.  1.
        -13    1    1    2    0    0  0.32850295658E+03 -0.25393397289E+03  0.65796258053E+03  0.77801762423E+03  0.10566000000E+00 0.  1.
         13    1    1    2    0    0 -0.35955125807E+03  0.54575286334E+02  0.15765374477E+04  0.16179387826E+04  0.10566000000E+00 0. -1.
         -4    1    1    2    0  502  0.31048301490E+02  0.19935868656E+03  0.50781101458E+02  0.20805432751E+03  0.00000000000E+00 0. -1.
</event>
<event>
 5    1  0.4866530E-005  0.5337010E+03  0.7818608E-02  0.9475801E-01
          4   -1    0    0  502    0 -0.00000000000E+00  0.00000000000E+00  0.26840811973E+04  0.26840811973E+04  0.00000000000E+00 0.  1.
         21   -1    0    0  501  502  0.00000000000E+00 -0.00000000000E+00 -0.26028739242E+03  0.26028739242E+03  0.00000000000E+00 0.  1.
        -13    1    1    2    0    0 -0.37635074005E+03  0.16830395204E+03  0.11870735527E+04  0.12566263289E+04  0.10566000000E+00 0.  1.
         13    1    1    2    0    0 -0.21976541161E+03 -0.35133661118E+03  0.87167219069E+03  0.96516665384E+03  0.10566000000E+00 0. -1.
          4    1    1    2  501    0  0.59611615167E+03  0.18303265914E+03  0.36504806148E+03  0.72257560696E+03  0.00000000000E+00 0.  1.
</event>
<event>
 5    1  0.4866530E-005  0.2501106E+03  0.7818608E-02  0.1030335E+00
          4   -1    0    0  502    0 -0.00000000000E+00  0.00000000000E+00  0.20786474049E+03  0.20786474049E+03  0.00000000000E+00 0.  1.
         21   -1    0    0  501  502  0.00000000000E+00 -0.00000000000E+00 -0.63169256302E+03  0.63169256302E+03  0.00000000000E+00 0. -1.
        -13    1    1    2    0    0 -0.21663168888E+02 -0.24639026821E+03  0.80517264645E+02  0.26011631672E+03  0.10566000000E+00 0.  1.
         13    1    1    2    0    0  0.27566930078E+02  0.26379676207E+03 -0.45339397923E+03  0.52527590739E+03  0.10566000000E+00 0. -1.
          4    1    1    2  501    0 -0.59037611907E+01 -0.17406493863E+02 -0.50951107944E+02  0.54165079391E+02  0.00000000000E+00 0.  1.
</event>
<event>
 5    1  0.4866530E-005  0.3159999E+03  0.7818608E-02  0.1000911E+00
         21   -1    0    0  501  502  0.00000000000E+00  0.00000000000E+00  0.67397052916E+03  0.67397052916E+03  0.00000000000E+00 0.  1.
         -4   -1    0    0    0  501 -0.00000000000E+00 -0.00000000000E+00 -0.27383975158E+03  0.27383975158E+03  0.00000000000E+00 0. -1.
        -13    1    1    2    0    0  0.11875927883E+03 -0.18667466652E+03  0.37912555142E+03  0.43896172081E+03  0.10566000000E+00 0.  1.
         13    1    1    2    0    0 -0.12829174730E+03  0.33423329767E+03 -0.83037667085E+01  0.35810561766E+03  0.10566000000E+00 0. -1.
         -4    1    1    2    0  502  0.95324684656E+01 -0.14755863115E+03  0.29308992866E+02  0.15074294227E+03  0.00000000000E+00 0. -1.
</event>
<event>
 5    1  0.7634005E-005  0.4435844E+03  0.7818608E-02  0.1024789E+00
         21   -1    0    0  501  502  0.00000000000E+00  0.00000000000E+00  0.23209881890E+03  0.23209881890E+03  0.00000000000E+00 0. -1.
         -4   -1    0    0    0  501 -0.00000000000E+00 -0.00000000000E+00 -0.12705056235E+04  0.12705056235E+04  0.00000000000E+00 0. -1.
        -13    1    1    2    0    0  0.38022247040E+02  0.37292904288E+02 -0.14996512747E+03  0.15914145470E+03  0.10566000000E+00 0.  1.
         13    1    1    2    0    0  0.25920999924E+03  0.34267912488E+03 -0.13791221759E+03  0.45126333472E+03  0.10566000000E+00 0. -1.
         -4    1    1    2    0  502 -0.29723224628E+03 -0.37997202917E+03 -0.75052945955E+03  0.89219965301E+03  0.00000000000E+00 0. -1.
</event>
<event>
 5    1  0.4866530E-005  0.6367594E+03  0.7818608E-02  0.9220141E-01
         21   -1    0    0  501  502  0.00000000000E+00  0.00000000000E+00  0.57100709708E+03  0.57100709708E+03  0.00000000000E+00 0. -1.
          4   -1    0    0  502    0 -0.00000000000E+00 -0.00000000000E+00 -0.13225117438E+04  0.13225117438E+04  0.00000000000E+00 0.  1.
        -13    1    1    2    0    0  0.76824845887E+03 -0.12459348924E+03 -0.24237651255E+03  0.81515373833E+03  0.10566000000E+00 0.  1.
         13    1    1    2    0    0 -0.46826577347E+03  0.34221003861E+03 -0.31437141239E+03  0.65970443474E+03  0.10566000000E+00 0. -1.
          4    1    1    2  501    0 -0.29998268540E+03 -0.21761654937E+03 -0.19475672181E+03  0.41866066783E+03  0.00000000000E+00 0.  1.
</event>
<event>
 5    1  0.4866530E-005  0.4295104E+02  0.7818608E-02  0.1323491E+00
         21   -1    0    0  501  502  0.00000000000E+00  0.00000000000E+00  0.14102718367E+03  0.14102718367E+03  0.00000000000E+00 0. -1.
         -4   -1    0    0    0  501 -0.00000000000E+00 -0.00000000000E+00 -0.93018005886E+02  0.93018005886E+02  0.00000000000E+00 0. -1.
        -13    1    1    2    0    0 -0.62686992929E+01  0.48131435313E+02  0.36559433261E+02  0.60766232239E+02  0.10566000000E+00 0.  1.
         13    1    1    2    0    0  0.13732777852E+02 -0.40123571817E+02 -0.74988787356E+02  0.86149983146E+02  0.10566000000E+00 0. -1.
         -4    1    1    2    0  502 -0.74640785586E+01 -0.80078634954E+01  0.86438531883E+02  0.87128974174E+02  0.00000000000E+00 0. -1.
</event>
<event>
 5    1  0.4866530E-005  0.3036328E+02  0.7818608E-02  0.1402015E+00
         21   -1    0    0  501  502  0.00000000000E+00  0.00000000000E+00  0.63578000759E+02  0.63578000759E+02  0.00000000000E+00 0. -1.
          4   -1    0    0  502    0 -0.00000000000E+00 -0.00000000000E+00 -0.23182281108E+02  0.23182281108E+02  0.00000000000E+00 0.  1.
        -13    1    1    2    0    0  0.23781544740E+02 -0.27066584416E+02  0.20253707138E+02  0.41332622456E+02  0.10566000000E+00 0.  1.
         13    1    1    2    0    0 -0.11023195162E+02  0.24985485535E+02  0.10326352966E+02  0.29196404720E+02  0.10566000000E+00 0. -1.
          4    1    1    2  501    0 -0.12758349578E+02  0.20810988813E+01  0.98156595464E+01  0.16231254691E+02  0.00000000000E+00 0.  1.
</event>
<event>
 5    1  0.4866530E-005  0.2986176E+03  0.7818608E-02  0.1007878E+00
         -4   -1    0    0    0  501 -0.00000000000E+00  0.00000000000E+00  0.16144618507E+04  0.16144618507E+04  0.00000000000E+00 0. -1.
         21   -1    0    0  501  502  0.00000000000E+00 -0.00000000000E+00 -0.13171695107E+03  0.13171695107E+03  0.00000000000E+00 0.  1.
        -13    1    1    2    0    0  0.65493842829E+01  0.24875772994E+03  0.57258394344E+03  0.62432017915E+03  0.10566000000E+00 0.  1.
         13    1    1    2    0    0  0.64192451437E+02 -0.44311845819E+03  0.58909905619E+03  0.73994077329E+03  0.10566000000E+00 0. -1.
         -4    1    1    2    0  502 -0.70741835720E+02  0.19436072825E+03  0.32106189997E+03  0.38191784931E+03  0.00000000000E+00 0. -1.
</event>
<event>
 5    1  0.4866530E-005  0.5033254E+03  0.7818608E-02  0.9481213E-01
         21   -1    0    0  501  502  0.00000000000E+00  0.00000000000E+00  0.34893275247E+03  0.34893275247E+03  0.00000000000E+00 0.  1.
          4   -1    0    0  502    0 -0.00000000000E+00 -0.00000000000E+00 -0.19834590719E+04  0.19834590719E+04  0.00000000000E+00 0.  1.
        -13    1    1    2    0    0 -0.36967730990E+02  0.47884532114E+03 -0.52840360467E+03  0.71405170353E+03  0.10566000000E+00 0.  1.
         13    1    1    2    0    0  0.48116315993E+03 -0.55837901540E+02 -0.79403536808E+03  0.93012259119E+03  0.10566000000E+00 0. -1.
          4    1    1    2  501    0 -0.44419542894E+03 -0.42300741960E+03 -0.31208734664E+03  0.68821752961E+03  0.00000000000E+00 0.  1.
</event>
<event>
 5    1  0.4866530E-005  0.5462314E+02  0.7818608E-02  0.1300821E+00
         21   -1    0    0  501  502  0.00000000000E+00  0.00000000000E+00  0.26614773587E+02  0.26614773587E+02  0.00000000000E+00 0.  1.
          4   -1    0    0  502    0 -0.00000000000E+00 -0.00000000000E+00 -0.23175336763E+03  0.23175336763E+03  0.00000000000E+00 0.  1.
        -13    1    1    2    0    0  0.80156454201E+01  0.65281084147E+02 -0.12804607291E+03  0.14395026388E+03  0.10566000000E+00 0.  1.
         13    1    1    2    0    0  0.22555257752E+02 -0.22913110159E+02 -0.32699229681E+02  0.45858489456E+02  0.10566000000E+00 0. -1.
          4    1    1    2  501    0 -0.30570903172E+02 -0.42367973988E+02 -0.44393291446E+02  0.68559387876E+02  0.00000000000E+00 0.  1.
</event>
<event>
 5    1  0.4866530E-005  0.6941962E+03  0.7818608E-02  0.9131440E-01
         21   -1    0    0  501  502  0.00000000000E+00  0.00000000000E+00  0.11782943548E+04  0.11782943548E+04  0.00000000000E+00 0. -1.
          4   -1    0    0  502    0 -0.00000000000E+00 -0.00000000000E+00 -0.13378633630E+04  0.13378633630E+04  0.00000000000E+00 0.  1.
        -13    1    1    2    0    0 -0.58640819303E+03 -0.37035602542E+03 -0.93804154356E+03  0.11666019471E+04  0.10566000000E+00 0.  1.
         13    1    1    2    0    0  0.60141500532E+03  0.35198108978E+03  0.14015590730E+03  0.71079841425E+03  0.10566000000E+00 0. -1.
          4    1    1    2  501    0 -0.15006812285E+02  0.18374935637E+02  0.63831662811E+03  0.63875735643E+03  0.00000000000E+00 0.  1.
</event>
<event>
 5    1  0.4866530E-005  0.3058373E+03  0.7818608E-02  0.1004925E+00
         21   -1    0    0  501  502  0.00000000000E+00  0.00000000000E+00  0.35020048367E+03  0.35020048367E+03  0.00000000000E+00 0. -1.
         -4   -1    0    0    0  501 -0.00000000000E+00 -0.00000000000E+00 -0.15436526227E+04  0.15436526227E+04  0.00000000000E+00 0. -1.
        -13    1    1    2    0    0 -0.35238927657E+03 -0.26693028971E+02 -0.12972977028E+03  0.37645789207E+03  0.10566000000E+00 0.  1.
         13    1    1    2    0    0  0.23406491784E+03  0.19943164841E+03 -0.12187026697E+04  0.12568991910E+04  0.10566000000E+00 0. -1.
         -4    1    1    2    0  502  0.11832435873E+03 -0.17273861944E+03  0.15498030088E+03  0.26049602334E+03  0.00000000000E+00 0. -1.
</event>
<event>
 5    1  0.4866530E-005  0.4763900E+03  0.7818608E-02  0.9563944E-01
         -4   -1    0    0    0  501 -0.00000000000E+00  0.00000000000E+00  0.23114931799E+04  0.23114931799E+04  0.00000000000E+00 0. -1.
         21   -1    0    0  501  502  0.00000000000E+00 -0.00000000000E+00 -0.27165340726E+03  0.27165340726E+03  0.00000000000E+00 0. -1.
        -13    1    1    2    0    0 -0.35661869294E+03 -0.22856167494E+03  0.96878479734E+03  0.10573369029E+04  0.10566000000E+00 0.  1.
         13    1    1    2    0    0  0.53858189708E+03 -0.15492476807E+03  0.27635732766E+03  0.62485640538E+03  0.10566000000E+00 0. -1.
         -4    1    1    2    0  502 -0.18196320415E+03  0.38348644301E+03  0.79469764763E+03  0.90095327891E+03  0.00000000000E+00 0. -1.
</event>
<event>
 5    1  0.4866530E-005  0.6976320E+03  0.7818608E-02  0.9126420E-01
          4   -1    0    0  502    0 -0.00000000000E+00  0.00000000000E+00  0.17160905536E+04  0.17160905536E+04  0.00000000000E+00 0.  1.
         21   -1    0    0  501  502  0.00000000000E+00 -0.00000000000E+00 -0.49966107654E+03  0.49966107654E+03  0.00000000000E+00 0. -1.
        -13    1    1    2    0    0  0.72185458952E+03 -0.20707934959E+03  0.11072212202E+04  0.13378694805E+04  0.10566000000E+00 0.  1.
         13    1    1    2    0    0 -0.60655880254E+03 -0.18680871611E+02  0.13922992365E+03  0.62261347457E+03  0.10566000000E+00 0. -1.
          4    1    1    2  501    0 -0.11529578698E+03  0.22576022120E+03 -0.30021666760E+02  0.25526867502E+03  0.00000000000E+00 0.  1.
</event>
<event>
 5    1  0.4866530E-005  0.4957442E+03  0.7818608E-02  0.9699473E-01
         21   -1    0    0  501  502  0.00000000000E+00  0.00000000000E+00  0.19263861407E+03  0.19263861407E+03  0.00000000000E+00 0. -1.
          4   -1    0    0  502    0 -0.00000000000E+00 -0.00000000000E+00 -0.22291973733E+04  0.22291973733E+04  0.00000000000E+00 0.  1.
        -13    1    1    2    0    0 -0.49458799442E+03  0.28821954747E+03 -0.53514012017E+03  0.78362156118E+03  0.10566000000E+00 0.  1.
         13    1    1    2    0    0  0.89318966545E+02 -0.21503384543E+03 -0.69072893990E+03  0.72891968834E+03  0.10566000000E+00 0. -1.
          4    1    1    2  501    0  0.40526902788E+03 -0.73185702046E+02 -0.81068969912E+03  0.90929473781E+03  0.00000000000E+00 0.  1.
</event>
<event>
 5    1  0.4866530E-005  0.1188334E+03  0.7818608E-02  0.1136682E+00
         -4   -1    0    0    0  501 -0.00000000000E+00  0.00000000000E+00  0.86121691254E+02  0.86121691254E+02  0.00000000000E+00 0. -1.
         21   -1    0    0  501  502  0.00000000000E+00 -0.00000000000E+00 -0.24004299009E+03  0.24004299009E+03  0.00000000000E+00 0.  1.
        -13    1    1    2    0    0 -0.48919917579E+02 -0.10934348312E+03 -0.14108374025E+03  0.18507779057E+03  0.10566000000E+00 0.  1.
         13    1    1    2    0    0  0.39068320631E+02  0.11199771498E+03  0.69542361843E+01  0.11882000842E+03  0.10566000000E+00 0. -1.
         -4    1    1    2    0  502  0.98515969479E+01 -0.26542318566E+01 -0.19791794768E+02  0.22266882344E+02  0.00000000000E+00 0. -1.
</event>
<event>
 5    1  0.4866530E-005  0.6426252E+03  0.7818608E-02  0.9210641E-01
          4   -1    0    0  502    0 -0.00000000000E+00  0.00000000000E+00  0.10468927516E+04  0.10468927516E+04  0.00000000000E+00 0.  1.
         21   -1    0    0  501  502  0.00000000000E+00 -0.00000000000E+00 -0.49090350843E+03  0.49090350843E+03  0.00000000000E+00 0. -1.
        -13    1    1    2    0    0  0.29565966198E+03 -0.59717595203E+03  0.84873413519E+01  0.66641263459E+03  0.10566000000E+00 0.  1.
         13    1    1    2    0    0 -0.25569380039E+03  0.57808996683E+03  0.52502672659E+03  0.82171795897E+03  0.10566000000E+00 0. -1.
          4    1    1    2  501    0 -0.39965861590E+02  0.19085985208E+02  0.22475175209E+02  0.49665666457E+02  0.00000000000E+00 0.  1.
</event>
<event>
 5    1  0.4866530E-005  0.2588413E+03  0.7818608E-02  0.1036204E+00
         21   -1    0    0  501  502  0.00000000000E+00  0.00000000000E+00  0.92523243104E+03  0.92523243104E+03  0.00000000000E+00 0.  1.
          4   -1    0    0  502    0 -0.00000000000E+00 -0.00000000000E+00 -0.19347233799E+03  0.19347233799E+03  0.00000000000E+00 0.  1.
        -13    1    1    2    0    0 -0.15860457984E+03  0.73753592661E+02 -0.57567999224E+02  0.18414421217E+03  0.10566000000E+00 0.  1.
         13    1    1    2    0    0  0.28071580798E+02  0.18633971328E+03  0.18630665138E+03  0.26499185253E+03  0.10566000000E+00 0. -1.
          4    1    1    2  501    0  0.13053299904E+03 -0.26009330594E+03  0.60302144090E+03  0.66956870433E+03  0.00000000000E+00 0.  1.
</event>
<event>
 5    1  0.5893136E-005  0.4300342E+03  0.7818608E-02  0.1006108E+00
         21   -1    0    0  501  502  0.00000000000E+00  0.00000000000E+00  0.69860116567E+03  0.69860116567E+03  0.00000000000E+00 0.  1.
          4   -1    0    0  502    0 -0.00000000000E+00 -0.00000000000E+00 -0.47031944885E+03  0.47031944885E+03  0.00000000000E+00 0.  1.
        -13    1    1    2    0    0 -0.56215754353E+01  0.41135237171E+03 -0.13651364208E+03  0.43344937589E+03  0.10566000000E+00 0.  1.
         13    1    1    2    0    0 -0.10500421566E+03  0.13554532612E+02 -0.62378887033E+02  0.12288509825E+03  0.10566000000E+00 0. -1.
          4    1    1    2  501    0  0.11062579109E+03 -0.42490690432E+03  0.42717424593E+03  0.61258614038E+03  0.00000000000E+00 0.  1.
</event>
<event>
 5    1  0.4866530E-005  0.5713250E+02  0.7818608E-02  0.1265194E+00
          4   -1    0    0  502    0 -0.00000000000E+00  0.00000000000E+00  0.92360779173E+02  0.92360779173E+02  0.00000000000E+00 0.  1.
         21   -1    0    0  501  502  0.00000000000E+00 -0.00000000000E+00 -0.16865038045E+03  0.16865038045E+03  0.00000000000E+00 0. -1.
        -13    1    1    2    0    0 -0.30818520661E+02  0.46779032795E+02  0.67599272023E+02  0.87793689221E+02  0.10566000000E+00 0.  1.
         13    1    1    2    0    0  0.23044380093E+02 -0.69053605458E+02 -0.11099311624E+03  0.13273630587E+03  0.10566000000E+00 0. -1.
          4    1    1    2  501    0  0.77741405678E+01  0.22274572663E+02 -0.32895757062E+02  0.40481164528E+02  0.00000000000E+00 0.  1.
</event>
<event>
 5    1  0.4866530E-005  0.4596087E+03  0.7818608E-02  0.9663077E-01
          4   -1    0    0  502    0 -0.00000000000E+00  0.00000000000E+00  0.61893912349E+03  0.61893912349E+03  0.00000000000E+00 0.  1.
         21   -1    0    0  501  502  0.00000000000E+00 -0.00000000000E+00 -0.70663467409E+03  0.70663467409E+03  0.00000000000E+00 0.  1.
        -13    1    1    2    0    0  0.22150878092E+03  0.37135621314E+03 -0.81985710773E+01  0.43247983167E+03  0.10566000000E+00 0.  1.
         13    1    1    2    0    0  0.28048061132E+03 -0.17735184981E+03  0.59781541834E+02  0.33718970308E+03  0.10566000000E+00 0. -1.
          4    1    1    2  501    0 -0.50198939224E+03 -0.19400436334E+03 -0.13927852136E+03  0.55590426283E+03  0.00000000000E+00 0.  1.
</event>
<event>
 5    1  0.4866530E-005  0.7584225E+02  0.7818608E-02  0.1212183E+00
         -4   -1    0    0    0  501 -0.00000000000E+00  0.00000000000E+00  0.11881104046E+03  0.11881104046E+03  0.00000000000E+00 0. -1.
         21   -1    0    0  501  502  0.00000000000E+00 -0.00000000000E+00 -0.20036459108E+03  0.20036459108E+03  0.00000000000E+00 0. -1.
        -13    1    1    2    0    0  0.76393457321E+02 -0.20931546876E+02  0.85450172871E+01  0.79668804815E+02  0.10566000000E+00 0.  1.
         13    1    1    2    0    0 -0.75122968698E+02 -0.13260562148E+01  0.54741151319E+02  0.92961409535E+02  0.10566000000E+00 0. -1.
         -4    1    1    2    0  502 -0.12704886237E+01  0.22257603091E+02 -0.14483971922E+03  0.14654541719E+03  0.00000000000E+00 0. -1.
</event>
<event>
 5    1  0.4866530E-005  0.8457068E+03  0.7818608E-02  0.8934877E-01
         21   -1    0    0  501  502  0.00000000000E+00  0.00000000000E+00  0.81187921367E+03  0.81187921367E+03  0.00000000000E+00 0.  1.
          4   -1    0    0  502    0 -0.00000000000E+00 -0.00000000000E+00 -0.20641495292E+04  0.20641495292E+04  0.00000000000E+00 0.  1.
        -13    1    1    2    0    0  0.82249867368E+03  0.16748693177E+03 -0.34111017714E+03  0.90604199937E+03  0.10566000000E+00 0.  1.
         13    1    1    2    0    0 -0.78044360095E+03 -0.34910430956E+03 -0.12900939489E+04  0.15476784037E+04  0.10566000000E+00 0. -1.
          4    1    1    2  501    0 -0.42055072732E+02  0.18161737779E+03  0.37893381053E+03  0.42230833975E+03  0.00000000000E+00 0.  1.
</event>
<event>
 5    1  0.4866530E-005  0.1564672E+03  0.7818608E-02  0.1094903E+00
         21   -1    0    0  501  502  0.00000000000E+00  0.00000000000E+00  0.28838155694E+03  0.28838155694E+03  0.00000000000E+00 0. -1.
         -4   -1    0    0    0  501 -0.00000000000E+00 -0.00000000000E+00 -0.29364888679E+03  0.29364888679E+03  0.00000000000E+00 0. -1.
        -13    1    1    2    0    0  0.66798906303E+02  0.14444254584E+03  0.70705758313E+02  0.17414091522E+03  0.10566000000E+00 0.  1.
         13    1    1    2    0    0 -0.88690874374E+02 -0.12870808213E+03 -0.21525641543E+03  0.26602100886E+03  0.10566000000E+00 0. -1.
         -4    1    1    2    0  502  0.21891968071E+02 -0.15734463704E+02  0.13928332727E+03  0.14186851966E+03  0.00000000000E+00 0. -1.
</event>
<event>
 5    1  0.4866530E-005  0.4251138E+03  0.7818608E-02  0.9725659E-01
         21   -1    0    0  501  502  0.00000000000E+00  0.00000000000E+00  0.69705118707E+03  0.69705118707E+03  0.00000000000E+00 0.  1.
         -4   -1    0    0    0  501 -0.00000000000E+00 -0.00000000000E+00 -0.10401542937E+04  0.10401542937E+04  0.00000000000E+00 0. -1.
        -13    1    1    2    0    0  0.36885062670E+03  0.34104885596E+03  0.13430176867E+03  0.52000200307E+03  0.10566000000E+00 0.  1.
         13    1    1    2    0    0  0.10660116029E+03 -0.38371631893E+03 -0.60387492918E+03  0.72337193894E+03  0.10566000000E+00 0. -1.
         -4    1    1    2    0  502 -0.47545178699E+03  0.42667462969E+02  0.12647005388E+03  0.49383153877E+03  0.00000000000E+00 0. -1.
</event>
<event>
 5    1  0.4866530E-005  0.2648346E+03  0.7818608E-02  0.1022980E+00
         21   -1    0    0  501  502  0.00000000000E+00  0.00000000000E+00  0.44410004265E+03  0.44410004265E+03  0.00000000000E+00 0.  1.
          4   -1    0    0  502    0 -0.00000000000E+00 -0.00000000000E+00 -0.11987158672E+04  0.11987158672E+04  0.00000000000E+00 0.  1.
        -13    1    1    2    0    0 -0.42688679312E+03  0.51095225170E+02 -0.49211396613E+03  0.65346707874E+03  0.10566000000E+00 0.  1.
         13    1    1    2    0    0  0.21451600520E+03 -0.60464783043E+02 -0.57199501549E+03  0.61388224879E+03  0.10566000000E+00 0. -1.
          4    1    1    2  501    0  0.21237078792E+03  0.93695578727E+01  0.30949315705E+03  0.37546658232E+03  0.00000000000E+00 0.  1.
</event>
<event>
 5    1  0.4866530E-005  0.3077135E+03  0.7818608E-02  0.1076525E+00
         21   -1    0    0  501  502  0.00000000000E+00  0.00000000000E+00  0.33656676217E+03  0.33656676217E+03  0.00000000000E+00 0. -1.
         -4   -1    0    0    0  501 -0.00000000000E+00 -0.00000000000E+00 -0.72045047199E+03  0.72045047199E+03  0.00000000000E+00 0. -1.
        -13    1    1    2    0    0  0.11761913015E+02  0.32216805666E+02 -0.46023790853E+02  0.57397435950E+02  0.10566000000E+00 0.  1.
         13    1    1    2    0    0  0.23253483847E+03 -0.20379472326E+03  0.21134135883E+03  0.37452626270E+03  0.10566000000E+00 0. -1.
         -4    1    1    2    0  502 -0.24429675149E+03  0.17157791760E+03 -0.54920127780E+03  0.62509353551E+03  0.00000000000E+00 0. -1.
</event>
<event>
 5    1  0.4866530E-005  0.1286913E+03  0.7818608E-02  0.1161338E+00
          4   -1    0    0  502    0 -0.00000000000E+00  0.00000000000E+00  0.92190168609E+02  0.92190168609E+02  0.00000000000E+00 0.  1.
         21   -1    0    0  501  502  0.00000000000E+00 -0.00000000000E+00 -0.27618612015E+03  0.27618612015E+03  0.00000000000E+00 0.  1.
        -13    1    1    2    0    0 -0.10341650879E+03  0.10658638804E+03 -0.14940086285E+03  0.21065673830E+03  0.10566000000E+00 0.  1.
         13    1    1    2    0    0  0.38455132996E+02 -0.33079908482E+02 -0.31220947773E+02  0.59563716663E+02  0.10566000000E+00 0. -1.
          4    1    1    2  501    0  0.64961375790E+02 -0.73506479563E+02 -0.33741409208E+01  0.98155833801E+02  0.00000000000E+00 0.  1.
</event>
<event>
 5    1  0.4866530E-005  0.1266354E+03  0.7818608E-02  0.1131548E+00
         21   -1    0    0  501  502  0.00000000000E+00  0.00000000000E+00  0.81481538962E+02  0.81481538962E+02  0.00000000000E+00 0.  1.
          4   -1    0    0  502    0 -0.00000000000E+00 -0.00000000000E+00 -0.38616887404E+04  0.38616887404E+04  0.00000000000E+00 0.  1.
        -13    1    1    2    0    0 -0.11641166328E+03 -0.22899614318E+02  0.19203594532E+02  0.12018675838E+03  0.10566000000E+00 0.  1.
         13    1    1    2    0    0 -0.20969573540E+00 -0.13469917090E+03 -0.50225299926E+03  0.52000192023E+03  0.10566000000E+00 0. -1.
          4    1    1    2  501    0  0.11662135902E+03  0.15759878521E+03 -0.32971577967E+04  0.33029816007E+04  0.00000000000E+00 0.  1.
</event>
<event>
 5    1  0.4866530E-005  0.1484083E+03  0.7818608E-02  0.1118323E+00
         21   -1    0    0  501  502  0.00000000000E+00  0.00000000000E+00  0.34697907745E+03  0.34697907745E+03  0.00000000000E+00 0.  1.
          4   -1    0    0  502    0 -0.00000000000E+00 -0.00000000000E+00 -0.19994574627E+03  0.19994574627E+03  0.00000000000E+00 0.  1.
        -13    1    1    2    0    0  0.73031151335E+02 -0.13961632688E+03  0.23964144974E+03  0.28680011052E+03  0.10566000000E+00 0.  1.
         13    1    1    2    0    0 -0.95331479610E+02  0.22533066026E+02  0.15541195404E+02  0.99183516714E+02  0.10566000000E+00 0. -1.
          4    1    1    2  501    0  0.22300328275E+02  0.11708326085E+03 -0.10814931397E+03  0.16094119648E+03  0.00000000000E+00 0.  1.
</event>
<event>
 5    1  0.4866530E-005  0.2605187E+03  0.7818608E-02  0.1025082E+00
         21   -1    0    0  501  502  0.00000000000E+00  0.00000000000E+00  0.26831133677E+03  0.26831133677E+03  0.00000000000E+00 0.  1.
          4   -1    0    0  502    0 -0.00000000000E+00 -0.00000000000E+00 -0.14142923774E+04  0.14142923774E+04  0.00000000000E+00 0.  1.
        -13    1    1    2    0    0  0.16284720304E+03  0.20313169595E+03 -0.97107236792E+03  0.10053672226E+04  0.10566000000E+00 0.  1.
         13    1    1    2    0    0 -0.13086713673E+03 -0.22829818004E+03 -0.38328516134E+03  0.46492342655E+03  0.10566000000E+00 0. -1.
          4    1    1    2  501    0 -0.31980066303E+02  0.25166484091E+02  0.20837648861E+03  0.21231306500E+03  0.00000000000E+00 0.  1.
</event>
<event>
 5    1  0.4866530E-005  0.5316856E+03  0.7818608E-02  0.9411102E-01
          4   -1    0    0  502    0 -0.00000000000E+00  0.00000000000E+00  0.26204930417E+04  0.26204930417E+04  0.00000000000E+00 0.  1.
         21   -1    0    0  501  502  0.00000000000E+00 -0.00000000000E+00 -0.26756047227E+03  0.26756047227E+03  0.00000000000E+00 0.  1.
        -13    1    1    2    0    0 -0.34920179595E+03  0.44589232651E+03  0.47346843977E+03  0.73819661050E+03  0.10566000000E+00 0.  1.
         13    1    1    2    0    0  0.33210964824E+03 -0.40377518078E+03  0.19755524667E+04  0.20435603184E+04  0.10566000000E+00 0. -1.
          4    1    1    2  501    0  0.17092147705E+02 -0.42117145726E+02 -0.96088337052E+02  0.10629658506E+03  0.00000000000E+00 0.  1.
</event>
<event>
 5    1  0.4866530E-005  0.4969193E+03  0.7818608E-02  0.9632437E-01
         -4   -1    0    0    0  501 -0.00000000000E+00  0.00000000000E+00  0.18821752814E+04  0.18821752814E+04  0.00000000000E+00 0. -1.
         21   -1    0    0  501  502  0.00000000000E+00 -0.00000000000E+00 -0.34506502700E+03  0.34506502700E+03  0.00000000000E+00 0. -1.
        -13    1    1    2    0    0 -0.26621024552E+03  0.12115904434E+03  0.10246222789E+04  0.10655506720E+04  0.10566000000E+00 0.  1.
         13    1    1    2    0    0  0.28800411526E+03  0.40932865659E+03  0.33335367614E+03  0.60134931951E+03  0.10566000000E+00 0. -1.
         -4    1    1    2    0  502 -0.21793869734E+02 -0.53048770093E+03  0.17913429931E+03  0.56034031693E+03  0.00000000000E+00 0. -1.
</event>
<event>
 5    1  0.4866530E-005  0.8314805E+03  0.7818608E-02  0.8951431E-01
         21   -1    0    0  501  502  0.00000000000E+00  0.00000000000E+00  0.11814206876E+04  0.11814206876E+04  0.00000000000E+00 0.  1.
         -4   -1    0    0    0  501 -0.00000000000E+00 -0.00000000000E+00 -0.13141205961E+04  0.13141205961E+04  0.00000000000E+00 0. -1.
        -13    1    1    2    0    0 -0.45196897855E+03 -0.67774234623E+03 -0.62521319222E+03  0.10268895716E+04  0.10566000000E+00 0.  1.
         13    1    1    2    0    0  0.48468124546E+03  0.77407765005E+03  0.75638532152E+03  0.11858460624E+04  0.10566000000E+00 0. -1.
         -4    1    1    2    0  502 -0.32712266915E+02 -0.96335303811E+02 -0.26387203776E+03  0.28280564966E+03  0.00000000000E+00 0. -1.
</event>
<event>
 5    1  0.4866530E-005  0.4194844E+03  0.7818608E-02  0.9716175E-01
         21   -1    0    0  501  502  0.00000000000E+00  0.00000000000E+00  0.35551974234E+03  0.35551974234E+03  0.00000000000E+00 0. -1.
         -4   -1    0    0    0  501 -0.00000000000E+00 -0.00000000000E+00 -0.14496165470E+04  0.14496165470E+04  0.00000000000E+00 0. -1.
        -13    1    1    2    0    0  0.21631953723E+03  0.29105195296E+03 -0.21211144320E+03  0.42011505211E+03  0.10566000000E+00 0.  1.
         13    1    1    2    0    0  0.25948737486E+03 -0.35010465588E+03 -0.69036563864E+02  0.44121766295E+03  0.10566000000E+00 0. -1.
         -4    1    1    2    0  502 -0.47580691209E+03  0.59052702929E+02 -0.81294879761E+03  0.94380357429E+03  0.00000000000E+00 0. -1.
</event>
<event>
 5    1  0.4866530E-005  0.2191953E+03  0.7818608E-02  0.1047718E+00
          4   -1    0    0  502    0 -0.00000000000E+00  0.00000000000E+00  0.18070882134E+03  0.18070882134E+03  0.00000000000E+00 0.  1.
         21   -1    0    0  501  502  0.00000000000E+00 -0.00000000000E+00 -0.34472766363E+03  0.34472766363E+03  0.00000000000E+00 0. -1.
        -13    1    1    2    0    0  0.11838016772E+03 -0.18551027622E+03  0.15595543148E+02  0.22061540931E+03  0.10566000000E+00 0.  1.
         13    1    1    2    0    0 -0.10486693705E+03  0.19097278453E+03 -0.13134642136E+03  0.25440041762E+03  0.10566000000E+00 0. -1.
          4    1    1    2  501    0 -0.13513230675E+02 -0.54625083049E+01 -0.48267964082E+02  0.50420658037E+02  0.00000000000E+00 0.  1.
</event>
<event>
 5    1  0.4866530E-005  0.1520389E+03  0.7818608E-02  0.1099118E+00
         21   -1    0    0  501  502  0.00000000000E+00  0.00000000000E+00  0.35290899265E+03  0.35290899265E+03  0.00000000000E+00 0.  1.
         -4   -1    0    0    0  501 -0.00000000000E+00 -0.00000000000E+00 -0.39936372052E+03  0.39936372052E+03  0.00000000000E+00 0. -1.
        -13    1    1    2    0    0  0.14047657437E+03 -0.18944738556E+03  0.37777001376E+02  0.23885370594E+03  0.10566000000E+00 0.  1.
         13    1    1    2    0    0 -0.12463794910E+03  0.70478971132E+02 -0.26220861393E+03  0.29875620849E+03  0.10566000000E+00 0. -1.
         -4    1    1    2    0  502 -0.15838625272E+02  0.11896841443E+03  0.17797688469E+03  0.21466279874E+03  0.00000000000E+00 0. -1.
</event>
<event>
 5    1  0.4866530E-005  0.7573510E+02  0.7818608E-02  0.1212437E+00
         21   -1    0    0  501  502  0.00000000000E+00  0.00000000000E+00  0.18870825036E+03  0.18870825036E+03  0.00000000000E+00 0. -1.
         -4   -1    0    0    0  501 -0.00000000000E+00 -0.00000000000E+00 -0.14188549432E+03  0.14188549432E+03  0.00000000000E+00 0. -1.
        -13    1    1    2    0    0  0.59151603605E+02 -0.43471821862E+02  0.25047770013E+02  0.77563609068E+02  0.10566000000E+00 0.  1.
         13    1    1    2    0    0 -0.36722082562E+02  0.68649670887E+02 -0.99965597557E+02  0.12670603979E+03  0.10566000000E+00 0. -1.
         -4    1    1    2    0  502 -0.22429521043E+02 -0.25177849024E+02  0.12174058358E+03  0.12632409582E+03  0.00000000000E+00 0. -1.
</event>
<event>
 5    1  0.4866530E-005  0.2400239E+03  0.7818608E-02  0.1035696E+00
         21   -1    0    0  501  502  0.00000000000E+00  0.00000000000E+00  0.10769797761E+04  0.10769797761E+04  0.00000000000E+00 0.  1.
         -4   -1    0    0    0  501 -0.00000000000E+00 -0.00000000000E+00 -0.83445273149E+02  0.83445273149E+02  0.00000000000E+00 0. -1.
        -13    1    1    2    0    0 -0.20299548726E+03  0.59512486091E+02  0.62372377117E+03  0.65861996457E+03  0.10566000000E+00 0.  1.
         13    1    1    2    0    0  0.23980723577E+03 -0.74024163515E+02  0.18237483106E+03  0.31023809773E+03  0.10566000000E+00 0. -1.
         -4    1    1    2    0  502 -0.36811748516E+02  0.14511677424E+02  0.18743590074E+03  0.19156698697E+03  0.00000000000E+00 0. -1.
</event>
<event>
 5    1  0.4866530E-005  0.4307132E+03  0.7818608E-02  0.9644320E-01
         21   -1    0    0  501  502  0.00000000000E+00  0.00000000000E+00  0.24214907292E+03  0.24214907292E+03  0.00000000000E+00 0. -1.
         -4   -1    0    0    0  501 -0.00000000000E+00 -0.00000000000E+00 -0.24044282187E+04  0.24044282187E+04  0.00000000000E+00 0. -1.
        -13    1    1    2    0    0  0.41539353949E+03 -0.20823392860E+02 -0.78831417147E+03  0.89130502660E+03  0.10566000000E+00 0.  1.
         13    1    1    2    0    0 -0.43251573567E+03  0.89077807545E+02 -0.15255353105E+04  0.15881633140E+04  0.10566000000E+00 0. -1.
         -4    1    1    2    0  502  0.17122196183E+02 -0.68254414685E+02  0.15157033611E+03  0.16710895103E+03  0.00000000000E+00 0. -1.
</event>
<event>
 5    1  0.4866530E-005  0.2477589E+03  0.7818608E-02  0.1031561E+00
         -4   -1    0    0    0  501 -0.00000000000E+00  0.00000000000E+00  0.12955848257E+03  0.12955848257E+03  0.00000000000E+00 0. -1.
         21   -1    0    0  501  502  0.00000000000E+00 -0.00000000000E+00 -0.15831523046E+04  0.15831523046E+04  0.00000000000E+00 0.  1.
        -13    1    1    2    0    0 -0.31822308401E+03  0.12236029371E+02 -0.10516970039E+04  0.10988549726E+04  0.10566000000E+00 0.  1.
         13    1    1    2    0    0  0.23624528096E+03  0.36175487502E+02 -0.43368138761E+02  0.24290184292E+03  0.10566000000E+00 0. -1.
         -4    1    1    2    0  502  0.81977803053E+02 -0.48411516873E+02 -0.35852867936E+03  0.37095397165E+03  0.00000000000E+00 0. -1.
</event>
<event>
 5    1  0.5369904E-005  0.3859718E+03  0.7818608E-02  0.1022314E+00
         21   -1    0    0  501  502  0.00000000000E+00  0.00000000000E+00  0.12394298001E+04  0.12394298001E+04  0.00000000000E+00 0. -1.
         -4   -1    0    0    0  501 -0.00000000000E+00 -0.00000000000E+00 -0.30772672948E+03  0.30772672948E+03  0.00000000000E+00 0. -1.
        -13    1    1    2    0    0 -0.72813922185E+02 -0.48265348766E+02 -0.86508038549E+02  0.12294333269E+03  0.10566000000E+00 0.  1.
         13    1    1    2    0    0 -0.32310161565E+03 -0.13295606103E+02 -0.70386560004E+01  0.32345166720E+03  0.10566000000E+00 0. -1.
         -4    1    1    2    0  502  0.39591553783E+03  0.61560954869E+02  0.10252497651E+04  0.11007615296E+04  0.00000000000E+00 0. -1.
</event>
<event>
 5    1  0.4866530E-005  0.1936185E+03  0.7818608E-02  0.1064601E+00
          4   -1    0    0  502    0 -0.00000000000E+00  0.00000000000E+00  0.10346067832E+04  0.10346067832E+04  0.00000000000E+00 0.  1.
         21   -1    0    0  501  502  0.00000000000E+00 -0.00000000000E+00 -0.15982650134E+03  0.15982650134E+03  0.00000000000E+00 0.  1.
        -13    1    1    2    0    0 -0.17970244538E+03 -0.77332466306E+02  0.93230814695E+03  0.95261312780E+03  0.10566000000E+00 0.  1.
         13    1    1    2    0    0  0.15937576478E+03  0.76123206662E+02  0.43522916416E+01  0.17667577819E+03  0.10566000000E+00 0. -1.
          4    1    1    2  501    0  0.20326680603E+02  0.12092596446E+01 -0.61880156758E+02  0.65144378527E+02  0.00000000000E+00 0.  1.
</event>
<event>
 5    1  0.4866530E-005  0.4968306E+03  0.7818608E-02  0.9634759E-01
          4   -1    0    0  502    0 -0.00000000000E+00  0.00000000000E+00  0.13259328530E+04  0.13259328530E+04  0.00000000000E+00 0.  1.
         21   -1    0    0  501  502  0.00000000000E+00 -0.00000000000E+00 -0.33696716939E+03  0.33696716939E+03  0.00000000000E+00 0.  1.
        -13    1    1    2    0    0 -0.56203061564E+03 -0.14376030803E+02  0.27097162054E+03  0.62410793416E+03  0.10566000000E+00 0.  1.
         13    1    1    2    0    0  0.17394150490E+03 -0.23235746074E+03  0.29788322685E+03  0.41590872159E+03  0.10566000000E+00 0. -1.
          4    1    1    2  501    0  0.38808911074E+03  0.24673349155E+03  0.42011083618E+03  0.62288336661E+03  0.00000000000E+00 0.  1.
</event>
<event>
 5    1  0.4866530E-005  0.4820133E+03  0.7818608E-02  0.9674174E-01
          4   -1    0    0  502    0 -0.00000000000E+00  0.00000000000E+00  0.30363705226E+04  0.30363705226E+04  0.00000000000E+00 0.  1.
         21   -1    0    0  501  502  0.00000000000E+00 -0.00000000000E+00 -0.14888298671E+03  0.14888298671E+03  0.00000000000E+00 0.  1.
        -13    1    1    2    0    0 -0.53928610345E+03 -0.15176730559E+03  0.13105908727E+04  0.14253109357E+04  0.10566000000E+00 0.  1.
         13    1    1    2    0    0  0.89567728699E+02  0.26181786023E+03  0.88643300396E+03  0.92861964853E+03  0.10566000000E+00 0. -1.
          4    1    1    2  501    0  0.44971837475E+03 -0.11005055464E+03  0.69046365914E+03  0.83132292508E+03  0.00000000000E+00 0.  1.
</event>
<event>
 5    1  0.4866530E-005  0.3068263E+03  0.7818608E-02  0.1010014E+00
         21   -1    0    0  501  502  0.00000000000E+00  0.00000000000E+00  0.17325630883E+03  0.17325630883E+03  0.00000000000E+00 0.  1.
          4   -1    0    0  502    0 -0.00000000000E+00 -0.00000000000E+00 -0.20607152784E+04  0.20607152784E+04  0.00000000000E+00 0.  1.
        -13    1    1    2    0    0 -0.25819952458E+03  0.35752363025E+02 -0.88078267044E+03  0.91854414683E+03  0.10566000000E+00 0.  1.
         13    1    1    2    0    0  0.75884329744E+02  0.24552828736E+03 -0.93891437562E+03  0.97344891356E+03  0.10566000000E+00 0. -1.
          4    1    1    2  501    0  0.18231519483E+03 -0.28128065039E+03 -0.67761923500E+02  0.34197852685E+03  0.00000000000E+00 0.  1.
</event>
<event>
 5    1  0.4866530E-005  0.5012267E+03  0.7818608E-02  0.9475288E-01
         -4   -1    0    0    0  501 -0.00000000000E+00  0.00000000000E+00  0.90421916987E+03  0.90421916987E+03  0.00000000000E+00 0. -1.
         21   -1    0    0  501  502  0.00000000000E+00 -0.00000000000E+00 -0.61158729680E+03  0.61158729680E+03  0.00000000000E+00 0.  1.
        -13    1    1    2    0    0  0.47312487967E+03  0.18191050538E+03  0.56902791596E+03  0.76205732333E+03  0.10566000000E+00 0.  1.
         13    1    1    2    0    0 -0.45754362033E+03 -0.16592739166E+03 -0.10393973806E+02  0.48681219137E+03  0.10566000000E+00 0. -1.
         -4    1    1    2    0  502 -0.15581259341E+02 -0.15983113713E+02 -0.26600206909E+03  0.26693695197E+03  0.00000000000E+00 0. -1.
</event>
<event>
 5    1  0.4866530E-005  0.4103821E+03  0.7818608E-02  0.9892490E-01
          4   -1    0    0  502    0 -0.00000000000E+00  0.00000000000E+00  0.17344342567E+04  0.17344342567E+04  0.00000000000E+00 0.  1.
         21   -1    0    0  501  502  0.00000000000E+00 -0.00000000000E+00 -0.28501132370E+03  0.28501132370E+03  0.00000000000E+00 0.  1.
        -13    1    1    2    0    0  0.28468592503E+03  0.49335830639E+03  0.68118188557E+03  0.88795116239E+03  0.10566000000E+00 0.  1.
         13    1    1    2    0    0 -0.15226391238E+03 -0.14788444067E+03  0.72919067141E+03  0.75945582705E+03  0.10566000000E+00 0. -1.
          4    1    1    2  501    0 -0.13242201265E+03 -0.34547386572E+03  0.39050376063E+02  0.37203859101E+03  0.00000000000E+00 0.  1.
</event>
<event>
 5    1  0.4866530E-005  0.4806770E+02  0.7818608E-02  0.1299862E+00
         -4   -1    0    0    0  501 -0.00000000000E+00  0.00000000000E+00  0.84880293523E+02  0.84880293523E+02  0.00000000000E+00 0. -1.
         21   -1    0    0  501  502  0.00000000000E+00 -0.00000000000E+00 -0.77279631949E+02  0.77279631949E+02  0.00000000000E+00 0.  1.
        -13    1    1    2    0    0 -0.46594743265E+02 -0.11519832386E+02 -0.17029507318E+02  0.50929283538E+02  0.10566000000E+00 0.  1.
         13    1    1    2    0    0  0.33375800121E+02  0.37310238942E+02  0.51420550557E+02  0.71764072817E+02  0.10566000000E+00 0. -1.
         -4    1    1    2    0  502  0.13218943144E+02 -0.25790406556E+02 -0.26790381666E+02  0.39466569118E+02  0.00000000000E+00 0. -1.
</event>
<event>
 5    1  0.4866530E-005  0.5131489E+03  0.7818608E-02  0.9748908E-01
         21   -1    0    0  501  502  0.00000000000E+00  0.00000000000E+00  0.11036783290E+03  0.11036783290E+03  0.00000000000E+00 0. -1.
         -4   -1    0    0    0  501 -0.00000000000E+00 -0.00000000000E+00 -0.34725937662E+04  0.34725937662E+04  0.00000000000E+00 0. -1.
        -13    1    1    2    0    0  0.57793737360E+02 -0.16718068115E+03 -0.75455820538E+03  0.77501457580E+03  0.10566000000E+00 0.  1.
         13    1    1    2    0    0 -0.41926025024E+03 -0.24985758220E+03 -0.12993859153E+04  0.13880244006E+04  0.10566000000E+00 0. -1.
         -4    1    1    2    0  502  0.36146651288E+03  0.41703826335E+03 -0.13082818126E+04  0.14199226226E+04  0.00000000000E+00 0. -1.
</event>
<event>
 5    1  0.4866530E-005  0.4540666E+03  0.7818608E-02  0.9638651E-01
         21   -1    0    0  501  502  0.00000000000E+00  0.00000000000E+00  0.41398035757E+03  0.41398035757E+03  0.00000000000E+00 0. -1.
         -4   -1    0    0    0  501 -0.00000000000E+00 -0.00000000000E+00 -0.17931285481E+04  0.17931285481E+04  0.00000000000E+00 0. -1.
        -13    1    1    2    0    0 -0.21152720295E+03 -0.30969286854E+03 -0.10559757842E+04  0.11205972954E+04  0.10566000000E+00 0.  1.
         13    1    1    2    0    0  0.35523798039E+03 -0.19284349167E+03 -0.38742804983E+03  0.55989565095E+03  0.10566000000E+00 0. -1.
         -4    1    1    2    0  502 -0.14371077744E+03  0.50253636021E+03  0.64255643522E+02  0.52661595932E+03  0.00000000000E+00 0. -1.
</event>
<event>
 5    1  0.4866530E-005  0.3185855E+03  0.7818608E-02  0.1047502E+00
         -4   -1    0    0    0  501 -0.00000000000E+00  0.00000000000E+00  0.14487485670E+04  0.14487485670E+04  0.00000000000E+00 0. -1.
         21   -1    0    0  501  502  0.00000000000E+00 -0.00000000000E+00 -0.21713096301E+03  0.21713096301E+03  0.00000000000E+00 0. -1.
        -13    1    1    2    0    0 -0.69227779266E+01  0.71519337261E+02  0.41345809465E+01  0.71972539070E+02  0.10566000000E+00 0.  1.
         13    1    1    2    0    0 -0.30559412404E+03  0.20656745547E+01  0.12355095899E+04  0.12727434909E+04  0.10566000000E+00 0. -1.
         -4    1    1    2    0  502  0.31251690197E+03 -0.73585011816E+02 -0.80265668794E+01  0.32116350003E+03  0.00000000000E+00 0. -1.
</event>
<event>
 5    1  0.4866530E-005  0.4484033E+03  0.7818608E-02  0.9772707E-01
         21   -1    0    0  501  502  0.00000000000E+00  0.00000000000E+00  0.12507421487E+04  0.12507421487E+04  0.00000000000E+00 0.  1.
          4   -1    0    0  502    0 -0.00000000000E+00 -0.00000000000E+00 -0.34460526907E+03  0.34460526907E+03  0.00000000000E+00 0.  1.
        -13    1    1    2    0    0 -0.38280539502E+03 -0.19794279583E+03  0.63190090823E+03  0.76486606008E+03  0.10566000000E+00 0.  1.
         13    1    1    2    0    0  0.70344783592E+02 -0.23391561059E+03  0.37075367610E+02  0.24706172407E+03  0.10566000000E+00 0. -1.
          4    1    1    2  501    0  0.31246061142E+03  0.43185840642E+03  0.23716060376E+03  0.58341963359E+03  0.00000000000E+00 0.  1.
</event>
<event>
 5    1  0.4866530E-005  0.4318114E+03  0.7818608E-02  0.1024010E+00
         -4   -1    0    0    0  501 -0.00000000000E+00  0.00000000000E+00  0.60782269580E+03  0.60782269580E+03  0.00000000000E+00 0. -1.
         21   -1    0    0  501  502  0.00000000000E+00 -0.00000000000E+00 -0.48135273612E+03  0.48135273612E+03  0.00000000000E+00 0. -1.
        -13    1    1    2    0    0 -0.17277650342E+02  0.56577502891E+02  0.14757414194E+03  0.15898952660E+03  0.10566000000E+00 0.  1.
         13    1    1    2    0    0  0.43252716424E+03  0.46006767013E+02 -0.18426824117E+03  0.47238878722E+03  0.10566000000E+00 0. -1.
         -4    1    1    2    0  502 -0.41524951390E+03 -0.10258426990E+03  0.16316405891E+03  0.45779711811E+03  0.00000000000E+00 0. -1.
</event>
<event>
 5    1  0.4866530E-005  0.1695263E+03  0.7818608E-02  0.1131642E+00
         21   -1    0    0  501  502  0.00000000000E+00  0.00000000000E+00  0.24006505598E+03  0.24006505598E+03  0.00000000000E+00 0.  1.
          4   -1    0    0  502    0 -0.00000000000E+00 -0.00000000000E+00 -0.32791059061E+03  0.32791059061E+03  0.00000000000E+00 0.  1.
        -13    1    1    2    0    0 -0.17554574489E+03 -0.17401194479E+00 -0.23815147898E+03  0.29585888010E+03  0.10566000000E+00 0.  1.
         13    1    1    2    0    0  0.12205362266E+02 -0.44912600452E+02  0.14395051660E+01  0.46563890372E+02  0.10566000000E+00 0. -1.
          4    1    1    2  501    0  0.16334038262E+03  0.45086612397E+02  0.14886643918E+03  0.22555287612E+03  0.00000000000E+00 0.  1.
</event>
<event>
 5    1  0.4866530E-005  0.6214865E+03  0.7818608E-02  0.9245387E-01
         21   -1    0    0  501  502  0.00000000000E+00  0.00000000000E+00  0.66192326157E+03  0.66192326157E+03  0.00000000000E+00 0.  1.
         -4   -1    0    0    0  501 -0.00000000000E+00 -0.00000000000E+00 -0.79263165033E+03  0.79263165033E+03  0.00000000000E+00 0. -1.
        -13    1    1    2    0    0  0.11278870152E+03  0.62550056923E+03 -0.81517021542E+02  0.64079426438E+03  0.10566000000E+00 0.  1.
         13    1    1    2    0    0 -0.15806428570E+03 -0.59059820410E+03 -0.20734916051E+03  0.64558829189E+03  0.10566000000E+00 0. -1.
         -4    1    1    2    0  502  0.45275584178E+02 -0.34902365128E+02  0.15815779329E+03  0.16817235562E+03  0.00000000000E+00 0. -1.
</event>
<event>
 5    1  0.4866530E-005  0.4678245E+03  0.7818608E-02  0.9825636E-01
         21   -1    0    0  501  502  0.00000000000E+00  0.00000000000E+00  0.30044319474E+03  0.30044319474E+03  0.00000000000E+00 0.  1.
          4   -1    0    0  502    0 -0.00000000000E+00 -0.00000000000E+00 -0.11165930627E+04  0.11165930627E+04  0.00000000000E+00 0.  1.
        -13    1    1    2    0    0 -0.48466459197E+03  0.97469579116E+02 -0.48878876791E+03  0.69520828272E+03  0.10566000000E+00 0.  1.
         13    1    1    2    0    0  0.27906509442E+02 -0.17734460260E+03 -0.85374579315E+02  0.19879313695E+03  0.10566000000E+00 0. -1.
          4    1    1    2  501    0  0.45675808252E+03  0.79875023485E+02 -0.24198652077E+03  0.52303483781E+03  0.00000000000E+00 0.  1.
</event>
<event>
 5    1  0.4866530E-005  0.6171187E+02  0.7818608E-02  0.1250313E+00
         21   -1    0    0  501  502  0.00000000000E+00  0.00000000000E+00  0.48938239764E+03  0.48938239764E+03  0.00000000000E+00 0.  1.
          4   -1    0    0  502    0 -0.00000000000E+00 -0.00000000000E+00 -0.33591799742E+02  0.33591799742E+02  0.00000000000E+00 0.  1.
        -13    1    1    2    0    0 -0.18214458152E+02 -0.60001716467E+02  0.59012396221E+01  0.62982602819E+02  0.10566000000E+00 0.  1.
         13    1    1    2    0    0  0.72464638969E+01  0.57101995994E+02  0.16276154087E+03  0.17263973915E+03  0.10566000000E+00 0. -1.
          4    1    1    2  501    0  0.10967994255E+02  0.28997204731E+01  0.28712781741E+03  0.28735185541E+03  0.00000000000E+00 0.  1.
</event>
<event>
 5    1  0.4866530E-005  0.4644335E+03  0.7818608E-02  0.9834308E-01
         21   -1    0    0  501  502  0.00000000000E+00  0.00000000000E+00  0.16500766610E+03  0.16500766610E+03  0.00000000000E+00 0.  1.
          4   -1    0    0  502    0 -0.00000000000E+00 -0.00000000000E+00 -0.23967767000E+04  0.23967767000E+04  0.00000000000E+00 0.  1.
        -13    1    1    2    0    0 -0.52039723843E+03  0.74255567423E+01 -0.40569154377E+03  0.65988943355E+03  0.10566000000E+00 0.  1.
         13    1    1    2    0    0  0.17313863913E+03 -0.42029045230E+02 -0.73907413207E+03  0.76024602127E+03  0.10566000000E+00 0. -1.
          4    1    1    2  501    0  0.34725859929E+03  0.34603488487E+02 -0.10870033580E+04  0.11416489112E+04  0.00000000000E+00 0.  1.
</event>
<event>
 5    1  0.4866530E-005  0.4629606E+03  0.7818608E-02  0.9688162E-01
         21   -1    0    0  501  502  0.00000000000E+00  0.00000000000E+00  0.91002383510E+03  0.91002383510E+03  0.00000000000E+00 0.  1.
          4   -1    0    0  502    0 -0.00000000000E+00 -0.00000000000E+00 -0.55022446065E+03  0.55022446065E+03  0.00000000000E+00 0.  1.
        -13    1    1    2    0    0  0.50848394290E+03  0.17362748145E+03  0.58338695715E+03  0.79312216930E+03  0.10566000000E+00 0.  1.
         13    1    1    2    0    0 -0.28815351667E+03  0.73572400278E+02 -0.10720369793E+03  0.31612970640E+03  0.10566000000E+00 0. -1.
          4    1    1    2  501    0 -0.22033042623E+03 -0.24719988173E+03 -0.11638388476E+03  0.35099642004E+03  0.00000000000E+00 0.  1.
</event>
<event>
 5    1  0.4866530E-005  0.1751926E+03  0.7818608E-02  0.1080670E+00
         21   -1    0    0  501  502  0.00000000000E+00  0.00000000000E+00  0.52386230451E+03  0.52386230451E+03  0.00000000000E+00 0. -1.
         -4   -1    0    0    0  501 -0.00000000000E+00 -0.00000000000E+00 -0.82363611772E+03  0.82363611772E+03  0.00000000000E+00 0. -1.
        -13    1    1    2    0    0 -0.17134437265E+03  0.56203355453E+02 -0.22313048818E+03  0.28688837049E+03  0.10566000000E+00 0.  1.
         13    1    1    2    0    0  0.27711122261E+00 -0.17168799341E+03  0.45713700266E+03  0.48831454436E+03  0.10566000000E+00 0. -1.
         -4    1    1    2    0  502  0.17106726143E+03  0.11548463796E+03 -0.53378032770E+03  0.57229550739E+03  0.00000000000E+00 0. -1.
</event>
<event>
 5    1  0.4866530E-005  0.1606225E+03  0.7818608E-02  0.1102576E+00
         21   -1    0    0  501  502  0.00000000000E+00  0.00000000000E+00  0.78440026036E+02  0.78440026036E+02  0.00000000000E+00 0.  1.
          4   -1    0    0  502    0 -0.00000000000E+00 -0.00000000000E+00 -0.98537037958E+03  0.98537037958E+03  0.00000000000E+00 0.  1.
        -13    1    1    2    0    0  0.65368188679E+02  0.14266554540E+03 -0.79659435630E+02  0.17598890529E+03  0.10566000000E+00 0.  1.
         13    1    1    2    0    0 -0.10232134143E+03  0.57613462741E+02 -0.33978863459E+03  0.35950701712E+03  0.10566000000E+00 0. -1.
          4    1    1    2  501    0  0.36953152755E+02 -0.20027900815E+03 -0.48748228333E+03  0.52831448320E+03  0.00000000000E+00 0.  1.
</event>
<event>
 5    1  0.4866530E-005  0.5345027E+03  0.7818608E-02  0.9405394E-01
          4   -1    0    0  502    0 -0.00000000000E+00  0.00000000000E+00  0.35384957737E+04  0.35384957737E+04  0.00000000000E+00 0.  1.
         21   -1    0    0  501  502  0.00000000000E+00 -0.00000000000E+00 -0.22562481872E+03  0.22562481872E+03  0.00000000000E+00 0.  1.
        -13    1    1    2    0    0 -0.48933646719E+03 -0.50246039138E+03  0.71094781087E+03  0.99868084190E+03  0.10566000000E+00 0.  1.
         13    1    1    2    0    0  0.50426319605E+03  0.10466461566E+03  0.17661506630E+04  0.18397076475E+04  0.10566000000E+00 0. -1.
          4    1    1    2  501    0 -0.14926728867E+02  0.39779577572E+03  0.83577248104E+03  0.92573210297E+03  0.00000000000E+00 0.  1.
</event>
<event>
 5    1  0.4866530E-005  0.1326975E+03  0.7818608E-02  0.1119551E+00
         -4   -1    0    0    0  501 -0.00000000000E+00  0.00000000000E+00  0.63543104210E+03  0.63543104210E+03  0.00000000000E+00 0. -1.
         21   -1    0    0  501  502  0.00000000000E+00 -0.00000000000E+00 -0.91262661786E+02  0.91262661786E+02  0.00000000000E+00 0.  1.
        -13    1    1    2    0    0  0.61651664172E+02 -0.41095394438E+02 -0.42380233581E+02  0.85357217045E+02  0.10566000000E+00 0.  1.
         13    1    1    2    0    0 -0.12842776718E+03  0.58559343765E+02  0.53985930983E+03  0.55800624879E+03  0.10566000000E+00 0. -1.
         -4    1    1    2    0  502  0.66776103004E+02 -0.17463949327E+02  0.46689304070E+02  0.83330238048E+02  0.00000000000E+00 0. -1.
</event>
<event>
 5    1  0.4866530E-005  0.4508219E+03  0.7818608E-02  0.9621369E-01
         21   -1    0    0  501  502  0.00000000000E+00  0.00000000000E+00  0.39244533816E+03  0.39244533816E+03  0.00000000000E+00 0.  1.
          4   -1    0    0  502    0 -0.00000000000E+00 -0.00000000000E+00 -0.18705924304E+04  0.18705924304E+04  0.00000000000E+00 0.  1.
        -13    1    1    2    0    0  0.82409679413E+02 -0.14858821129E+02  0.25577807130E+03  0.26913671757E+03  0.10566000000E+00 0.  1.
         13    1    1    2    0    0 -0.45430047002E+03 -0.23996944008E+03 -0.72253080784E+03  0.88658052577E+03  0.10566000000E+00 0. -1.
          4    1    1    2  501    0  0.37189079061E+03  0.25482826121E+03 -0.10113943557E+04  0.11073205253E+04  0.00000000000E+00 0.  1.
</event>
<event>
 5    1  0.4866530E-005  0.2515669E+03  0.7818608E-02  0.1029584E+00
         -4   -1    0    0    0  501 -0.00000000000E+00  0.00000000000E+00  0.78606118499E+03  0.78606118499E+03  0.00000000000E+00 0. -1.
         21   -1    0    0  501  502  0.00000000000E+00 -0.00000000000E+00 -0.10254701297E+03  0.10254701297E+03  0.00000000000E+00 0.  1.
        -13    1    1    2    0    0  0.38695309850E+02 -0.24329409233E+03  0.26118753741E+03  0.35903799692E+03  0.10566000000E+00 0.  1.
         13    1    1    2    0    0 -0.30294820351E+02  0.25350756663E+03  0.43927009244E+03  0.50807685221E+03  0.10566000000E+00 0. -1.
         -4    1    1    2    0  502 -0.84004895000E+01 -0.10213474296E+02 -0.16943457821E+02  0.21493348831E+02  0.00000000000E+00 0. -1.
</event>
<event>
 5    1  0.4866530E-005  0.3928508E+02  0.7818608E-02  0.1342835E+00
          4   -1    0    0  502    0 -0.00000000000E+00  0.00000000000E+00  0.32480592250E+03  0.32480592250E+03  0.00000000000E+00 0.  1.
         21   -1    0    0  501  502  0.00000000000E+00 -0.00000000000E+00 -0.88381607020E+01  0.88381607020E+01  0.00000000000E+00 0. -1.
        -13    1    1    2    0    0 -0.40005289745E+02  0.10694838989E+02  0.24368399824E+03  0.24717747662E+03  0.10566000000E+00 0.  1.
         13    1    1    2    0    0  0.32922968874E+02 -0.32683638495E+00  0.39879397282E+02  0.51714661297E+02  0.10566000000E+00 0. -1.
          4    1    1    2  501    0  0.70823208702E+01 -0.10368002604E+02  0.32404366272E+02  0.34751945275E+02  0.00000000000E+00 0.  1.
</event>
<event>
 5    1  0.4866530E-005  0.5462774E+02  0.7818608E-02  0.1274014E+00
          4   -1    0    0  502    0 -0.00000000000E+00  0.00000000000E+00  0.18988781723E+03  0.18988781723E+03  0.00000000000E+00 0.  1.
         21   -1    0    0  501  502  0.00000000000E+00 -0.00000000000E+00 -0.34037286355E+02  0.34037286355E+02  0.00000000000E+00 0.  1.
        -13    1    1    2    0    0 -0.51950877864E+02 -0.37318857664E+02  0.90542492285E+02  0.11085821991E+03  0.10566000000E+00 0.  1.
         13    1    1    2    0    0  0.12182841383E+02  0.45327944624E+02  0.16848673990E+02  0.49869160482E+02  0.10566000000E+00 0. -1.
          4    1    1    2  501    0  0.39768036481E+02 -0.80090869597E+01  0.48459364604E+02  0.63197723198E+02  0.00000000000E+00 0.  1.
</event>
<event>
 5    1  0.4866530E-005  0.8866349E+02  0.7818608E-02  0.1184810E+00
         21   -1    0    0  501  502  0.00000000000E+00  0.00000000000E+00  0.18648350379E+03  0.18648350379E+03  0.00000000000E+00 0.  1.
          4   -1    0    0  502    0 -0.00000000000E+00 -0.00000000000E+00 -0.66581642303E+02  0.66581642303E+02  0.00000000000E+00 0.  1.
        -13    1    1    2    0    0 -0.98661113257E+02 -0.18797946991E+02  0.26324733894E+02  0.10382861291E+03  0.10566000000E+00 0.  1.
         13    1    1    2    0    0  0.73274119770E+02  0.27158059162E+02  0.36578716031E+02  0.86282503649E+02  0.10566000000E+00 0. -1.
          4    1    1    2  501    0  0.25386993488E+02 -0.83601121714E+01  0.56998411561E+02  0.62954029532E+02  0.00000000000E+00 0.  1.
</event>
<event>
 5    1  0.4866530E-005  0.8728722E+03  0.7818608E-02  0.9114918E-01
         21   -1    0    0  501  502  0.00000000000E+00  0.00000000000E+00  0.91935460682E+03  0.91935460682E+03  0.00000000000E+00 0. -1.
          4   -1    0    0  502    0 -0.00000000000E+00 -0.00000000000E+00 -0.17635598609E+04  0.17635598609E+04  0.00000000000E+00 0.  1.
        -13    1    1    2    0    0  0.27190642137E+03  0.16262727718E+03 -0.56745232682E+03  0.64990990733E+03  0.10566000000E+00 0.  1.
         13    1    1    2    0    0 -0.10776868546E+04  0.17296738257E+03 -0.37618404564E+03  0.11544873838E+04  0.10566000000E+00 0. -1.
          4    1    1    2  501    0  0.80578043325E+03 -0.33559465975E+03  0.99431118351E+02  0.87851717659E+03  0.00000000000E+00 0.  1.
</event>
<event>
 5    1  0.4866530E-005  0.1190426E+03  0.7818608E-02  0.1136405E+00
         21   -1    0    0  501  502  0.00000000000E+00  0.00000000000E+00  0.29056752482E+03  0.29056752482E+03  0.00000000000E+00 0. -1.
          4   -1    0    0  502    0 -0.00000000000E+00 -0.00000000000E+00 -0.99879954672E+02  0.99879954672E+02  0.00000000000E+00 0.  1.
        -13    1    1    2    0    0  0.72297622108E+02  0.90854322427E+02 -0.31196340612E+02  0.12022760456E+03  0.10566000000E+00 0.  1.
         13    1    1    2    0    0 -0.73070213290E+02 -0.11162317303E+03  0.19006354091E+03  0.23221358612E+03  0.10566000000E+00 0. -1.
          4    1    1    2  501    0  0.77259118257E+00  0.20768850606E+02  0.31820369850E+02  0.38006288822E+02  0.00000000000E+00 0.  1.
</event>
<event>
 5    1  0.4866530E-005  0.6063650E+03  0.7818608E-02  0.9271146E-01
          4   -1    0    0  502    0 -0.00000000000E+00  0.00000000000E+00  0.47931223543E+03  0.47931223543E+03  0.00000000000E+00 0.  1.
         21   -1    0    0  501  502  0.00000000000E+00 -0.00000000000E+00 -0.14992693539E+04  0.14992693539E+04  0.00000000000E+00 0.  1.
        -13    1    1    2    0    0 -0.53900599449E+03 -0.45586443928E+03 -0.20377096399E+03  0.73475333686E+03  0.10566000000E+00 0.  1.
         13    1    1    2    0    0  0.39439113050E+03  0.35752505797E+03 -0.14711399114E+03  0.55227807167E+03  0.10566000000E+00 0. -1.
          4    1    1    2  501    0  0.14461486398E+03  0.98339381305E+02 -0.66907216332E+03  0.69155018077E+03  0.00000000000E+00 0.  1.
</event>
<event>
 5    1  0.6419205E-005  0.4964086E+03  0.7818608E-02  0.9983105E-01
         21   -1    0    0  501  502  0.00000000000E+00  0.00000000000E+00  0.31848050588E+03  0.31848050588E+03  0.00000000000E+00 0. -1.
         -4   -1    0    0    0  501 -0.00000000000E+00 -0.00000000000E+00 -0.10937568212E+04  0.10937568212E+04  0.00000000000E+00 0. -1.
        -13    1    1    2    0    0  0.74897276629E+02  0.47653093753E+02 -0.28842747624E+03  0.30177945524E+03  0.10566000000E+00 0.  1.
         13    1    1    2    0    0  0.42421028623E+03 -0.20262679871E+03 -0.28782171872E+03  0.55122893558E+03  0.10566000000E+00 0. -1.
         -4    1    1    2    0  502 -0.49910756286E+03  0.15497370495E+03 -0.19902712039E+03  0.55922893628E+03  0.00000000000E+00 0. -1.
</event>
<event>
 5    1  0.4866530E-005  0.1271933E+03  0.7818608E-02  0.1126067E+00
         -4   -1    0    0    0  501 -0.00000000000E+00  0.00000000000E+00  0.98670151394E+02  0.98670151394E+02  0.00000000000E+00 0. -1.
         21   -1    0    0  501  502  0.00000000000E+00 -0.00000000000E+00 -0.26382184239E+03  0.26382184239E+03  0.00000000000E+00 0.  1.
        -13    1    1    2    0    0  0.79768567487E+01  0.14344405936E+03 -0.13634157692E+03  0.19806278088E+03  0.10566000000E+00 0.  1.
         13    1    1    2    0    0 -0.12612875757E+02 -0.12092859612E+03  0.70997124061E+01  0.12179173648E+03  0.10566000000E+00 0. -1.
         -4    1    1    2    0  502  0.46360190086E+01 -0.22515463241E+02 -0.35909826483E+02  0.42637476418E+02  0.00000000000E+00 0. -1.
</event>
<event>
 5    1  0.4866530E-005  0.3916127E+03  0.7818608E-02  0.9804335E-01
         -4   -1    0    0    0  501 -0.00000000000E+00  0.00000000000E+00  0.90072793790E+03  0.90072793790E+03  0.00000000000E+00 0. -1.
         21   -1    0    0  501  502  0.00000000000E+00 -0.00000000000E+00 -0.18063039060E+04  0.18063039060E+04  0.00000000000E+00 0. -1.
        -13    1    1    2    0    0  0.28144239919E+03 -0.17052881587E+03  0.70690689380E+03  0.77974820857E+03  0.10566000000E+00 0.  1.
         13    1    1    2    0    0 -0.11456958370E+03 -0.23610656786E+03 -0.67971382787E+01  0.26252373825E+03  0.10566000000E+00 0. -1.
         -4    1    1    2    0  502 -0.16687281550E+03  0.40663538373E+03 -0.16056857236E+04  0.16647598971E+04  0.00000000000E+00 0. -1.
</event>
<event>
 5    1  0.4866530E-005  0.1679531E+03  0.7818608E-02  0.1084640E+00
          4   -1    0    0  502    0 -0.00000000000E+00  0.00000000000E+00  0.14669990324E+04  0.14669990324E+04  0.00000000000E+00 0.  1.
         21   -1    0    0  501  502  0.00000000000E+00 -0.00000000000E+00 -0.29862972357E+03  0.29862972357E+03  0.00000000000E+00 0.  1.
        -13    1    1    2    0    0 -0.98811830293E+02  0.12227674034E+03  0.88134669214E+03  0.89525827667E+03  0.10566000000E+00 0.  1.
         13    1    1    2    0    0  0.72611660692E+02 -0.18835027075E+03  0.55634085645E+03  0.59183058174E+03  0.10566000000E+00 0. -1.
          4    1    1    2  501    0  0.26200169601E+02  0.66073530410E+02 -0.26931823972E+03  0.27853989760E+03  0.00000000000E+00 0.  1.
</event>
<event>
 5    1  0.4866530E-005  0.4924643E+03  0.7818608E-02  0.9817307E-01
          4   -1    0    0  502    0 -0.00000000000E+00  0.00000000000E+00  0.12865703613E+04  0.12865703613E+04  0.00000000000E+00 0.  1.
         21   -1    0    0  501  502  0.00000000000E+00 -0.00000000000E+00 -0.26646973639E+03  0.26646973639E+03  0.00000000000E+00 0.  1.
        -13    1    1    2    0    0 -0.89318666132E+02 -0.44037857213E+03  0.34864367703E+03  0.56873854767E+03  0.10566000000E+00 0.  1.
         13    1    1    2    0    0 -0.14137733188E+03 -0.71268680027E+02  0.13970963684E+03  0.21115295051E+03  0.10566000000E+00 0. -1.
          4    1    1    2  501    0  0.23069599801E+03  0.51164725215E+03  0.53174731108E+03  0.77314859954E+03  0.00000000000E+00 0.  1.
</event>
<event>
 5    1  0.4866530E-005  0.7021041E+02  0.7818608E-02  0.1259800E+00
         21   -1    0    0  501  502  0.00000000000E+00  0.00000000000E+00  0.89050321400E+03  0.89050321400E+03  0.00000000000E+00 0.  1.
          4   -1    0    0  502    0 -0.00000000000E+00 -0.00000000000E+00 -0.16505957171E+02  0.16505957171E+02  0.00000000000E+00 0.  1.
        -13    1    1    2    0    0  0.99037180523E+02 -0.64963559963E+01  0.18976386154E+03  0.21415158201E+03  0.10566000000E+00 0.  1.
         13    1    1    2    0    0 -0.34161888925E+02 -0.40021339656E+01  0.12070461763E+03  0.12550963156E+03  0.10566000000E+00 0. -1.
          4    1    1    2  501    0 -0.64875291598E+02  0.10498489962E+02  0.56352877765E+03  0.56734795760E+03  0.00000000000E+00 0.  1.
</event>
<event>
 5    1  0.4866530E-005  0.2667191E+03  0.7818608E-02  0.1027875E+00
         -4   -1    0    0    0  501 -0.00000000000E+00  0.00000000000E+00  0.23188538032E+04  0.23188538032E+04  0.00000000000E+00 0. -1.
         21   -1    0    0  501  502  0.00000000000E+00 -0.00000000000E+00 -0.22663883812E+03  0.22663883812E+03  0.00000000000E+00 0. -1.
        -13    1    1    2    0    0  0.19668196700E+03  0.10414816218E+03  0.10789398766E+04  0.11016541672E+04  0.10566000000E+00 0.  1.
         13    1    1    2    0    0 -0.17051184023E+03 -0.36267937241E+03  0.10993348439E+04  0.11701058606E+04  0.10566000000E+00 0. -1.
         -4    1    1    2    0  502 -0.26170126776E+02  0.25853121023E+03 -0.86059755356E+02  0.27373261349E+03  0.00000000000E+00 0. -1.
</event>
<event>
 5    1  0.4866530E-005  0.1312799E+03  0.7818608E-02  0.1121196E+00
         21   -1    0    0  501  502  0.00000000000E+00  0.00000000000E+00  0.36543019150E+03  0.36543019150E+03  0.00000000000E+00 0. -1.
          4   -1    0    0  502    0 -0.00000000000E+00 -0.00000000000E+00 -0.36227316857E+03  0.36227316857E+03  0.00000000000E+00 0.  1.
        -13    1    1    2    0    0  0.95634083448E+02 -0.89882039740E+02 -0.33366376243E+03  0.35854731418E+03  0.10566000000E+00 0.  1.
         13    1    1    2    0    0 -0.10694199274E+03  0.79297897912E+02  0.31824346584E+03  0.34496907273E+03  0.10566000000E+00 0. -1.
          4    1    1    2  501    0  0.11307909292E+02  0.10584141828E+02  0.18577319512E+02  0.24186973169E+02  0.00000000000E+00 0.  1.
</event>
<event>
 5    1  0.4866530E-005  0.5904754E+03  0.7818608E-02  0.9501858E-01
         21   -1    0    0  501  502  0.00000000000E+00  0.00000000000E+00  0.95394300971E+03  0.95394300971E+03  0.00000000000E+00 0.  1.
         -4   -1    0    0    0  501 -0.00000000000E+00 -0.00000000000E+00 -0.13593587806E+04  0.13593587806E+04  0.00000000000E+00 0. -1.
        -13    1    1    2    0    0  0.75698520272E+02 -0.85676371978E+03 -0.48445122748E+03  0.98715112342E+03  0.10566000000E+00 0.  1.
         13    1    1    2    0    0  0.31463197853E+03 -0.60724559720E+02  0.74897465840E+02  0.32907506077E+03  0.10566000000E+00 0. -1.
         -4    1    1    2    0  502 -0.39033049881E+03  0.91748827950E+03  0.41379907550E+01  0.99707560611E+03  0.00000000000E+00 0. -1.
</event>
<event>
 5    1  0.4866530E-005  0.8065356E+02  0.7818608E-02  0.1201257E+00
          4   -1    0    0  502    0 -0.00000000000E+00  0.00000000000E+00  0.11227685177E+03  0.11227685177E+03  0.00000000000E+00 0.  1.
         21   -1    0    0  501  502  0.00000000000E+00 -0.00000000000E+00 -0.13907984489E+03  0.13907984489E+03  0.00000000000E+00 0.  1.
        -13    1    1    2    0    0  0.63309310664E+02 -0.49515526183E+02  0.58298451710E+02  0.99290366026E+02  0.10566000000E+00 0.  1.
         13    1    1    2    0    0 -0.75900764502E+02  0.33965587397E+02 -0.22210424257E+02  0.86069165727E+02  0.10566000000E+00 0. -1.
          4    1    1    2  501    0  0.12591453839E+02  0.15549938786E+02 -0.62891020576E+02  0.65997164902E+02  0.00000000000E+00 0.  1.
</event>
<event>
 5    1  0.4866530E-005  0.1081557E+03  0.7818608E-02  0.1151724E+00
         21   -1    0    0  501  502  0.00000000000E+00  0.00000000000E+00  0.19261038382E+03  0.19261038382E+03  0.00000000000E+00 0.  1.
         -4   -1    0    0    0  501 -0.00000000000E+00 -0.00000000000E+00 -0.11003261583E+03  0.11003261583E+03  0.00000000000E+00 0. -1.
        -13    1    1    2    0    0 -0.56231726828E+00  0.98498875812E+02  0.11087018791E+03  0.14830561173E+03  0.10566000000E+00 0.  1.
         13    1    1    2    0    0  0.32630352490E+01 -0.11065015976E+03 -0.55930456690E+02  0.12402553125E+03  0.10566000000E+00 0. -1.
         -4    1    1    2    0  502 -0.27007179807E+01  0.12151283944E+02  0.27638036758E+02  0.30311856672E+02  0.00000000000E+00 0. -1.
</event>
<event>
 5    1  0.4866530E-005  0.3350521E+03  0.7818608E-02  0.1022497E+00
         21   -1    0    0  501  502  0.00000000000E+00  0.00000000000E+00  0.60314970524E+03  0.60314970524E+03  0.00000000000E+00 0. -1.
          4   -1    0    0  502    0 -0.00000000000E+00 -0.00000000000E+00 -0.14276306097E+04  0.14276306097E+04  0.00000000000E+00 0.  1.
        -13    1    1    2    0    0 -0.58979009189E+02  0.18205406972E+03 -0.49824860786E+03  0.53373579066E+03  0.10566000000E+00 0.  1.
         13    1    1    2    0    0  0.57772413038E+03 -0.63004702972E+02 -0.65170338569E+03  0.87318501906E+03  0.10566000000E+00 0. -1.
          4    1    1    2  501    0 -0.51874512119E+03 -0.11904936675E+03  0.32547108906E+03  0.62385950526E+03  0.00000000000E+00 0.  1.
</event>
<event>
 5    1  0.4866530E-005  0.4902778E+03  0.7818608E-02  0.9516056E-01
         -4   -1    0    0    0  501 -0.00000000000E+00  0.00000000000E+00  0.28779974529E+04  0.28779974529E+04  0.00000000000E+00 0. -1.
         21   -1    0    0  501  502  0.00000000000E+00 -0.00000000000E+00 -0.36894577836E+03  0.36894577836E+03  0.00000000000E+00 0. -1.
        -13    1    1    2    0    0 -0.23573719334E+03 -0.44681253061E+03  0.19179853993E+04  0.19834014886E+04  0.10566000000E+00 0.  1.
         13    1    1    2    0    0 -0.32128723857E+03  0.33147154480E+03  0.51175818308E+03  0.68919904512E+03  0.10566000000E+00 0. -1.
         -4    1    1    2    0  502  0.55702443191E+03  0.11534098581E+03  0.79308092164E+02  0.57434269756E+03  0.00000000000E+00 0. -1.
</event>
<event>
 5    1  0.4866530E-005  0.2647214E+03  0.7818608E-02  0.1023034E+00
         21   -1    0    0  501  502  0.00000000000E+00  0.00000000000E+00  0.22365451092E+03  0.22365451092E+03  0.00000000000E+00 0. -1.
          4   -1    0    0  502    0 -0.00000000000E+00 -0.00000000000E+00 -0.71315563700E+03  0.71315563700E+03  0.00000000000E+00 0.  1.
        -13    1    1    2    0    0  0.38315889546E+02  0.27149278601E+03 -0.56089457757E+03  0.62432297616E+03  0.10566000000E+00 0.  1.
         13    1    1    2    0    0  0.23640559773E+02 -0.22526256613E+03  0.60323616643E+02  0.23439507174E+03  0.10566000000E+00 0. -1.
          4    1    1    2  501    0 -0.61956449320E+02 -0.46230219881E+02  0.11069834856E+02  0.78092100025E+02  0.00000000000E+00 0.  1.
</event>
<event>
 5    1  0.4866530E-005  0.1690300E+03  0.7818608E-02  0.1083724E+00
         -4   -1    0    0    0  501 -0.00000000000E+00  0.00000000000E+00  0.52911139583E+03  0.52911139583E+03  0.00000000000E+00 0. -1.
         21   -1    0    0  501  502  0.00000000000E+00 -0.00000000000E+00 -0.33279662486E+03  0.33279662486E+03  0.00000000000E+00 0. -1.
        -13    1    1    2    0    0  0.27220581197E+03  0.65189271634E+01  0.17808479332E+02  0.27286563283E+03  0.10566000000E+00 0.  1.
         13    1    1    2    0    0 -0.15427170971E+03  0.22716590519E+02  0.34751139155E+03  0.38089366275E+03  0.10566000000E+00 0. -1.
         -4    1    1    2    0  502 -0.11793410225E+03 -0.29235517682E+02 -0.16900509991E+03  0.20814872511E+03  0.00000000000E+00 0. -1.
</event>
<event>
 5    1  0.4866530E-005  0.2068321E+03  0.7818608E-02  0.1055551E+00
         21   -1    0    0  501  502  0.00000000000E+00  0.00000000000E+00  0.12550661682E+04  0.12550661682E+04  0.00000000000E+00 0.  1.
         -4   -1    0    0    0  501 -0.00000000000E+00 -0.00000000000E+00 -0.42659682993E+03  0.42659682993E+03  0.00000000000E+00 0. -1.
        -13    1    1    2    0    0 -0.13892275927E+03 -0.15912403777E+03  0.10559586549E+04  0.10768791411E+04  0.10566000000E+00 0.  1.
         13    1    1    2    0    0  0.15510723149E+03  0.13672879667E+03 -0.38920778984E+03  0.44072183056E+03  0.10566000000E+00 0. -1.
         -4    1    1    2    0  502 -0.16184472219E+02  0.22395241102E+02  0.16171847320E+03  0.16406202650E+03  0.00000000000E+00 0. -1.
</event>
<event>
 5    1  0.4866530E-005  0.6666638E+02  0.7818608E-02  0.1235756E+00
         -4   -1    0    0    0  501 -0.00000000000E+00  0.00000000000E+00  0.10184514165E+03  0.10184514165E+03  0.00000000000E+00 0. -1.
         21   -1    0    0  501  502  0.00000000000E+00 -0.00000000000E+00 -0.67611101563E+02  0.67611101563E+02  0.00000000000E+00 0. -1.
        -13    1    1    2    0    0  0.29706142586E+02  0.53555444479E+02  0.16650160343E+00  0.61242790821E+02  0.10566000000E+00 0.  1.
         13    1    1    2    0    0 -0.55275002738E+02 -0.46713571182E+02  0.37524126211E+02  0.81520272768E+02  0.10566000000E+00 0. -1.
         -4    1    1    2    0  502  0.25568860152E+02 -0.68418732966E+01 -0.34565877287E+01  0.26693179623E+02  0.00000000000E+00 0. -1.
</event>
<event>
 5    1  0.4866530E-005  0.3640771E+02  0.7818608E-02  0.1359785E+00
         21   -1    0    0  501  502  0.00000000000E+00  0.00000000000E+00  0.60927332814E+02  0.60927332814E+02  0.00000000000E+00 0. -1.
         -4   -1    0    0    0  501 -0.00000000000E+00 -0.00000000000E+00 -0.47676915079E+02  0.47676915079E+02  0.00000000000E+00 0. -1.
        -13    1    1    2    0    0 -0.30139438293E+02  0.39317501739E+01 -0.49601901866E+01  0.30797062372E+02  0.10566000000E+00 0.  1.
         13    1    1    2    0    0  0.43709013042E+02 -0.10612385673E+02 -0.97447356940E+01  0.46022511759E+02  0.10566000000E+00 0. -1.
         -4    1    1    2    0  502 -0.13569574749E+02  0.66806354991E+01  0.27955343615E+02  0.31784673763E+02  0.00000000000E+00 0. -1.
</event>
<event>
 5    1  0.4866530E-005  0.1648588E+03  0.7818608E-02  0.1087316E+00
         -4   -1    0    0    0  501 -0.00000000000E+00  0.00000000000E+00  0.10245787253E+03  0.10245787253E+03  0.00000000000E+00 0. -1.
         21   -1    0    0  501  502  0.00000000000E+00 -0.00000000000E+00 -0.39866204392E+03  0.39866204392E+03  0.00000000000E+00 0.  1.
        -13    1    1    2    0    0 -0.15740467787E+03  0.27317317017E+02 -0.13524563526E+03  0.20931760902E+03  0.10566000000E+00 0.  1.
         13    1    1    2    0    0  0.16455770062E+03 -0.34340509909E+02 -0.43129108501E+02  0.17354722302E+03  0.10566000000E+00 0. -1.
         -4    1    1    2    0  502 -0.71530227520E+01  0.70231928915E+01 -0.11782942763E+03  0.11825508441E+03  0.00000000000E+00 0. -1.
</event>
<event>
 5    1  0.4866530E-005  0.4970317E+03  0.7818608E-02  0.9766881E-01
         -4   -1    0    0    0  501 -0.00000000000E+00  0.00000000000E+00  0.20707565077E+04  0.20707565077E+04  0.00000000000E+00 0. -1.
         21   -1    0    0  501  502  0.00000000000E+00 -0.00000000000E+00 -0.18289055029E+03  0.18289055029E+03  0.00000000000E+00 0. -1.
        -13    1    1    2    0    0  0.12711236269E+03  0.13162173647E+03  0.33099259902E+03  0.37820357750E+03  0.10566000000E+00 0.  1.
         13    1    1    2    0    0 -0.29746029953E+03 -0.47800606568E+03  0.50992546326E+03  0.75960280270E+03  0.10566000000E+00 0. -1.
         -4    1    1    2    0  502  0.17034793683E+03  0.34638432922E+03  0.10469478951E+04  0.11158406778E+04  0.00000000000E+00 0. -1.
</event>
<event>
 5    1  0.4866530E-005  0.1254276E+03  0.7818608E-02  0.1128233E+00
         21   -1    0    0  501  502  0.00000000000E+00  0.00000000000E+00  0.37432335023E+03  0.37432335023E+03  0.00000000000E+00 0. -1.
          4   -1    0    0  502    0 -0.00000000000E+00 -0.00000000000E+00 -0.11971716575E+03  0.11971716575E+03  0.00000000000E+00 0.  1.
        -13    1    1    2    0    0  0.23014905406E+02 -0.12145414006E+03 -0.59729154822E+02  0.13728939182E+03  0.10566000000E+00 0.  1.
         13    1    1    2    0    0 -0.28855157278E+02  0.13269485950E+03  0.20017185851E+03  0.24188701896E+03  0.10566000000E+00 0. -1.
          4    1    1    2  501    0  0.58402518720E+01 -0.11240719444E+02  0.11416348079E+03  0.11486410520E+03  0.00000000000E+00 0.  1.
</event>
<event>
 5    1  0.4866530E-005  0.2501312E+03  0.7818608E-02  0.1048353E+00
         -4   -1    0    0    0  501 -0.00000000000E+00  0.00000000000E+00  0.39845632404E+03  0.39845632404E+03  0.00000000000E+00 0. -1.
         21   -1    0    0  501  502  0.00000000000E+00 -0.00000000000E+00 -0.47396192734E+03  0.47396192734E+03  0.00000000000E+00 0. -1.
        -13    1    1    2    0    0  0.13810428132E+03  0.43313477365E+02  0.19048407439E+03  0.23923428600E+03  0.10566000000E+00 0.  1.
         13    1    1    2    0    0 -0.29607334620E+03 -0.18541263688E+03 -0.99452371721E+02  0.36321902159E+03  0.10566000000E+00 0. -1.
         -4    1    1    2    0  502  0.15796906487E+03  0.14209915951E+03 -0.16653730597E+03  0.26996494378E+03  0.00000000000E+00 0. -1.
</event>
<event>
 5    1  0.4866530E-005  0.4247700E+02  0.7818608E-02  0.1325868E+00
          4   -1    0    0  502    0 -0.00000000000E+00  0.00000000000E+00  0.93276811692E+02  0.93276811692E+02  0.00000000000E+00 0.  1.
         21   -1    0    0  501  502  0.00000000000E+00 -0.00000000000E+00 -0.26992831664E+03  0.26992831664E+03  0.00000000000E+00 0.  1.
        -13    1    1    2    0    0  0.11118308671E+02 -0.46322665646E+02  0.49941947087E+02  0.69018949449E+02  0.10566000000E+00 0.  1.
         13    1    1    2    0    0 -0.83802773807E+01  0.36021919985E+02  0.23530683699E+02  0.43835054554E+02  0.10566000000E+00 0. -1.
          4    1    1    2  501    0 -0.27380312904E+01  0.10300745661E+02 -0.25012413574E+03  0.25035112433E+03  0.00000000000E+00 0.  1.
</event>
<event>
 5    1  0.4866530E-005  0.4207354E+03  0.7818608E-02  0.1008387E+00
         21   -1    0    0  501  502  0.00000000000E+00  0.00000000000E+00  0.53284359005E+03  0.53284359005E+03  0.00000000000E+00 0.  1.
          4   -1    0    0  502    0 -0.00000000000E+00 -0.00000000000E+00 -0.59831370107E+03  0.59831370107E+03  0.00000000000E+00 0.  1.
        -13    1    1    2    0    0 -0.51091717792E+02  0.47044595108E+03 -0.30770111256E+03  0.56445526160E+03  0.10566000000E+00 0.  1.
         13    1    1    2    0    0  0.82880089404E+02 -0.64510514473E+02  0.44791074345E+02  0.11417953933E+03  0.10566000000E+00 0. -1.
          4    1    1    2  501    0 -0.31788371613E+02 -0.40593543661E+03  0.19743992719E+03  0.45252249018E+03  0.00000000000E+00 0.  1.
</event>
<event>
 5    1  0.4866530E-005  0.3522966E+03  0.7818608E-02  0.9877941E-01
         21   -1    0    0  501  502  0.00000000000E+00  0.00000000000E+00  0.10085705171E+04  0.10085705171E+04  0.00000000000E+00 0.  1.
         -4   -1    0    0    0  501 -0.00000000000E+00 -0.00000000000E+00 -0.26775221495E+03  0.26775221495E+03  0.00000000000E+00 0. -1.
        -13    1    1    2    0    0  0.17523845917E+03  0.32798329460E+03  0.25257237610E+03  0.44952683506E+03  0.10566000000E+00 0.  1.
         13    1    1    2    0    0 -0.20208407266E+03 -0.27792754523E+03  0.85372787656E+01  0.34373622025E+03  0.10566000000E+00 0. -1.
         -4    1    1    2    0  502  0.26845613494E+02 -0.50055749365E+02  0.47970864730E+03  0.48305967675E+03  0.00000000000E+00 0. -1.
</event>
<event>
 5    1  0.4866530E-005  0.6592920E+03  0.7818608E-02  0.9184219E-01
         21   -1    0    0  501  502  0.00000000000E+00  0.00000000000E+00  0.47528167703E+03  0.47528167703E+03  0.00000000000E+00 0. -1.
          4   -1    0    0  502    0 -0.00000000000E+00 -0.00000000000E+00 -0.19323454740E+04  0.19323454740E+04  0.00000000000E+00 0.  1.
        -13    1    1    2    0    0 -0.55254970748E+03 -0.35566813495E+03 -0.10831018395E+04  0.12668546117E+04  0.10566000000E+00 0.  1.
         13    1    1    2    0    0  0.52562117610E+03  0.40613301891E+03 -0.60760762341E+03  0.90022701859E+03  0.10566000000E+00 0. -1.
          4    1    1    2  501    0  0.26928531388E+02 -0.50464883960E+02  0.23364566593E+03  0.24054552069E+03  0.00000000000E+00 0.  1.
</event>
<event>
 5    1  0.4866530E-005  0.4511934E+03  0.7818608E-02  0.9663364E-01
         21   -1    0    0  501  502  0.00000000000E+00  0.00000000000E+00  0.72382008307E+03  0.72382008307E+03  0.00000000000E+00 0. -1.
         -4   -1    0    0    0  501 -0.00000000000E+00 -0.00000000000E+00 -0.79597234458E+03  0.79597234458E+03  0.00000000000E+00 0. -1.
        -13    1    1    2    0    0  0.22036314437E+03 -0.27244820920E+03 -0.28483417044E+03  0.45157331399E+03  0.10566000000E+00 0.  1.
         13    1    1    2    0    0 -0.47294258948E+03 -0.11298896177E+03  0.33616109009E+03  0.59113914443E+03  0.10566000000E+00 0. -1.
         -4    1    1    2    0  502  0.25257944510E+03  0.38543717097E+03 -0.12347918116E+03  0.47707996922E+03  0.00000000000E+00 0. -1.
</event>
<event>
 5    1  0.4866530E-005  0.7923982E+03  0.7818608E-02  0.8998753E-01
         21   -1    0    0  501  502  0.00000000000E+00  0.00000000000E+00  0.38435337956E+03  0.38435337956E+03  0.00000000000E+00 0. -1.
          4   -1    0    0  502    0 -0.00000000000E+00 -0.00000000000E+00 -0.26440160345E+04  0.26440160345E+04  0.00000000000E+00 0.  1.
        -13    1    1    2    0    0 -0.16905105005E+03  0.90902681583E+03 -0.63002906789E+03  0.11188586358E+04  0.10566000000E+00 0.  1.
         13    1    1    2    0    0  0.26666775071E+03 -0.69581912358E+03 -0.13708446870E+04  0.15602855857E+04  0.10566000000E+00 0. -1.
          4    1    1    2  501    0 -0.97616700660E+02 -0.21320769225E+03 -0.25878890001E+03  0.34922519246E+03  0.00000000000E+00 0.  1.
</event>
<event>
 5    1  0.4866530E-005  0.4554326E+03  0.7818608E-02  0.9946548E-01
          4   -1    0    0  502    0 -0.00000000000E+00  0.00000000000E+00  0.53484293633E+03  0.53484293633E+03  0.00000000000E+00 0.  1.
         21   -1    0    0  501  502  0.00000000000E+00 -0.00000000000E+00 -0.65448466631E+03  0.65448466631E+03  0.00000000000E+00 0.  1.
        -13    1    1    2    0    0  0.38492792986E+03  0.13986817671E+03 -0.19277614665E+03  0.45265358932E+03  0.10566000000E+00 0.  1.
         13    1    1    2    0    0  0.12418443508E+03  0.37411892854E+02  0.14301718394E+03  0.19306825143E+03  0.10566000000E+00 0. -1.
          4    1    1    2  501    0 -0.50911236494E+03 -0.17728006956E+03 -0.69882767278E+02  0.54360576189E+03  0.00000000000E+00 0.  1.
</event>
<event>
 5    1  0.4866530E-005  0.3000352E+03  0.7818608E-02  0.1007291E+00
         21   -1    0    0  501  502  0.00000000000E+00  0.00000000000E+00  0.43753580411E+03  0.43753580411E+03  0.00000000000E+00 0.  1.
          4   -1    0    0  502    0 -0.00000000000E+00 -0.00000000000E+00 -0.17908090984E+04  0.17908090984E+04  0.00000000000E+00 0.  1.
        -13    1    1    2    0    0 -0.18794140034E+03 -0.22853766219E+03 -0.15263372622E+04  0.15547529972E+04  0.10566000000E+00 0.  1.
         13    1    1    2    0    0  0.21341208031E+03  0.25480947409E+03 -0.13836233977E+03  0.36002323861E+03  0.10566000000E+00 0. -1.
          4    1    1    2  501    0 -0.25470679969E+02 -0.26271811894E+02  0.31142630769E+03  0.31356866674E+03  0.00000000000E+00 0.  1.
</event>
<event>
 5    1  0.4866530E-005  0.5119827E+02  0.7818608E-02  0.1286986E+00
          4   -1    0    0  502    0 -0.00000000000E+00  0.00000000000E+00  0.11525220795E+03  0.11525220795E+03  0.00000000000E+00 0.  1.
         21   -1    0    0  501  502  0.00000000000E+00 -0.00000000000E+00 -0.61249890086E+02  0.61249890086E+02  0.00000000000E+00 0. -1.
        -13    1    1    2    0    0 -0.30840348089E+02  0.40730395032E+02  0.86699247049E+02  0.10063231465E+03  0.10566000000E+00 0.  1.
         13    1    1    2    0    0  0.42729434572E+02 -0.32395828587E+02 -0.28655278627E+02  0.60798276669E+02  0.10566000000E+00 0. -1.
          4    1    1    2  501    0 -0.11889086483E+02 -0.83345664442E+01 -0.40416505620E+01  0.15071506709E+02  0.00000000000E+00 0.  1.
</event>
<event>
 5    1  0.4866530E-005  0.3269881E+03  0.7818608E-02  0.1013613E+00
          4   -1    0    0  502    0 -0.00000000000E+00  0.00000000000E+00  0.41043641730E+03  0.41043641730E+03  0.00000000000E+00 0.  1.
         21   -1    0    0  501  502  0.00000000000E+00 -0.00000000000E+00 -0.58607970668E+03  0.58607970668E+03  0.00000000000E+00 0.  1.
        -13    1    1    2    0    0  0.39089713042E+03  0.86428416185E+02 -0.10281587941E+03  0.41332983671E+03  0.10566000000E+00 0.  1.
         13    1    1    2    0    0 -0.15753580785E+03  0.10479247359E+03  0.12100046054E+03  0.22458877062E+03  0.10566000000E+00 0. -1.
          4    1    1    2  501    0 -0.23336132257E+03 -0.19122088977E+03 -0.19382787051E+03  0.35859751664E+03  0.00000000000E+00 0.  1.
</event>
<event>
 5    1  0.4866530E-005  0.4277785E+03  0.7818608E-02  0.9652087E-01
         -4   -1    0    0    0  501 -0.00000000000E+00  0.00000000000E+00  0.18442066711E+04  0.18442066711E+04  0.00000000000E+00 0. -1.
         21   -1    0    0  501  502  0.00000000000E+00 -0.00000000000E+00 -0.12652455373E+03  0.12652455373E+03  0.00000000000E+00 0.  1.
        -13    1    1    2    0    0 -0.27088728207E+03 -0.32060271841E+03  0.41135688199E+03  0.58769083553E+03  0.10566000000E+00 0.  1.
         13    1    1    2    0    0  0.29310230326E+03  0.31627163253E+03  0.12525795692E+04  0.13247234783E+04  0.10566000000E+00 0. -1.
         -4    1    1    2    0  502 -0.22215021184E+02  0.43310858835E+01  0.53745666247E+02  0.58316911025E+02  0.00000000000E+00 0. -1.
</event>
<event>
 5    1  0.4866530E-005  0.7247229E+02  0.7818608E-02  0.1245179E+00
         -4   -1    0    0    0  501 -0.00000000000E+00  0.00000000000E+00  0.29831666114E+03  0.29831666114E+03  0.00000000000E+00 0. -1.
         21   -1    0    0  501  502  0.00000000000E+00 -0.00000000000E+00 -0.44364874335E+02  0.44364874335E+02  0.00000000000E+00 0. -1.
        -13    1    1    2    0    0 -0.23412298329E+02 -0.35414403182E+02  0.49561282746E+02  0.65258314239E+02  0.10566000000E+00 0.  1.
         13    1    1    2    0    0  0.54182550381E+02 -0.34778127242E+02  0.18844656263E+03  0.19914162054E+03  0.10566000000E+00 0. -1.
         -4    1    1    2    0  502 -0.30770252052E+02  0.70192530425E+02  0.15943941426E+02  0.78281600692E+02  0.00000000000E+00 0. -1.
</event>
<event>
 5    1  0.4866530E-005  0.1622435E+03  0.7818608E-02  0.1089627E+00
         21   -1    0    0  501  502  0.00000000000E+00  0.00000000000E+00  0.46574996012E+03  0.46574996012E+03  0.00000000000E+00 0. -1.
          4   -1    0    0  502    0 -0.00000000000E+00 -0.00000000000E+00 -0.41881122501E+03  0.41881122501E+03  0.00000000000E+00 0.  1.
        -13    1    1    2    0    0 -0.85901546995E+02  0.13732468881E+03 -0.37258836040E+03  0.40627483727E+03  0.10566000000E+00 0.  1.
         13    1    1    2    0    0  0.10548413660E+03 -0.12977783550E+03  0.21355090768E+03  0.27124378518E+03  0.10566000000E+00 0. -1.
          4    1    1    2  501    0 -0.19582589601E+02 -0.75468533075E+01  0.20597618782E+03  0.20704256268E+03  0.00000000000E+00 0.  1.
</event>
<event>
 5    1  0.4866530E-005  0.1116058E+03  0.7818608E-02  0.1146662E+00
         21   -1    0    0  501  502  0.00000000000E+00  0.00000000000E+00  0.13394550980E+03  0.13394550980E+03  0.00000000000E+00 0. -1.
          4   -1    0    0  502    0 -0.00000000000E+00 -0.00000000000E+00 -0.14258032391E+03  0.14258032391E+03  0.00000000000E+00 0.  1.
        -13    1    1    2    0    0 -0.57804907729E+02 -0.11205995795E+03  0.19971852161E+02  0.12766255354E+03  0.10566000000E+00 0.  1.
         13    1    1    2    0    0  0.58386526794E+02  0.87624791398E+02 -0.49831785183E+02  0.11649166733E+03  0.10566000000E+00 0. -1.
          4    1    1    2  501    0 -0.58161906479E+00  0.24435166549E+02  0.21225118916E+02  0.32371612842E+02  0.00000000000E+00 0.  1.
</event>
<event>
 5    1  0.4866530E-005  0.3928611E+03  0.7818608E-02  0.1005571E+00
         21   -1    0    0  501  502  0.00000000000E+00  0.00000000000E+00  0.12618325585E+04  0.12618325585E+04  0.00000000000E+00 0. -1.
         -4   -1    0    0    0  501 -0.00000000000E+00 -0.00000000000E+00 -0.34772607998E+03  0.34772607998E+03  0.00000000000E+00 0. -1.
        -13    1    1    2    0    0 -0.11066684172E+03  0.87858116227E+02 -0.11045197539E+03  0.17934839970E+03  0.10566000000E+00 0.  1.
         13    1    1    2    0    0 -0.24394650549E+02 -0.40744023556E+03  0.10026747801E+04  0.10825707230E+04  0.10566000000E+00 0. -1.
         -4    1    1    2    0  502  0.13506149227E+03  0.31958211934E+03  0.21883673744E+02  0.34763951569E+03  0.00000000000E+00 0. -1.
</event>
<event>
 5    1  0.4866530E-005  0.5044664E+03  0.7818608E-02  0.9681617E-01
          4   -1    0    0  502    0 -0.00000000000E+00  0.00000000000E+00  0.25866363718E+03  0.25866363718E+03  0.00000000000E+00 0.  1.
         21   -1    0    0  501  502  0.00000000000E+00 -0.00000000000E+00 -0.16209835665E+04  0.16209835665E+04  0.00000000000E+00 0.  1.
        -13    1    1    2    0    0 -0.38501471140E+03 -0.27639761642E+03 -0.49550391948E+03  0.68567930969E+03  0.10566000000E+00 0.  1.
         13    1    1    2    0    0 -0.16257487828E+03  0.16994013922E+03 -0.12661204791E+03  0.26709710557E+03  0.10566000000E+00 0. -1.
          4    1    1    2  501    0  0.54758958967E+03  0.10645747720E+03 -0.74020396194E+03  0.92687078843E+03  0.00000000000E+00 0.  1.
</event>
<event>
 5    1  0.4866530E-005  0.1516942E+03  0.7818608E-02  0.1099453E+00
         21   -1    0    0  501  502  0.00000000000E+00  0.00000000000E+00  0.13696748235E+03  0.13696748235E+03  0.00000000000E+00 0.  1.
          4   -1    0    0  502    0 -0.00000000000E+00 -0.00000000000E+00 -0.29992743660E+03  0.29992743660E+03  0.00000000000E+00 0.  1.
        -13    1    1    2    0    0  0.13006803136E+03  0.76360209603E+02 -0.18731624976E+03  0.24049108712E+03  0.10566000000E+00 0.  1.
         13    1    1    2    0    0 -0.12780605506E+03 -0.86246124297E+02 -0.15795348828E+02  0.15499124451E+03  0.10566000000E+00 0. -1.
          4    1    1    2  501    0 -0.22619763041E+01  0.98859146936E+01  0.40151644340E+02  0.41412587330E+02  0.00000000000E+00 0.  1.
</event>
<event>
 5    1  0.4866530E-005  0.3759014E+03  0.7818608E-02  0.9801345E-01
          4   -1    0    0  502    0 -0.00000000000E+00  0.00000000000E+00  0.23281850995E+04  0.23281850995E+04  0.00000000000E+00 0.  1.
         21   -1    0    0  501  502  0.00000000000E+00 -0.00000000000E+00 -0.32540087228E+03  0.32540087228E+03  0.00000000000E+00 0.  1.
        -13    1    1    2    0    0 -0.31280735157E+03  0.19305301016E+03  0.18343966311E+04  0.18708631472E+04  0.10566000000E+00 0.  1.
         13    1    1    2    0    0  0.51141336720E+03 -0.44157151712E+02  0.14499089844E+03  0.53340027933E+03  0.10566000000E+00 0. -1.
          4    1    1    2  501    0 -0.19860601563E+03 -0.14889585845E+03  0.23396697610E+02  0.24932254525E+03  0.00000000000E+00 0.  1.
</event>
<event>
 5    1  0.4866530E-005  0.6427991E+02  0.7818608E-02  0.1242586E+00
         21   -1    0    0  501  502  0.00000000000E+00  0.00000000000E+00  0.92856598966E+02  0.92856598966E+02  0.00000000000E+00 0. -1.
          4   -1    0    0  502    0 -0.00000000000E+00 -0.00000000000E+00 -0.32621644101E+03  0.32621644101E+03  0.00000000000E+00 0.  1.
        -13    1    1    2    0    0  0.24929983516E+02 -0.57854295959E+02 -0.28197506442E+03  0.28892658541E+03  0.10566000000E+00 0.  1.
         13    1    1    2    0    0 -0.15178544970E+02  0.82938554063E+02  0.12701113250E+02  0.85267352600E+02  0.10566000000E+00 0. -1.
          4    1    1    2  501    0 -0.97514385458E+01 -0.25084258105E+02  0.35914109128E+02  0.44879101961E+02  0.00000000000E+00 0.  1.
</event>
<event>
 5    1  0.4866530E-005  0.4827590E+03  0.7818608E-02  0.9813697E-01
         -4   -1    0    0    0  501 -0.00000000000E+00  0.00000000000E+00  0.12332227403E+04  0.12332227403E+04  0.00000000000E+00 0. -1.
         21   -1    0    0  501  502  0.00000000000E+00 -0.00000000000E+00 -0.32041762849E+03  0.32041762849E+03  0.00000000000E+00 0. -1.
        -13    1    1    2    0    0  0.13167151242E+03  0.10775792760E+03  0.34669680317E+03  0.38619663727E+03  0.10566000000E+00 0.  1.
         13    1    1    2    0    0 -0.17904348786E+03  0.40427023968E+03  0.46823146456E+03  0.64399667143E+03  0.10566000000E+00 0. -1.
         -4    1    1    2    0  502  0.47371975438E+02 -0.51202816729E+03  0.97876844131E+02  0.52344706014E+03  0.00000000000E+00 0. -1.
</event>
<event>
 5    1  0.4866530E-005  0.3236619E+03  0.7818608E-02  0.9979904E-01
         -4   -1    0    0    0  501 -0.00000000000E+00  0.00000000000E+00  0.21264215785E+04  0.21264215785E+04  0.00000000000E+00 0. -1.
         21   -1    0    0  501  502  0.00000000000E+00 -0.00000000000E+00 -0.87404901890E+02  0.87404901890E+02  0.00000000000E+00 0.  1.
        -13    1    1    2    0    0  0.22693102711E+03  0.24804727054E+03  0.35162479372E+03  0.48648242128E+03  0.10566000000E+00 0.  1.
         13    1    1    2    0    0 -0.21652196333E+03 -0.23676335179E+03  0.16798960962E+04  0.17102600827E+04  0.10566000000E+00 0. -1.
         -4    1    1    2    0  502 -0.10409063779E+02 -0.11283918747E+02  0.74957866740E+01  0.17083976379E+02  0.00000000000E+00 0. -1.
</event>
<event>
 5    1  0.4866530E-005  0.1938943E+02  0.7818608E-02  0.1518528E+00
          4   -1    0    0  502    0 -0.00000000000E+00  0.00000000000E+00  0.13624521529E+03  0.13624521529E+03  0.00000000000E+00 0.  1.
         21   -1    0    0  501  502  0.00000000000E+00 -0.00000000000E+00 -0.12834197019E+02  0.12834197019E+02  0.00000000000E+00 0.  1.
        -13    1    1    2    0    0 -0.16339196462E+02 -0.16962707075E+02  0.45981672832E+02  0.51662638074E+02  0.10566000000E+00 0.  1.
         13    1    1    2    0    0  0.17937046673E+01  0.19056725696E+02  0.80208497142E+02  0.82460841304E+02  0.10566000000E+00 0. -1.
          4    1    1    2  501    0  0.14545491795E+02 -0.20940186211E+01 -0.27791517056E+01  0.14955932928E+02  0.00000000000E+00 0.  1.
</event>
<event>
 5    1  0.4866530E-005  0.1500300E+03  0.7818608E-02  0.1101082E+00
         -4   -1    0    0    0  501 -0.00000000000E+00  0.00000000000E+00  0.10128857480E+03  0.10128857480E+03  0.00000000000E+00 0. -1.
         21   -1    0    0  501  502  0.00000000000E+00 -0.00000000000E+00 -0.82940526498E+03  0.82940526498E+03  0.00000000000E+00 0.  1.
        -13    1    1    2    0    0 -0.30939420448E+02  0.19492281863E+03 -0.27563309726E+03  0.33900703301E+03  0.10566000000E+00 0.  1.
         13    1    1    2    0    0  0.39344045592E+02 -0.13357853474E+03 -0.43752455408E+01  0.13932097044E+03  0.10566000000E+00 0. -1.
         -4    1    1    2    0  502 -0.84046251433E+01 -0.61344283893E+02 -0.44810834738E+03  0.45236583634E+03  0.00000000000E+00 0. -1.
</event>
<event>
 5    1  0.4866530E-005  0.7370680E+02  0.7818608E-02  0.1217325E+00
         21   -1    0    0  501  502  0.00000000000E+00  0.00000000000E+00  0.13513899540E+03  0.13513899540E+03  0.00000000000E+00 0.  1.
         -4   -1    0    0    0  501 -0.00000000000E+00 -0.00000000000E+00 -0.12835902648E+03  0.12835902648E+03  0.00000000000E+00 0. -1.
        -13    1    1    2    0    0 -0.60903413743E+02  0.55351410817E+02  0.85089606439E+02  0.11837760250E+03  0.10566000000E+00 0.  1.
         13    1    1    2    0    0  0.65600891712E+02 -0.32011981294E+02 -0.92168863217E+02  0.11757276237E+03  0.10566000000E+00 0. -1.
         -4    1    1    2    0  502 -0.46974779695E+01 -0.23339429524E+02  0.13859225697E+02  0.27547657009E+02  0.00000000000E+00 0. -1.
</event>
<event>
 5    1  0.4866530E-005  0.3585141E+03  0.7818608E-02  0.1027517E+00
         -4   -1    0    0    0  501 -0.00000000000E+00  0.00000000000E+00  0.20341349366E+04  0.20341349366E+04  0.00000000000E+00 0. -1.
         21   -1    0    0  501  502  0.00000000000E+00 -0.00000000000E+00 -0.16450465612E+03  0.16450465612E+03  0.00000000000E+00 0. -1.
        -13    1    1    2    0    0  0.22727940120E+02  0.89832940914E+02  0.37417826425E+02  0.99933084781E+02  0.10566000000E+00 0.  1.
         13    1    1    2    0    0 -0.36354796637E+03 -0.17745206340E+03  0.16568644590E+04  0.17055369258E+04  0.10566000000E+00 0. -1.
         -4    1    1    2    0  502  0.34082002626E+03  0.87619122487E+02  0.17534799502E+03  0.39316958209E+03  0.00000000000E+00 0. -1.
</event>
<event>
 5    1  0.4866530E-005  0.7669974E+02  0.7818608E-02  0.1248799E+00
         -4   -1    0    0    0  501 -0.00000000000E+00  0.00000000000E+00  0.22317703452E+02  0.22317703452E+02  0.00000000000E+00 0. -1.
         21   -1    0    0  501  502  0.00000000000E+00 -0.00000000000E+00 -0.46005827694E+03  0.46005827694E+03  0.00000000000E+00 0. -1.
        -13    1    1    2    0    0 -0.17810335458E+02 -0.27996722743E+02 -0.29314423971E+02  0.44276078759E+02  0.10566000000E+00 0.  1.
         13    1    1    2    0    0 -0.62149729903E+02  0.41530117323E+02 -0.15634358131E+03  0.17329358370E+03  0.10566000000E+00 0. -1.
         -4    1    1    2    0  502  0.79960065361E+02 -0.13533394580E+02 -0.25208256820E+03  0.26480631793E+03  0.00000000000E+00 0. -1.
</event>
<event>
 5    1  0.4866530E-005  0.4802378E+03  0.7818608E-02  0.9522371E-01
          4   -1    0    0  502    0 -0.00000000000E+00  0.00000000000E+00  0.59203564469E+03  0.59203564469E+03  0.00000000000E+00 0.  1.
         21   -1    0    0  501  502  0.00000000000E+00 -0.00000000000E+00 -0.16715041295E+04  0.16715041295E+04  0.00000000000E+00 0.  1.
        -13    1    1    2    0    0  0.61502128403E+03  0.45227368837E+03 -0.79045378231E+03  0.10989175866E+04  0.10566000000E+00 0.  1.
         13    1    1    2    0    0 -0.32754243551E+03 -0.29869769271E+03  0.26890762137E+03  0.51847437612E+03  0.10566000000E+00 0. -1.
          4    1    1    2  501    0 -0.28747884852E+03 -0.15357599566E+03 -0.55792232388E+03  0.64614781147E+03  0.00000000000E+00 0.  1.
</event>
<event>
 5    1  0.4866530E-005  0.1063548E+03  0.7818608E-02  0.1156700E+00
         -4   -1    0    0    0  501 -0.00000000000E+00  0.00000000000E+00  0.12205727510E+03  0.12205727510E+03  0.00000000000E+00 0. -1.
         21   -1    0    0  501  502  0.00000000000E+00 -0.00000000000E+00 -0.29862041550E+03  0.29862041550E+03  0.00000000000E+00 0.  1.
        -13    1    1    2    0    0 -0.43421852539E+02 -0.90787746386E+02 -0.14877925233E+03  0.17961945680E+03  0.10566000000E+00 0.  1.
         13    1    1    2    0    0 -0.68808088238E+02  0.10257273074E+03  0.47806362911E+01  0.12360656838E+03  0.10566000000E+00 0. -1.
         -4    1    1    2    0  502  0.11222994078E+03 -0.11784984358E+02 -0.32564524357E+02  0.11745166542E+03  0.00000000000E+00 0. -1.
</event>
<event>
 5    1  0.4866530E-005  0.5017682E+03  0.7818608E-02  0.9728300E-01
         21   -1    0    0  501  502  0.00000000000E+00  0.00000000000E+00  0.18107471416E+03  0.18107471416E+03  0.00000000000E+00 0. -1.
         -4   -1    0    0    0  501 -0.00000000000E+00 -0.00000000000E+00 -0.23833837082E+04  0.23833837082E+04  0.00000000000E+00 0. -1.
        -13    1    1    2    0    0  0.52898762491E+02 -0.19615900913E+03 -0.56729429895E+03  0.60257735497E+03  0.10566000000E+00 0.  1.
         13    1    1    2    0    0  0.24943043026E+03 -0.35960167430E+03 -0.51786784299E+03  0.67802361144E+03  0.10566000000E+00 0. -1.
         -4    1    1    2    0  502 -0.30232919275E+03  0.55576068343E+03 -0.11171468521E+04  0.12838574559E+04  0.00000000000E+00 0. -1.
</event>
<event>
 5    1  0.4866530E-005  0.4341514E+02  0.7818608E-02  0.1321198E+00
         21   -1    0    0  501  502  0.00000000000E+00  0.00000000000E+00  0.18779891689E+03  0.18779891689E+03  0.00000000000E+00 0. -1.
          4   -1    0    0  502    0 -0.00000000000E+00 -0.00000000000E+00 -0.29026382208E+02  0.29026382208E+02  0.00000000000E+00 0.  1.
        -13    1    1    2    0    0  0.41385937496E+02 -0.35999440752E+01 -0.15627181943E+01  0.41571729240E+02  0.10566000000E+00 0.  1.
         13    1    1    2    0    0 -0.55201337772E+02 -0.20978513682E+01  0.11632818416E+03  0.12877828337E+03  0.10566000000E+00 0. -1.
          4    1    1    2  501    0  0.13815400275E+02  0.56977954434E+01  0.44007068709E+02  0.46475286487E+02  0.00000000000E+00 0.  1.
</event>
<event>
 5    1  0.4866530E-005  0.2115820E+03  0.7818608E-02  0.1052473E+00
         21   -1    0    0  501  502  0.00000000000E+00  0.00000000000E+00  0.49767950546E+03  0.49767950546E+03  0.00000000000E+00 0.  1.
          4   -1    0    0  502    0 -0.00000000000E+00 -0.00000000000E+00 -0.14351078163E+04  0.14351078163E+04  0.00000000000E+00 0.  1.
        -13    1    1    2    0    0  0.17919279205E+03 -0.10116796330E+03 -0.36839397931E+03  0.42197055427E+03  0.10566000000E+00 0.  1.
         13    1    1    2    0    0 -0.17424410114E+03  0.12479900449E+03 -0.10285622219E+04  0.10506550593E+04  0.10566000000E+00 0. -1.
          4    1    1    2  501    0 -0.49486909112E+01 -0.23631041191E+02  0.45952789033E+03  0.46016170814E+03  0.00000000000E+00 0.  1.
</event>
<event>
 5    1  0.4866530E-005  0.2449692E+03  0.7818608E-02  0.1033033E+00
         -4   -1    0    0    0  501 -0.00000000000E+00  0.00000000000E+00  0.76677919148E+03  0.76677919148E+03  0.00000000000E+00 0. -1.
         21   -1    0    0  501  502  0.00000000000E+00 -0.00000000000E+00 -0.19503614904E+03  0.19503614904E+03  0.00000000000E+00 0. -1.
        -13    1    1    2    0    0  0.84847856761E+02  0.24116135170E+03  0.13499030669E+03  0.28910266414E+03  0.10566000000E+00 0.  1.
         13    1    1    2    0    0 -0.60899216726E+02 -0.23373283346E+03  0.52664348009E+03  0.57939029878E+03  0.10566000000E+00 0. -1.
         -4    1    1    2    0  502 -0.23948640035E+02 -0.74285182387E+01 -0.89890744337E+02  0.93322377596E+02  0.00000000000E+00 0. -1.
</event>
<event>
 5    1  0.4866530E-005  0.5068900E+03  0.7818608E-02  0.9842234E-01
         21   -1    0    0  501  502  0.00000000000E+00  0.00000000000E+00  0.13290834672E+03  0.13290834672E+03  0.00000000000E+00 0.  1.
          4   -1    0    0  502    0 -0.00000000000E+00 -0.00000000000E+00 -0.27224614612E+04  0.27224614612E+04  0.00000000000E+00 0.  1.
        -13    1    1    2    0    0  0.32805826539E+02 -0.46162730745E+03 -0.14728695135E+04  0.15438654761E+04  0.10566000000E+00 0.  1.
         13    1    1    2    0    0 -0.11486925245E+03 -0.67851555079E+02 -0.36329690971E+03  0.38701864872E+03  0.10566000000E+00 0. -1.
          4    1    1    2  501    0  0.82063425907E+02  0.52947886252E+03 -0.75338669122E+03  0.92448568309E+03  0.00000000000E+00 0.  1.
</event>
<event>
 5    1  0.4866530E-005  0.5039994E+03  0.7818608E-02  0.9469249E-01
         21   -1    0    0  501  502  0.00000000000E+00  0.00000000000E+00  0.23452960940E+03  0.23452960940E+03  0.00000000000E+00 0. -1.
          4   -1    0    0  502    0 -0.00000000000E+00 -0.00000000000E+00 -0.12898618239E+04  0.12898618239E+04  0.00000000000E+00 0.  1.
        -13    1    1    2    0    0  0.35130793873E+03  0.35894824595E+03 -0.45674744383E+03  0.67888095399E+03  0.10566000000E+00 0.  1.
         13    1    1    2    0    0 -0.34637758906E+03 -0.36808195954E+03 -0.63273124405E+03  0.80982133925E+03  0.10566000000E+00 0. -1.
          4    1    1    2  501    0 -0.49303496664E+01  0.91337135910E+01  0.34146473392E+02  0.35689140042E+02  0.00000000000E+00 0.  1.
</event>
<event>
 5    1  0.4866530E-005  0.5520973E+03  0.7818608E-02  0.9370555E-01
         21   -1    0    0  501  502  0.00000000000E+00  0.00000000000E+00  0.54125848854E+03  0.54125848854E+03  0.00000000000E+00 0. -1.
         -4   -1    0    0    0  501 -0.00000000000E+00 -0.00000000000E+00 -0.10668597937E+04  0.10668597937E+04  0.00000000000E+00 0. -1.
        -13    1    1    2    0    0 -0.25114533110E+03 -0.31191245842E+03  0.22669154616E+02  0.40109507699E+03  0.10566000000E+00 0.  1.
         13    1    1    2    0    0  0.59467079644E+03  0.35241910512E+03 -0.50995272967E+03  0.85900196708E+03  0.10566000000E+00 0. -1.
         -4    1    1    2    0  502 -0.34352546534E+03 -0.40506646696E+02 -0.38317730074E+02  0.34802123815E+03  0.00000000000E+00 0. -1.
</event>
<event>
 5    1  0.4866530E-005  0.5731928E+03  0.7818608E-02  0.9432612E-01
         21   -1    0    0  501  502  0.00000000000E+00  0.00000000000E+00  0.15091696065E+04  0.15091696065E+04  0.00000000000E+00 0. -1.
         -4   -1    0    0    0  501 -0.00000000000E+00 -0.00000000000E+00 -0.13426731952E+04  0.13426731952E+04  0.00000000000E+00 0. -1.
        -13    1    1    2    0    0 -0.91792639812E+03 -0.92911688671E+02 -0.61047531200E+03  0.11063008506E+04  0.10566000000E+00 0.  1.
         13    1    1    2    0    0  0.24656555395E+03  0.26542082578E+03 -0.29621561287E+03  0.46795992096E+03  0.10566000000E+00 0. -1.
         -4    1    1    2    0  502  0.67136084418E+03 -0.17250913711E+03  0.10731873361E+04  0.12775820302E+04  0.00000000000E+00 0. -1.
</event>
<event>
 5    1  0.4866530E-005  0.3948875E+02  0.7818608E-02  0.1341699E+00
          4   -1    0    0  502    0 -0.00000000000E+00  0.00000000000E+00  0.52355732183E+02  0.52355732183E+02  0.00000000000E+00 0.  1.
         21   -1    0    0  501  502  0.00000000000E+00 -0.00000000000E+00 -0.29132553131E+03  0.29132553131E+03  0.00000000000E+00 0.  1.
        -13    1    1    2    0    0 -0.11810216735E+02 -0.46366732472E+02  0.20725922658E+02  0.52143361356E+02  0.10566000000E+00 0.  1.
         13    1    1    2    0    0  0.21848266878E+02  0.24221813325E+02 -0.19822263106E+01  0.32680015170E+02  0.10566000000E+00 0. -1.
          4    1    1    2  501    0 -0.10038050143E+02  0.22144919147E+02 -0.25771349548E+03  0.25885788697E+03  0.00000000000E+00 0.  1.
</event>
<event>
 5    1  0.4866530E-005  0.6091068E+02  0.7818608E-02  0.1252810E+00
         21   -1    0    0  501  502  0.00000000000E+00  0.00000000000E+00  0.22897419714E+02  0.22897419714E+02  0.00000000000E+00 0. -1.
         -4   -1    0    0    0  501 -0.00000000000E+00 -0.00000000000E+00 -0.59627759388E+03  0.59627759388E+03  0.00000000000E+00 0. -1.
        -13    1    1    2    0    0  0.48632835377E+02  0.40759712156E+02 -0.24395514865E+03  0.25207267311E+03  0.10566000000E+00 0.  1.
         13    1    1    2    0    0 -0.38416279822E+02 -0.45647403309E+02 -0.34372290793E+03  0.34886235765E+03  0.10566000000E+00 0. -1.
         -4    1    1    2    0  502 -0.10216555555E+02  0.48876911528E+01  0.14297882416E+02  0.18239982834E+02  0.00000000000E+00 0. -1.
</event>
<event>
 5    1  0.4866530E-005  0.8604600E+02  0.7818608E-02  0.1225691E+00
          4   -1    0    0  502    0 -0.00000000000E+00  0.00000000000E+00  0.82323738031E+02  0.82323738031E+02  0.00000000000E+00 0.  1.
         21   -1    0    0  501  502  0.00000000000E+00 -0.00000000000E+00 -0.16328067373E+03  0.16328067373E+03  0.00000000000E+00 0.  1.
        -13    1    1    2    0    0 -0.89492757631E+02  0.40205561845E+02 -0.51979054573E+02  0.11102825834E+03  0.10566000000E+00 0.  1.
         13    1    1    2    0    0  0.99589082385E+01 -0.37239661192E+02  0.17581733812E+02  0.42368629278E+02  0.10566000000E+00 0. -1.
          4    1    1    2  501    0  0.79533849392E+02 -0.29659006532E+01 -0.46559614940E+02  0.92207524147E+02  0.00000000000E+00 0.  1.
</event>
<event>
 5    1  0.4866530E-005  0.9019782E+02  0.7818608E-02  0.1181879E+00
          4   -1    0    0  502    0 -0.00000000000E+00  0.00000000000E+00  0.70774803346E+02  0.70774803346E+02  0.00000000000E+00 0.  1.
         21   -1    0    0  501  502  0.00000000000E+00 -0.00000000000E+00 -0.63035443541E+03  0.63035443541E+03  0.00000000000E+00 0.  1.
        -13    1    1    2    0    0 -0.51608433064E+02  0.71950103102E+02  0.27692394367E+02  0.92774606275E+02  0.10566000000E+00 0.  1.
         13    1    1    2    0    0  0.50291091533E+02 -0.91391624998E+02 -0.25499823007E+03  0.27550994811E+03  0.10566000000E+00 0. -1.
          4    1    1    2  501    0  0.13173415310E+01  0.19441521896E+02 -0.33227379636E+03  0.33284468436E+03  0.00000000000E+00 0.  1.
</event>
<event>
 5    1  0.4866530E-005  0.2642933E+03  0.7818608E-02  0.1023241E+00
          4   -1    0    0  502    0 -0.00000000000E+00  0.00000000000E+00  0.19580253702E+03  0.19580253702E+03  0.00000000000E+00 0.  1.
         21   -1    0    0  501  502  0.00000000000E+00 -0.00000000000E+00 -0.54658804617E+03  0.54658804617E+03  0.00000000000E+00 0. -1.
        -13    1    1    2    0    0 -0.21919956709E+03  0.14021313834E+03 -0.22975573185E+02  0.26122033325E+03  0.10566000000E+00 0.  1.
         13    1    1    2    0    0  0.23482544963E+03 -0.13606111724E+03 -0.16512120494E+03  0.31768009522E+03  0.10566000000E+00 0. -1.
          4    1    1    2  501    0 -0.15625882537E+02 -0.41520210931E+01 -0.16268873103E+03  0.16349015471E+03  0.00000000000E+00 0.  1.
</event>
<event>
 5    1  0.4866530E-005  0.5463104E+02  0.7818608E-02  0.1280704E+00
         -4   -1    0    0    0  501 -0.00000000000E+00  0.00000000000E+00  0.34248654450E+03  0.34248654450E+03  0.00000000000E+00 0. -1.
         21   -1    0    0  501  502  0.00000000000E+00 -0.00000000000E+00 -0.47653309237E+02  0.47653309237E+02  0.00000000000E+00 0.  1.
        -13    1    1    2    0    0  0.47449625979E+02 -0.53404180300E+01 -0.10843970121E+02  0.48965190924E+02  0.10566000000E+00 0.  1.
         13    1    1    2    0    0 -0.88447702472E+02 -0.19138277500E+02  0.25918733994E+03  0.27453116050E+03  0.10566000000E+00 0. -1.
         -4    1    1    2    0  502  0.40998076494E+02  0.24478695530E+02  0.46489865442E+02  0.66643502308E+02  0.00000000000E+00 0. -1.
</event>
<event>
 5    1  0.4866530E-005  0.4676189E+03  0.7818608E-02  0.9551916E-01
         -4   -1    0    0    0  501 -0.00000000000E+00  0.00000000000E+00  0.36116305031E+04  0.36116305031E+04  0.00000000000E+00 0. -1.
         21   -1    0    0  501  502  0.00000000000E+00 -0.00000000000E+00 -0.12388492368E+03  0.12388492368E+03  0.00000000000E+00 0. -1.
        -13    1    1    2    0    0  0.22081744508E+03  0.32204173205E+03  0.12903976334E+04  0.13481829567E+04  0.10566000000E+00 0.  1.
         13    1    1    2    0    0 -0.28877040973E+03 -0.48989894487E+03  0.21118465638E+04  0.21870723001E+04  0.10566000000E+00 0. -1.
         -4    1    1    2    0  502  0.67952964649E+02  0.16785721282E+03  0.85501382147E+02  0.20026016991E+03  0.00000000000E+00 0. -1.
</event>
<event>
 5    1  0.4866530E-005  0.1258843E+03  0.7818608E-02  0.1127669E+00
         21   -1    0    0  501  502  0.00000000000E+00  0.00000000000E+00  0.66116206376E+02  0.66116206376E+02  0.00000000000E+00 0.  1.
         -4   -1    0    0    0  501 -0.00000000000E+00 -0.00000000000E+00 -0.30486949925E+03  0.30486949925E+03  0.00000000000E+00 0. -1.
        -13    1    1    2    0    0  0.28638404193E+02 -0.12042322332E+03 -0.15103420458E+03  0.19527737459E+03  0.10566000000E+00 0.  1.
         13    1    1    2    0    0 -0.45639897517E+02  0.12140728058E+03 -0.90899572825E+02  0.15838393709E+03  0.10566000000E+00 0. -1.
         -4    1    1    2    0  502  0.17001493325E+02 -0.98405726016E+00  0.31804845306E+01  0.17324393952E+02  0.00000000000E+00 0. -1.
</event>
<event>
 5    1  0.4866530E-005  0.2391836E+03  0.7818608E-02  0.1036155E+00
         21   -1    0    0  501  502  0.00000000000E+00  0.00000000000E+00  0.40929846800E+03  0.40929846800E+03  0.00000000000E+00 0.  1.
          4   -1    0    0  502    0 -0.00000000000E+00 -0.00000000000E+00 -0.13458919182E+04  0.13458919182E+04  0.00000000000E+00 0.  1.
        -13    1    1    2    0    0  0.24317141971E+03 -0.68476391685E+02 -0.11704552578E+04  0.11974084003E+04  0.10566000000E+00 0.  1.
         13    1    1    2    0    0 -0.18401309212E+03  0.26832503331E+02 -0.10345120556E+03  0.21279794267E+03  0.10566000000E+00 0. -1.
          4    1    1    2  501    0 -0.59158327587E+02  0.41643888354E+02  0.33731301319E+03  0.34498404315E+03  0.00000000000E+00 0.  1.
</event>
<event>
 5    1  0.4866530E-005  0.4900344E+03  0.7818608E-02  0.9923227E-01
         21   -1    0    0  501  502  0.00000000000E+00  0.00000000000E+00  0.58321337191E+02  0.58321337191E+02  0.00000000000E+00 0.  1.
          4   -1    0    0  502    0 -0.00000000000E+00 -0.00000000000E+00 -0.53209458291E+04  0.53209458291E+04  0.00000000000E+00 0.  1.
        -13    1    1    2    0    0 -0.32228631973E+03 -0.38154696786E+03 -0.19286049880E+04  0.19922258335E+04  0.10566000000E+00 0.  1.
         13    1    1    2    0    0  0.10119430394E+03 -0.49160658431E+02 -0.58647984739E+03  0.59717307378E+03  0.10566000000E+00 0. -1.
          4    1    1    2  501    0  0.22109201578E+03  0.43070762629E+03 -0.27475396565E+04  0.27898682591E+04  0.00000000000E+00 0.  1.
</event>
<event>
 5    1  0.4866530E-005  0.4620800E+03  0.7818608E-02  0.9676277E-01
         21   -1    0    0  501  502  0.00000000000E+00  0.00000000000E+00  0.30667787644E+03  0.30667787644E+03  0.00000000000E+00 0.  1.
          4   -1    0    0  502    0 -0.00000000000E+00 -0.00000000000E+00 -0.20107686965E+04  0.20107686965E+04  0.00000000000E+00 0.  1.
        -13    1    1    2    0    0  0.64195890843E+03 -0.17536406689E+03 -0.51873143883E+03  0.84376899259E+03  0.10566000000E+00 0.  1.
         13    1    1    2    0    0 -0.26373010033E+03  0.16630951321E+03 -0.10093383184E+04  0.10563977812E+04  0.10566000000E+00 0. -1.
          4    1    1    2  501    0 -0.37822880810E+03  0.90545536768E+01 -0.17602106285E+03  0.41727979916E+03  0.00000000000E+00 0.  1.
</event>
<event>
 5    1  0.4866530E-005  0.5730975E+03  0.7818608E-02  0.9330711E-01
          4   -1    0    0  502    0 -0.00000000000E+00  0.00000000000E+00  0.19701765589E+04  0.19701765589E+04  0.00000000000E+00 0.  1.
         21   -1    0    0  501  502  0.00000000000E+00 -0.00000000000E+00 -0.32556633306E+03  0.32556633306E+03  0.00000000000E+00 0.  1.
        -13    1    1    2    0    0  0.57294582135E+03  0.51761590811E+03  0.72436548817E+03  0.10587249474E+04  0.10566000000E+00 0.  1.
         13    1    1    2    0    0 -0.25139895582E+03 -0.41164342071E+03  0.61135983833E+03  0.77872498605E+03  0.10566000000E+00 0. -1.
          4    1    1    2  501    0 -0.32154686553E+03 -0.10597248740E+03  0.30888489933E+03  0.45829295855E+03  0.00000000000E+00 0.  1.
</event>
<event>
 5    1  0.4866530E-005  0.4399917E+03  0.7818608E-02  0.9650180E-01
         21   -1    0    0  501  502  0.00000000000E+00  0.00000000000E+00  0.11595923208E+04  0.11595923208E+04  0.00000000000E+00 0.  1.
          4   -1    0    0  502    0 -0.00000000000E+00 -0.00000000000E+00 -0.93371178390E+03  0.93371178390E+03  0.00000000000E+00 0.  1.
        -13    1    1    2    0    0 -0.42686708227E+03 -0.55436864555E+02  0.80411966011E+03  0.91208398233E+03  0.10566000000E+00 0.  1.
         13    1    1    2    0    0  0.74012017143E+02  0.45797312682E+03 -0.41268491141E+03  0.62090740923E+03  0.10566000000E+00 0. -1.
          4    1    1    2  501    0  0.35285506513E+03 -0.40253626226E+03 -0.16555421184E+03  0.56031271312E+03  0.00000000000E+00 0.  1.
</event>
<event>
 5    1  0.4866530E-005  0.4758456E+03  0.7818608E-02  0.9908420E-01
         -4   -1    0    0    0  501 -0.00000000000E+00  0.00000000000E+00  0.25303283791E+04  0.25303283791E+04  0.00000000000E+00 0. -1.
         21   -1    0    0  501  502  0.00000000000E+00 -0.00000000000E+00 -0.14017537137E+03  0.14017537137E+03  0.00000000000E+00 0. -1.
        -13    1    1    2    0    0 -0.11844296157E+03  0.51336106131E+02  0.19902053879E+03  0.23721997589E+03  0.10566000000E+00 0.  1.
         13    1    1    2    0    0  0.30044562173E+03  0.38738262158E+03  0.16086698025E+04  0.16817108585E+04  0.10566000000E+00 0. -1.
         -4    1    1    2    0  502 -0.18200266016E+03 -0.43871872771E+03  0.58246266649E+03  0.75157291610E+03  0.00000000000E+00 0. -1.
</event>
<event>
 5    1  0.4866530E-005  0.2592465E+03  0.7818608E-02  0.1055775E+00
         -4   -1    0    0    0  501 -0.00000000000E+00  0.00000000000E+00  0.33001467964E+03  0.33001467964E+03  0.00000000000E+00 0. -1.
         21   -1    0    0  501  502  0.00000000000E+00 -0.00000000000E+00 -0.10369500831E+04  0.10369500831E+04  0.00000000000E+00 0. -1.
        -13    1    1    2    0    0 -0.99187805716E+02 -0.32395005722E+02  0.19335381417E+02  0.10612033423E+03  0.10566000000E+00 0.  1.
         13    1    1    2    0    0  0.11580960834E+03  0.28835708151E+03  0.15196912632E+03  0.34591371519E+03  0.10566000000E+00 0. -1.
         -4    1    1    2    0  502 -0.16621802625E+02 -0.25596207579E+03 -0.87823991120E+03  0.91493071333E+03  0.00000000000E+00 0. -1.
</event>
<event>
 5    1  0.4866530E-005  0.4827178E+03  0.7818608E-02  0.9678892E-01
         21   -1    0    0  501  502  0.00000000000E+00  0.00000000000E+00  0.16654961815E+03  0.16654961815E+03  0.00000000000E+00 0.  1.
          4   -1    0    0  502    0 -0.00000000000E+00 -0.00000000000E+00 -0.30752735243E+04  0.30752735243E+04  0.00000000000E+00 0.  1.
        -13    1    1    2    0    0 -0.58960068376E+03 -0.12159078626E+03 -0.99540126382E+03  0.11632871411E+04  0.10566000000E+00 0.  1.
         13    1    1    2    0    0  0.17233972577E+03  0.20913228703E+03 -0.13223110241E+04  0.13497939658E+04  0.10566000000E+00 0. -1.
          4    1    1    2  501    0  0.41726095798E+03 -0.87541500769E+02 -0.59101161830E+03  0.72874203555E+03  0.00000000000E+00 0.  1.
</event>
<event>
 5    1  0.4866530E-005  0.5010145E+02  0.7818608E-02  0.1291376E+00
         21   -1    0    0  501  502  0.00000000000E+00  0.00000000000E+00  0.34048797683E+03  0.34048797683E+03  0.00000000000E+00 0. -1.
         -4   -1    0    0    0  501 -0.00000000000E+00 -0.00000000000E+00 -0.33621195921E+02  0.33621195921E+02  0.00000000000E+00 0. -1.
        -13    1    1    2    0    0 -0.26340964759E+02 -0.43416910149E+02  0.54318827337E+02  0.74360074493E+02  0.10566000000E+00 0.  1.
         13    1    1    2    0    0 -0.22185104666E+01  0.52552135232E+02  0.78035871703E+01  0.53174766975E+02  0.10566000000E+00 0. -1.
         -4    1    1    2    0  502  0.28559475226E+02 -0.91352250831E+01  0.24474436640E+03  0.24657433129E+03  0.00000000000E+00 0. -1.
</event>
<event>
 5    1  0.4866530E-005  0.1836710E+03  0.7818608E-02  0.1071946E+00
          4   -1    0    0  502    0 -0.00000000000E+00  0.00000000000E+00  0.32092208640E+03  0.32092208640E+03  0.00000000000E+00 0.  1.
         21   -1    0    0  501  502  0.00000000000E+00 -0.00000000000E+00 -0.25045146340E+03  0.25045146340E+03  0.00000000000E+00 0. -1.
        -13    1    1    2    0    0  0.65126863892E+02  0.17492660660E+03 -0.60919404395E+02  0.19634666051E+03  0.10566000000E+00 0.  1.
         13    1    1    2    0    0 -0.84883262457E+02 -0.16234584763E+03  0.21831819569E+03  0.28499857583E+03  0.10566000000E+00 0. -1.
          4    1    1    2  501    0  0.19756398565E+02 -0.12580758969E+02 -0.86928168300E+02  0.90028313461E+02  0.00000000000E+00 0.  1.
</event>
<event>
 5    1  0.4866530E-005  0.4653333E+03  0.7818608E-02  0.9841885E-01
         21   -1    0    0  501  502  0.00000000000E+00  0.00000000000E+00  0.82105254845E+03  0.82105254845E+03  0.00000000000E+00 0. -1.
         -4   -1    0    0    0  501 -0.00000000000E+00 -0.00000000000E+00 -0.12161033918E+04  0.12161033918E+04  0.00000000000E+00 0. -1.
        -13    1    1    2    0    0  0.22600998408E+02 -0.17116077901E+03 -0.89217623967E+03  0.90872728098E+03  0.10566000000E+00 0.  1.
         13    1    1    2    0    0  0.21332425832E+03  0.52177309286E+03  0.15477440012E+03  0.58455925766E+03  0.10566000000E+00 0. -1.
         -4    1    1    2    0  502 -0.23592525673E+03 -0.35061231385E+03  0.34235099621E+03  0.54386940159E+03  0.00000000000E+00 0. -1.
</event>
<event>
 5    1  0.4866530E-005  0.3516961E+03  0.7818608E-02  0.9879973E-01
         21   -1    0    0  501  502  0.00000000000E+00  0.00000000000E+00  0.90319441343E+03  0.90319441343E+03  0.00000000000E+00 0.  1.
          4   -1    0    0  502    0 -0.00000000000E+00 -0.00000000000E+00 -0.17722839555E+04  0.17722839555E+04  0.00000000000E+00 0.  1.
        -13    1    1    2    0    0 -0.27979897786E+03 -0.21829134876E+03 -0.14913618632E+04  0.15330031960E+04  0.10566000000E+00 0.  1.
         13    1    1    2    0    0  0.28122084010E+03  0.18399331869E+03 -0.15100892678E+03  0.36843236741E+03  0.10566000000E+00 0. -1.
          4    1    1    2  501    0 -0.14218622333E+01  0.34298030079E+02  0.77328124783E+03  0.77404280554E+03  0.00000000000E+00 0.  1.
</event>
<event>
 5    1  0.4866530E-005  0.6335496E+03  0.7818608E-02  0.9225385E-01
         21   -1    0    0  501  502  0.00000000000E+00  0.00000000000E+00  0.25428121521E+03  0.25428121521E+03  0.00000000000E+00 0. -1.
          4   -1    0    0  502    0 -0.00000000000E+00 -0.00000000000E+00 -0.27075336423E+04  0.27075336423E+04  0.00000000000E+00 0.  1.
        -13    1    1    2    0    0 -0.68329521298E+03  0.28292581210E+03 -0.16337202609E+04  0.17933157182E+04  0.10566000000E+00 0.  1.
         13    1    1    2    0    0  0.52105935803E+03 -0.25541913568E+02 -0.58874168795E+03  0.78662063934E+03  0.10566000000E+00 0. -1.
          4    1    1    2  501    0  0.16223585495E+03 -0.25738389853E+03 -0.23079047822E+03  0.38187849990E+03  0.00000000000E+00 0.  1.
</event>
<event>
 5    1  0.4866530E-005  0.1040379E+03  0.7818608E-02  0.1158042E+00
         21   -1    0    0  501  502  0.00000000000E+00  0.00000000000E+00  0.38796448380E+02  0.38796448380E+02  0.00000000000E+00 0.  1.
         -4   -1    0    0    0  501 -0.00000000000E+00 -0.00000000000E+00 -0.36899729811E+03  0.36899729811E+03  0.00000000000E+00 0. -1.
        -13    1    1    2    0    0  0.10633634580E+03 -0.22273012424E+02 -0.12649189134E+03  0.16674446095E+03  0.10566000000E+00 0.  1.
         13    1    1    2    0    0 -0.10166028811E+03  0.42010263098E+01 -0.19603383534E+03  0.22086588365E+03  0.10566000000E+00 0. -1.
         -4    1    1    2    0  502 -0.46760576975E+01  0.18071986114E+02 -0.76751230569E+01  0.20183401884E+02  0.00000000000E+00 0. -1.
</event>
<event>
 5    1  0.4866530E-005  0.4751061E+03  0.7818608E-02  0.9641745E-01
         21   -1    0    0  501  502  0.00000000000E+00  0.00000000000E+00  0.48948306905E+03  0.48948306905E+03  0.00000000000E+00 0. -1.
         -4   -1    0    0    0  501 -0.00000000000E+00 -0.00000000000E+00 -0.10158405549E+04  0.10158405549E+04  0.00000000000E+00 0. -1.
        -13    1    1    2    0    0  0.26252106272E+03 -0.18960790580E+03 -0.26362501032E+03  0.41757229738E+03  0.10566000000E+00 0.  1.
         13    1    1    2    0    0 -0.42807164577E+03  0.52697315576E+03 -0.18958208038E+03  0.70490241677E+03  0.10566000000E+00 0. -1.
         -4    1    1    2    0  502  0.16555058306E+03 -0.33736524996E+03 -0.73150395170E+02  0.38284890981E+03  0.00000000000E+00 0. -1.
</event>
<event>
 5    1  0.4866530E-005  0.6207345E+02  0.7818608E-02  0.1249200E+00
         21   -1    0    0  501  502  0.00000000000E+00  0.00000000000E+00  0.58767495411E+02  0.58767495411E+02  0.00000000000E+00 0. -1.
         -4   -1    0    0    0  501 -0.00000000000E+00 -0.00000000000E+00 -0.21533969942E+03  0.21533969942E+03  0.00000000000E+00 0. -1.
        -13    1    1    2    0    0 -0.59125847288E+02  0.33988126254E+02 -0.26508597203E+02  0.73169497972E+02  0.10566000000E+00 0.  1.
         13    1    1    2    0    0  0.61833095406E+02 -0.36614912063E+01 -0.15151851307E+03  0.16369058975E+03  0.10566000000E+00 0. -1.
         -4    1    1    2    0  502 -0.27072481176E+01 -0.30326635048E+02  0.21454906261E+02  0.37247107114E+02  0.00000000000E+00 0. -1.
</event>
<event>
 5    1  0.4866530E-005  0.1308049E+03  0.7818608E-02  0.1121752E+00
          4   -1    0    0  502    0 -0.00000000000E+00  0.00000000000E+00  0.52376392667E+03  0.52376392667E+03  0.00000000000E+00 0.  1.
         21   -1    0    0  501  502  0.00000000000E+00 -0.00000000000E+00 -0.87205565993E+02  0.87205565993E+02  0.00000000000E+00 0. -1.
        -13    1    1    2    0    0 -0.91899125663E+02 -0.93614029178E+02  0.43167984529E+03  0.45117240137E+03  0.10566000000E+00 0.  1.
         13    1    1    2    0    0  0.97481549510E+02  0.84723161275E+02  0.29980953084E+02  0.13258783980E+03  0.10566000000E+00 0. -1.
          4    1    1    2  501    0 -0.55824238464E+01  0.88908679031E+01 -0.25102437704E+02  0.27209251492E+02  0.00000000000E+00 0.  1.
</event>
<event>
 5    1  0.4866530E-005  0.4568298E+03  0.7818608E-02  0.9730533E-01
         21   -1    0    0  501  502  0.00000000000E+00  0.00000000000E+00  0.35224648814E+03  0.35224648814E+03  0.00000000000E+00 0.  1.
          4   -1    0    0  502    0 -0.00000000000E+00 -0.00000000000E+00 -0.17273075883E+04  0.17273075883E+04  0.00000000000E+00 0.  1.
        -13    1    1    2    0    0 -0.85591134986E+02 -0.34375743424E+03 -0.46397206472E+03  0.58375089207E+03  0.10566000000E+00 0.  1.
         13    1    1    2    0    0 -0.26382124687E+03 -0.41981822659E+02 -0.93735221326E+03  0.97467600083E+03  0.10566000000E+00 0. -1.
          4    1    1    2  501    0  0.34941238185E+03  0.38573925690E+03  0.26263177827E+02  0.52112718353E+03  0.00000000000E+00 0.  1.
</event>
<event>
 5    1  0.4866530E-005  0.4923460E+03  0.7818608E-02  0.1008369E+00
         21   -1    0    0  501  502  0.00000000000E+00  0.00000000000E+00  0.13538900486E+03  0.13538900486E+03  0.00000000000E+00 0. -1.
         -4   -1    0    0    0  501 -0.00000000000E+00 -0.00000000000E+00 -0.22250939484E+04  0.22250939484E+04  0.00000000000E+00 0. -1.
        -13    1    1    2    0    0  0.16394306953E+02  0.63496973604E+02 -0.28892903567E+02  0.71662054101E+02  0.10566000000E+00 0.  1.
         13    1    1    2    0    0 -0.49566436193E+03  0.40490502354E+02 -0.11834281322E+04  0.12836762815E+04  0.10566000000E+00 0. -1.
         -4    1    1    2    0  502  0.47927005498E+03 -0.10398747596E+03 -0.87738390779E+03  0.10051446177E+04  0.00000000000E+00 0. -1.
</event>
<event>
 5    1  0.4866530E-005  0.9582114E+02  0.7818608E-02  0.1171661E+00
         21   -1    0    0  501  502  0.00000000000E+00  0.00000000000E+00  0.59919005915E+02  0.59919005915E+02  0.00000000000E+00 0.  1.
         -4   -1    0    0    0  501 -0.00000000000E+00 -0.00000000000E+00 -0.41053339849E+03  0.41053339849E+03  0.00000000000E+00 0. -1.
        -13    1    1    2    0    0  0.91066300605E+02  0.14931929981E+02 -0.30797763252E+02  0.97285903523E+02  0.10566000000E+00 0.  1.
         13    1    1    2    0    0 -0.81704139080E+02 -0.54342735457E+02 -0.31780506557E+03  0.33260903492E+03  0.10566000000E+00 0. -1.
         -4    1    1    2    0  502 -0.93621615255E+01  0.39410805476E+02 -0.20115637476E+01  0.40557465964E+02  0.00000000000E+00 0. -1.
</event>
<event>
 5    1  0.4866530E-005  0.8755048E+02  0.7818608E-02  0.1186979E+00
          4   -1    0    0  502    0 -0.00000000000E+00  0.00000000000E+00  0.49195288566E+03  0.49195288566E+03  0.00000000000E+00 0.  1.
         21   -1    0    0  501  502  0.00000000000E+00 -0.00000000000E+00 -0.19064468928E+03  0.19064468928E+03  0.00000000000E+00 0.  1.
        -13    1    1    2    0    0  0.13431248543E+03 -0.27344484897E+02 -0.11899780645E+03  0.18151598746E+03  0.10566000000E+00 0.  1.
         13    1    1    2    0    0 -0.86228664722E+02 -0.15480210000E+01  0.43469608499E+03  0.44316867721E+03  0.10566000000E+00 0. -1.
          4    1    1    2  501    0 -0.48083820713E+02  0.28892505897E+02 -0.14390082162E+02  0.57912910270E+02  0.00000000000E+00 0.  1.
</event>
<event>
 5    1  0.4866530E-005  0.2342336E+03  0.7818608E-02  0.1038903E+00
         21   -1    0    0  501  502  0.00000000000E+00  0.00000000000E+00  0.27449717260E+03  0.27449717260E+03  0.00000000000E+00 0.  1.
         -4   -1    0    0    0  501 -0.00000000000E+00 -0.00000000000E+00 -0.44778172548E+03  0.44778172548E+03  0.00000000000E+00 0. -1.
        -13    1    1    2    0    0  0.96056998022E+02 -0.18771960052E+03  0.81503094661E+02  0.22607158356E+03  0.10566000000E+00 0.  1.
         13    1    1    2    0    0  0.49213070148E+02  0.25280026395E+03 -0.20575791616E+03  0.32964561419E+03  0.10566000000E+00 0. -1.
         -4    1    1    2    0  502 -0.14527006817E+03 -0.65080663434E+02 -0.49029731382E+02  0.16656170034E+03  0.00000000000E+00 0. -1.
</event>
<event>
 5    1  0.4866530E-005  0.2024536E+03  0.7818608E-02  0.1058467E+00
         21   -1    0    0  501  502  0.00000000000E+00  0.00000000000E+00  0.49573648418E+02  0.49573648418E+02  0.00000000000E+00 0.  1.
         -4   -1    0    0    0  501 -0.00000000000E+00 -0.00000000000E+00 -0.10035070173E+04  0.10035070173E+04  0.00000000000E+00 0. -1.
        -13    1    1    2    0    0 -0.23072002676E+02  0.20809029948E+03 -0.49889957615E+03  0.54104961722E+03  0.10566000000E+00 0.  1.
         13    1    1    2    0    0  0.16951523532E+02 -0.19515664793E+03 -0.45734966021E+03  0.49753612355E+03  0.10566000000E+00 0. -1.
         -4    1    1    2    0  502  0.61204791444E+01 -0.12933651547E+02  0.23158674703E+01  0.14494924955E+02  0.00000000000E+00 0. -1.
</event>
<event>
 5    1  0.4866530E-005  0.4553667E+03  0.7818608E-02  0.9768139E-01
          4   -1    0    0  502    0 -0.00000000000E+00  0.00000000000E+00  0.64612620630E+03  0.64612620630E+03  0.00000000000E+00 0.  1.
         21   -1    0    0  501  502  0.00000000000E+00 -0.00000000000E+00 -0.61274732567E+03  0.61274732567E+03  0.00000000000E+00 0. -1.
        -13    1    1    2    0    0  0.34998514725E+03  0.28611999001E+03 -0.18051905217E+03  0.48676625945E+03  0.10566000000E+00 0.  1.
         13    1    1    2    0    0  0.14370738132E+03 -0.18835570371E+03  0.44323189453E+02  0.24102746493E+03  0.10566000000E+00 0. -1.
          4    1    1    2  501    0 -0.49369252857E+03 -0.97764286302E+02  0.16957474334E+03  0.53107980758E+03  0.00000000000E+00 0.  1.
</event>
<event>
 5    1  0.4866530E-005  0.3597492E+03  0.7818608E-02  0.9853087E-01
          4   -1    0    0  502    0 -0.00000000000E+00  0.00000000000E+00  0.35655460371E+04  0.35655460371E+04  0.00000000000E+00 0.  1.
         21   -1    0    0  501  502  0.00000000000E+00 -0.00000000000E+00 -0.94948257606E+02  0.94948257606E+02  0.00000000000E+00 0.  1.
        -13    1    1    2    0    0  0.39996056988E+03  0.74154699402E+02  0.23469011137E+04  0.23818925722E+04  0.10566000000E+00 0.  1.
         13    1    1    2    0    0 -0.28164567540E+03 -0.12548791002E+03  0.11062976093E+04  0.11484624128E+04  0.10566000000E+00 0. -1.
          4    1    1    2  501    0 -0.11831489448E+03  0.51333210619E+02  0.17399056487E+02  0.13013930972E+03  0.00000000000E+00 0.  1.
</event>
<event>
 5    1  0.4866530E-005  0.7222135E+02  0.7818608E-02  0.1221017E+00
         21   -1    0    0  501  502  0.00000000000E+00  0.00000000000E+00  0.18988679738E+02  0.18988679738E+02  0.00000000000E+00 0. -1.
          4   -1    0    0  502    0 -0.00000000000E+00 -0.00000000000E+00 -0.62380374883E+03  0.62380374883E+03  0.00000000000E+00 0.  1.
        -13    1    1    2    0    0 -0.11580234321E+02 -0.62468277697E+02 -0.26611245988E+03  0.27359137416E+03  0.10566000000E+00 0.  1.
         13    1    1    2    0    0  0.39199593286E+01  0.84884808915E+02 -0.33452164475E+03  0.34514567770E+03  0.10566000000E+00 0. -1.
          4    1    1    2  501    0  0.76602749924E+01 -0.22416531218E+02 -0.41809644609E+01  0.24055376709E+02  0.00000000000E+00 0.  1.
</event>
<event>
 5    1  0.4866530E-005  0.1779705E+03  0.7818608E-02  0.1147704E+00
         21   -1    0    0  501  502  0.00000000000E+00  0.00000000000E+00  0.52195078029E+03  0.52195078029E+03  0.00000000000E+00 0. -1.
         -4   -1    0    0    0  501 -0.00000000000E+00 -0.00000000000E+00 -0.84471802060E+02  0.84471802060E+02  0.00000000000E+00 0. -1.
        -13    1    1    2    0    0 -0.22875193222E+02  0.13998779699E+02  0.75815378534E+02  0.80419046775E+02  0.10566000000E+00 0.  1.
         13    1    1    2    0    0 -0.35689803110E+01 -0.18643991446E+03  0.10022403831E+03  0.21170131870E+03  0.10566000000E+00 0. -1.
         -4    1    1    2    0  502  0.26444173533E+02  0.17244113476E+03  0.26143956138E+03  0.31430221687E+03  0.00000000000E+00 0. -1.
</event>
<event>
 5    1  0.4866530E-005  0.3870153E+03  0.7818608E-02  0.9840262E-01
         21   -1    0    0  501  502  0.00000000000E+00  0.00000000000E+00  0.17271356366E+03  0.17271356366E+03  0.00000000000E+00 0. -1.
         -4   -1    0    0    0  501 -0.00000000000E+00 -0.00000000000E+00 -0.25880505056E+04  0.25880505056E+04  0.00000000000E+00 0. -1.
        -13    1    1    2    0    0  0.23920933111E+02  0.30080335121E+03 -0.54314453381E+03  0.62133796192E+03  0.10566000000E+00 0.  1.
         13    1    1    2    0    0  0.21494431472E+03  0.26222323629E+03 -0.30098408404E+03  0.45338009891E+03  0.10566000000E+00 0. -1.
         -4    1    1    2    0  502 -0.23886524783E+03 -0.56302658750E+03 -0.15712083241E+04  0.16860460085E+04  0.00000000000E+00 0. -1.
</event>
<event>
 5    1  0.4866530E-005  0.2268990E+03  0.7818608E-02  0.1076122E+00
         21   -1    0    0  501  502  0.00000000000E+00  0.00000000000E+00  0.56551934323E+02  0.56551934323E+02  0.00000000000E+00 0.  1.
          4   -1    0    0  502    0 -0.00000000000E+00 -0.00000000000E+00 -0.20549203729E+04  0.20549203729E+04  0.00000000000E+00 0.  1.
        -13    1    1    2    0    0  0.21282674602E+03 -0.53104734502E+02 -0.12095151327E+04  0.12292445665E+04  0.10566000000E+00 0.  1.
         13    1    1    2    0    0 -0.18944842980E+02 -0.84425790212E+02 -0.37739977661E+02  0.94397765897E+02  0.10566000000E+00 0. -1.
          4    1    1    2  501    0 -0.19388190304E+03  0.13753052471E+03 -0.75111332821E+03  0.78782997491E+03  0.00000000000E+00 0.  1.
</event>
<event>
 5    1  0.4866530E-005  0.3632103E+03  0.7818608E-02  0.9841760E-01
         21   -1    0    0  501  502  0.00000000000E+00  0.00000000000E+00  0.93520200957E+03  0.93520200957E+03  0.00000000000E+00 0.  1.
          4   -1    0    0  502    0 -0.00000000000E+00 -0.00000000000E+00 -0.84000606726E+03  0.84000606726E+03  0.00000000000E+00 0.  1.
        -13    1    1    2    0    0 -0.83382746990E+01  0.62429837659E+03  0.11385849859E+03  0.63465089514E+03  0.10566000000E+00 0.  1.
         13    1    1    2    0    0  0.10542408839E+03 -0.31313886413E+03 -0.47570236753E+03  0.57919162656E+03  0.10566000000E+00 0. -1.
          4    1    1    2  501    0 -0.97085813694E+02 -0.31115951246E+03  0.45703981125E+03  0.56136555513E+03  0.00000000000E+00 0.  1.
</event>
<event>
 5    1  0.4866530E-005  0.4375095E+03  0.7818608E-02  0.9746269E-01
          4   -1    0    0  502    0 -0.00000000000E+00  0.00000000000E+00  0.97861198887E+03  0.97861198887E+03  0.00000000000E+00 0.  1.
         21   -1    0    0  501  502  0.00000000000E+00 -0.00000000000E+00 -0.69886503926E+03  0.69886503926E+03  0.00000000000E+00 0.  1.
        -13    1    1    2    0    0  0.36935351709E+03 -0.48142880086E+02 -0.23138806851E+03  0.43849767034E+03  0.10566000000E+00 0.  1.
         13    1    1    2    0    0  0.24269496261E+03 -0.15509346062E+03  0.51951837530E+03  0.59401530270E+03  0.10566000000E+00 0. -1.
          4    1    1    2  501    0 -0.61204847969E+03  0.20323634070E+03 -0.83833571773E+01  0.64496405508E+03  0.00000000000E+00 0.  1.
</event>
<event>
 5    1  0.4866530E-005  0.4528953E+03  0.7818608E-02  0.9587774E-01
         21   -1    0    0  501  502  0.00000000000E+00  0.00000000000E+00  0.60773999393E+03  0.60773999393E+03  0.00000000000E+00 0. -1.
         -4   -1    0    0    0  501 -0.00000000000E+00 -0.00000000000E+00 -0.10028849413E+04  0.10028849413E+04  0.00000000000E+00 0. -1.
        -13    1    1    2    0    0 -0.33152161307E+03 -0.30828783872E+03 -0.12545387287E+03  0.46977298434E+03  0.10566000000E+00 0.  1.
         13    1    1    2    0    0  0.44967725289E+03 -0.17839924881E+03 -0.39504621035E+03  0.62457781198E+03  0.10566000000E+00 0. -1.
         -4    1    1    2    0  502 -0.11815563982E+03  0.48668708753E+03  0.12535513588E+03  0.51627413888E+03  0.00000000000E+00 0. -1.
</event>
<event>
 5    1  0.4866530E-005  0.2282604E+03  0.7818608E-02  0.1042318E+00
         21   -1    0    0  501  502  0.00000000000E+00  0.00000000000E+00  0.85336328036E+02  0.85336328036E+02  0.00000000000E+00 0. -1.
         -4   -1    0    0    0  501 -0.00000000000E+00 -0.00000000000E+00 -0.19221582830E+04  0.19221582830E+04  0.00000000000E+00 0. -1.
        -13    1    1    2    0    0 -0.15416099707E+03 -0.12800352607E+03 -0.66699914935E+03  0.69644697723E+03  0.10566000000E+00 0.  1.
         13    1    1    2    0    0  0.22498088132E+03  0.12162560252E+03 -0.12049112192E+04  0.12317549438E+04  0.10566000000E+00 0. -1.
         -4    1    1    2    0  502 -0.70819884250E+02  0.63779235443E+01  0.35088413642E+02  0.79292689989E+02  0.00000000000E+00 0. -1.
</event>
<event>
 5    1  0.4866530E-005  0.3067236E+03  0.7818608E-02  0.1004568E+00
         21   -1    0    0  501  502  0.00000000000E+00  0.00000000000E+00  0.41877870538E+03  0.41877870538E+03  0.00000000000E+00 0.  1.
          4   -1    0    0  502    0 -0.00000000000E+00 -0.00000000000E+00 -0.10926191797E+04  0.10926191797E+04  0.00000000000E+00 0.  1.
        -13    1    1    2    0    0 -0.12373211774E+03 -0.47835517677E+03  0.13850899875E+03  0.51314526793E+03  0.10566000000E+00 0.  1.
         13    1    1    2    0    0 -0.19558639344E+02  0.27092088480E+03 -0.20390584347E+03  0.33964432920E+03  0.10566000000E+00 0. -1.
          4    1    1    2  501    0  0.14329075708E+03  0.20743429197E+03 -0.60844362963E+03  0.65860828797E+03  0.00000000000E+00 0.  1.
</event>
<event>
 5    1  0.4866530E-005  0.1465895E+03  0.7818608E-02  0.1104525E+00
         -4   -1    0    0    0  501 -0.00000000000E+00  0.00000000000E+00  0.18548509666E+03  0.18548509666E+03  0.00000000000E+00 0. -1.
         21   -1    0    0  501  502  0.00000000000E+00 -0.00000000000E+00 -0.17726101472E+03  0.17726101472E+03  0.00000000000E+00 0.  1.
        -13    1    1    2    0    0  0.22545364791E+02  0.13437873299E+03 -0.75585046936E+02  0.15581735409E+03  0.10566000000E+00 0.  1.
         13    1    1    2    0    0 -0.27679466556E+02 -0.14753694362E+03  0.10376206556E+03  0.18248254715E+03  0.10566000000E+00 0. -1.
         -4    1    1    2    0  502  0.51341017647E+01  0.13158210633E+02 -0.19952936682E+02  0.24446210140E+02  0.00000000000E+00 0. -1.
</event>
<event>
 5    1  0.6050010E-005  0.4279089E+03  0.7818608E-02  0.9932060E-01
         21   -1    0    0  501  502  0.00000000000E+00  0.00000000000E+00  0.18487545555E+03  0.18487545555E+03  0.00000000000E+00 0. -1.
         -4   -1    0    0    0  501 -0.00000000000E+00 -0.00000000000E+00 -0.19328240444E+04  0.19328240444E+04  0.00000000000E+00 0. -1.
        -13    1    1    2    0    0 -0.12164320032E+03  0.11010087659E+03 -0.37634054339E+03  0.41055022467E+03  0.10566000000E+00 0.  1.
         13    1    1    2    0    0 -0.29586947311E+03 -0.26331996574E+03 -0.11376508355E+04  0.12046267406E+04  0.10566000000E+00 0. -1.
         -4    1    1    2    0  502  0.41751267343E+03  0.15321908916E+03 -0.23395720990E+03  0.50252253464E+03  0.00000000000E+00 0. -1.
</event>
<event>
 5    1  0.5608617E-005  0.4802149E+03  0.7818608E-02  0.9522424E-01
         21   -1    0    0  501  502  0.00000000000E+00  0.00000000000E+00  0.92968248810E+03  0.92968248810E+03  0.00000000000E+00 0.  1.
         -4   -1    0    0    0  501 -0.00000000000E+00 -0.00000000000E+00 -0.10646762507E+04  0.10646762507E+04  0.00000000000E+00 0. -1.
        -13    1    1    2    0    0  0.42150638535E+03  0.59077894432E+03  0.10316182815E+03  0.73302780841E+03  0.10566000000E+00 0.  1.
         13    1    1    2    0    0 -0.32292225035E+03 -0.30052900904E+03 -0.62672437026E+03  0.76640714538E+03  0.10566000000E+00 0. -1.
         -4    1    1    2    0  502 -0.98584135007E+02 -0.29024993528E+03  0.38856877949E+03  0.49492378504E+03  0.00000000000E+00 0. -1.
</event>
<event>
 5    1  0.4866530E-005  0.1737636E+03  0.7818608E-02  0.1079780E+00
         -4   -1    0    0    0  501 -0.00000000000E+00  0.00000000000E+00  0.74161957767E+03  0.74161957767E+03  0.00000000000E+00 0. -1.
         21   -1    0    0  501  502  0.00000000000E+00 -0.00000000000E+00 -0.63041588546E+02  0.63041588546E+02  0.00000000000E+00 0.  1.
        -13    1    1    2    0    0  0.16982858948E+03 -0.18236324646E+02  0.22391399752E+03  0.28162351250E+03  0.10566000000E+00 0.  1.
         13    1    1    2    0    0 -0.17075465814E+03  0.42662066054E+02  0.46447157259E+03  0.49670016918E+03  0.10566000000E+00 0. -1.
         -4    1    1    2    0  502  0.92606866114E+00 -0.24425741408E+02 -0.98075809901E+01  0.26337484530E+02  0.00000000000E+00 0. -1.
</event>
<event>
 5    1  0.4866530E-005  0.4507096E+03  0.7818608E-02  0.9654935E-01
         21   -1    0    0  501  502  0.00000000000E+00  0.00000000000E+00  0.34318342261E+03  0.34318342261E+03  0.00000000000E+00 0. -1.
          4   -1    0    0  502    0 -0.00000000000E+00 -0.00000000000E+00 -0.13745743807E+04  0.13745743807E+04  0.00000000000E+00 0.  1.
        -13    1    1    2    0    0  0.23391415497E+03  0.47690982778E+03 -0.54687423337E+03  0.76238458406E+03  0.10566000000E+00 0.  1.
         13    1    1    2    0    0 -0.35984940011E+03 -0.40354043976E+02 -0.27681749853E+03  0.45579378921E+03  0.10566000000E+00 0. -1.
          4    1    1    2  501    0  0.12593524514E+03 -0.43655578380E+03 -0.20769922618E+03  0.49957943002E+03  0.00000000000E+00 0.  1.
</event>
<event>
 5    1  0.4866530E-005  0.7488648E+02  0.7818608E-02  0.1214461E+00
          4   -1    0    0  502    0 -0.00000000000E+00  0.00000000000E+00  0.22758501181E+03  0.22758501181E+03  0.00000000000E+00 0.  1.
         21   -1    0    0  501  502  0.00000000000E+00 -0.00000000000E+00 -0.94866112043E+02  0.94866112043E+02  0.00000000000E+00 0.  1.
        -13    1    1    2    0    0 -0.57819355048E+02  0.37996630846E+02  0.12267239972E+03  0.14083802963E+03  0.10566000000E+00 0.  1.
         13    1    1    2    0    0  0.68114207242E+02 -0.55948463945E+02  0.73563353612E+02  0.11481007798E+03  0.10566000000E+00 0. -1.
          4    1    1    2  501    0 -0.10294852194E+02  0.17951833099E+02 -0.63516853563E+02  0.66803016248E+02  0.00000000000E+00 0.  1.
</event>
<event>
 5    1  0.4866530E-005  0.9547255E+02  0.7818608E-02  0.1172272E+00
         21   -1    0    0  501  502  0.00000000000E+00  0.00000000000E+00  0.24847391217E+03  0.24847391217E+03  0.00000000000E+00 0.  1.
         -4   -1    0    0    0  501 -0.00000000000E+00 -0.00000000000E+00 -0.20384579118E+03  0.20384579118E+03  0.00000000000E+00 0. -1.
        -13    1    1    2    0    0 -0.82315894004E+02  0.58401571110E+02  0.17838386830E+03  0.20495722858E+03  0.10566000000E+00 0.  1.
         13    1    1    2    0    0  0.82289026684E+02 -0.47785639286E+02 -0.17801267012E+03  0.20185012539E+03  0.10566000000E+00 0. -1.
         -4    1    1    2    0  502  0.26867319739E-01 -0.10615931824E+02  0.44256922802E+02  0.45512349382E+02  0.00000000000E+00 0. -1.
</event>
<event>
 5    1  0.4866530E-005  0.2711219E+03  0.7818608E-02  0.1034414E+00
         21   -1    0    0  501  502  0.00000000000E+00  0.00000000000E+00  0.42761079287E+03  0.42761079287E+03  0.00000000000E+00 0.  1.
          4   -1    0    0  502    0 -0.00000000000E+00 -0.00000000000E+00 -0.42659375411E+03  0.42659375411E+03  0.00000000000E+00 0.  1.
        -13    1    1    2    0    0  0.21504588348E+03 -0.20838320998E+03  0.25184254767E+03  0.39127097284E+03  0.10566000000E+00 0.  1.
         13    1    1    2    0    0 -0.72568647235E+01  0.17305062050E+03 -0.76212991012E+02  0.18922898959E+03  0.10566000000E+00 0. -1.
          4    1    1    2  501    0 -0.20778901876E+03  0.35332589486E+02 -0.17461251789E+03  0.27370458455E+03  0.00000000000E+00 0.  1.
</event>
<event>
 5    1  0.4866530E-005  0.3680983E+03  0.7818608E-02  0.9825991E-01
         21   -1    0    0  501  502  0.00000000000E+00  0.00000000000E+00  0.12587357531E+04  0.12587357531E+04  0.00000000000E+00 0.  1.
         -4   -1    0    0    0  501 -0.00000000000E+00 -0.00000000000E+00 -0.54976102429E+03  0.54976102429E+03  0.00000000000E+00 0. -1.
        -13    1    1    2    0    0 -0.38665559415E+03 -0.29270352354E+03  0.81508499785E+03  0.94844159866E+03  0.10566000000E+00 0.  1.
         13    1    1    2    0    0  0.25052637042E+03  0.25759631098E+03 -0.39791647693E+03  0.53615003076E+03  0.10566000000E+00 0. -1.
         -4    1    1    2    0  502  0.13612922373E+03  0.35107212558E+02  0.29180620790E+03  0.32390514799E+03  0.00000000000E+00 0. -1.
</event>
<event>
 5    1  0.4866530E-005  0.2732401E+03  0.7818608E-02  0.1030147E+00
         21   -1    0    0  501  502  0.00000000000E+00  0.00000000000E+00  0.32057687155E+03  0.32057687155E+03  0.00000000000E+00 0.  1.
          4   -1    0    0  502    0 -0.00000000000E+00 -0.00000000000E+00 -0.11553931793E+04  0.11553931793E+04  0.00000000000E+00 0.  1.
        -13    1    1    2    0    0 -0.91482349627E+02  0.24562970122E+03  0.15050846441E+03  0.30225118600E+03  0.10566000000E+00 0.  1.
         13    1    1    2    0    0 -0.17633118746E+03  0.78307750540E+02 -0.17319235700E+03  0.25926896296E+03  0.10566000000E+00 0. -1.
          4    1    1    2  501    0  0.26781353709E+03 -0.32393745176E+03 -0.81213241512E+03  0.91444990185E+03  0.00000000000E+00 0.  1.
</event>
<event>
 5    1  0.4866530E-005  0.4818949E+03  0.7818608E-02  0.1016790E+00
          4   -1    0    0  502    0 -0.00000000000E+00  0.00000000000E+00  0.85283933142E+03  0.85283933142E+03  0.00000000000E+00 0.  1.
         21   -1    0    0  501  502  0.00000000000E+00 -0.00000000000E+00 -0.33317912021E+03  0.33317912021E+03  0.00000000000E+00 0.  1.
        -13    1    1    2    0    0  0.38290910204E+03 -0.24318293498E+03  0.26294161218E+03  0.52430489495E+03  0.10566000000E+00 0.  1.
         13    1    1    2    0    0  0.35634395970E+02 -0.39811676994E+02  0.13040431029E+03  0.14092577872E+03  0.10566000000E+00 0. -1.
          4    1    1    2  501    0 -0.41854349801E+03  0.28299461197E+03  0.12631428874E+03  0.52078777796E+03  0.00000000000E+00 0.  1.
</event>
<event>
 5    1  0.4866530E-005  0.5918692E+03  0.7818608E-02  0.9296593E-01
         21   -1    0    0  501  502  0.00000000000E+00  0.00000000000E+00  0.17717052713E+03  0.17717052713E+03  0.00000000000E+00 0. -1.
          4   -1    0    0  502    0 -0.00000000000E+00 -0.00000000000E+00 -0.21734242866E+04  0.21734242866E+04  0.00000000000E+00 0.  1.
        -13    1    1    2    0    0 -0.35874363261E+03  0.46092107821E+03 -0.77821024137E+03  0.97301409302E+03  0.10566000000E+00 0.  1.
         13    1    1    2    0    0  0.37784359724E+03 -0.46282812574E+03 -0.12198395409E+04  0.13583019454E+04  0.10566000000E+00 0. -1.
          4    1    1    2  501    0 -0.19099964636E+02  0.19070475318E+01  0.17960228808E+01  0.19278775313E+02  0.00000000000E+00 0.  1.
</event>
<event>
 5    1  0.6591156E-005  0.1249147E+04  0.7818608E-02  0.8570445E-01
         21   -1    0    0  501  502  0.00000000000E+00  0.00000000000E+00  0.90788046972E+03  0.90788046972E+03  0.00000000000E+00 0.  1.
         -4   -1    0    0    0  501 -0.00000000000E+00 -0.00000000000E+00 -0.36444947400E+04  0.36444947400E+04  0.00000000000E+00 0. -1.
        -13    1    1    2    0    0 -0.73874016759E+02 -0.16061821203E+04 -0.18758673225E+04  0.24706591421E+04  0.10566000000E+00 0.  1.
         13    1    1    2    0    0  0.20149066538E+03  0.98556420744E+03 -0.10155963731E+04  0.14294653894E+04  0.10566000000E+00 0. -1.
         -4    1    1    2    0  502 -0.12761664862E+03  0.62061791282E+03  0.15484942531E+03  0.65225067822E+03  0.00000000000E+00 0. -1.
</event>
<event>
 5    1  0.4866530E-005  0.4917513E+03  0.7818608E-02  0.9496237E-01
          4   -1    0    0  502    0 -0.00000000000E+00  0.00000000000E+00  0.27321366424E+04  0.27321366424E+04  0.00000000000E+00 0.  1.
         21   -1    0    0  501  502  0.00000000000E+00 -0.00000000000E+00 -0.20410307051E+03  0.20410307051E+03  0.00000000000E+00 0. -1.
        -13    1    1    2    0    0 -0.29998678512E+03 -0.52653913060E+03  0.16217221284E+04  0.17312475849E+04  0.10566000000E+00 0.  1.
         13    1    1    2    0    0 -0.32900094328E+02  0.41054498216E+03  0.64860606554E+03  0.76832248308E+03  0.10566000000E+00 0. -1.
          4    1    1    2  501    0  0.33288687945E+03  0.11599414843E+03  0.25770537792E+03  0.43666964492E+03  0.00000000000E+00 0.  1.
</event>
<event>
 5    1  0.4866530E-005  0.4827125E+03  0.7818608E-02  0.9622823E-01
          4   -1    0    0  502    0 -0.00000000000E+00  0.00000000000E+00  0.31684528218E+04  0.31684528218E+04  0.00000000000E+00 0.  1.
         21   -1    0    0  501  502  0.00000000000E+00 -0.00000000000E+00 -0.18630201808E+03  0.18630201808E+03  0.00000000000E+00 0.  1.
        -13    1    1    2    0    0 -0.33272512898E+03  0.28294409793E+03  0.51609752226E+03  0.67610652833E+03  0.10566000000E+00 0.  1.
         13    1    1    2    0    0 -0.27507643727E+03 -0.18250198018E+03  0.14769014396E+04  0.15133446047E+04  0.10566000000E+00 0. -1.
          4    1    1    2  501    0  0.60780156626E+03 -0.10044211775E+03  0.98915184191E+03  0.11653037069E+04  0.00000000000E+00 0.  1.
</event>
<event>
 5    1  0.4866530E-005  0.4891097E+03  0.7818608E-02  0.9741542E-01
          4   -1    0    0  502    0 -0.00000000000E+00  0.00000000000E+00  0.18008428125E+04  0.18008428125E+04  0.00000000000E+00 0.  1.
         21   -1    0    0  501  502  0.00000000000E+00 -0.00000000000E+00 -0.20989364338E+03  0.20989364338E+03  0.00000000000E+00 0.  1.
        -13    1    1    2    0    0 -0.45261023812E+03  0.33680803607E+03  0.77738184518E+03  0.96053017922E+03  0.10566000000E+00 0.  1.
         13    1    1    2    0    0  0.31596392798E+02 -0.20713719099E+03  0.16756782103E+03  0.26829672704E+03  0.10566000000E+00 0. -1.
          4    1    1    2  501    0  0.42101384532E+03 -0.12967084508E+03  0.64599950286E+03  0.78190954957E+03  0.00000000000E+00 0.  1.
</event>
<event>
 5    1  0.4866530E-005  0.2618379E+03  0.7818608E-02  0.1024435E+00
         21   -1    0    0  501  502  0.00000000000E+00  0.00000000000E+00  0.82532678604E+03  0.82532678604E+03  0.00000000000E+00 0. -1.
          4   -1    0    0  502    0 -0.00000000000E+00 -0.00000000000E+00 -0.64374471272E+03  0.64374471272E+03  0.00000000000E+00 0.  1.
        -13    1    1    2    0    0  0.11025475182E+03  0.23924078533E+03 -0.30874007806E+03  0.40584813740E+03  0.10566000000E+00 0.  1.
         13    1    1    2    0    0 -0.40005395096E+02 -0.26261894017E+03 -0.22252908954E+03  0.34653765485E+03  0.10566000000E+00 0. -1.
          4    1    1    2  501    0 -0.70249356720E+02  0.23378154839E+02  0.71285124092E+03  0.71668570652E+03  0.00000000000E+00 0.  1.
</event>
<event>
 5    1  0.4866530E-005  0.4788214E+03  0.7818608E-02  0.9525639E-01
          4   -1    0    0  502    0 -0.00000000000E+00  0.00000000000E+00  0.53697009761E+03  0.53697009761E+03  0.00000000000E+00 0.  1.
         21   -1    0    0  501  502  0.00000000000E+00 -0.00000000000E+00 -0.11998497339E+04  0.11998497339E+04  0.00000000000E+00 0.  1.
        -13    1    1    2    0    0  0.56723045442E+03  0.33854115271E+03 -0.18193048393E+03  0.68517093680E+03  0.10566000000E+00 0.  1.
         13    1    1    2    0    0 -0.37073008308E+03 -0.17743867829E+03  0.95260041253E+02  0.42190018450E+03  0.10566000000E+00 0. -1.
          4    1    1    2  501    0 -0.19650037133E+03 -0.16110247442E+03 -0.57620919357E+03  0.62974871017E+03  0.00000000000E+00 0.  1.
</event>
<event>
 5    1  0.4866530E-005  0.5127690E+03  0.7818608E-02  0.9461996E-01
         21   -1    0    0  501  502  0.00000000000E+00  0.00000000000E+00  0.38194547315E+03  0.38194547315E+03  0.00000000000E+00 0. -1.
          4   -1    0    0  502    0 -0.00000000000E+00 -0.00000000000E+00 -0.18411191104E+04  0.18411191104E+04  0.00000000000E+00 0.  1.
        -13    1    1    2    0    0  0.59874010121E+02 -0.36255803661E+03 -0.63722052039E+03  0.73558359808E+03  0.10566000000E+00 0.  1.
         13    1    1    2    0    0 -0.47673502378E+03 -0.21693241319E+03 -0.30497162543E+03  0.60608882045E+03  0.10566000000E+00 0. -1.
          4    1    1    2  501    0  0.41686101365E+03  0.57949044980E+03 -0.51698149146E+03  0.88139216506E+03  0.00000000000E+00 0.  1.
</event>
<event>
 5    1  0.4866530E-005  0.4742352E+03  0.7818608E-02  0.9661377E-01
         21   -1    0    0  501  502  0.00000000000E+00  0.00000000000E+00  0.15618437327E+04  0.15618437327E+04  0.00000000000E+00 0.  1.
          4   -1    0    0  502    0 -0.00000000000E+00 -0.00000000000E+00 -0.45933262108E+03  0.45933262108E+03  0.00000000000E+00 0.  1.
        -13    1    1    2    0    0 -0.28329531824E+03  0.54504508347E+02  0.56349137651E+02  0.29394253731E+03  0.10566000000E+00 0.  1.
         13    1    1    2    0    0 -0.29375130086E+03 -0.77834646332E+02 -0.19307350417E+03  0.36003534285E+03  0.10566000000E+00 0. -1.
          4    1    1    2  501    0  0.57704661910E+03  0.23330137985E+02  0.12392354781E+04  0.13671984736E+04  0.00000000000E+00 0.  1.
</event>
<event>
 5    1  0.4866530E-005  0.3046433E+03  0.7818608E-02  0.1005407E+00
          4   -1    0    0  502    0 -0.00000000000E+00  0.00000000000E+00  0.68255279030E+02  0.68255279030E+02  0.00000000000E+00 0.  1.
         21   -1    0    0  501  502  0.00000000000E+00 -0.00000000000E+00 -0.19055279798E+04  0.19055279798E+04  0.00000000000E+00 0. -1.
        -13    1    1    2    0    0  0.23842475566E+03 -0.18188836016E+03 -0.76845017088E+03  0.82489115401E+03  0.10566000000E+00 0.  1.
         13    1    1    2    0    0 -0.23975618691E+03  0.19373230987E+03 -0.55438824993E+03  0.63431977730E+03  0.10566000000E+00 0. -1.
          4    1    1    2  501    0  0.13314312547E+01 -0.11843949710E+02 -0.51443427999E+03  0.51457232755E+03  0.00000000000E+00 0.  1.
</event>
<event>
 5    1  0.4866530E-005  0.4607188E+03  0.7818608E-02  0.9896848E-01
         21   -1    0    0  501  502  0.00000000000E+00  0.00000000000E+00  0.13249637706E+03  0.13249637706E+03  0.00000000000E+00 0.  1.
          4   -1    0    0  502    0 -0.00000000000E+00 -0.00000000000E+00 -0.27708043478E+04  0.27708043478E+04  0.00000000000E+00 0.  1.
        -13    1    1    2    0    0 -0.48998924546E+03  0.23812039772E+03 -0.12046527608E+04  0.13221115950E+04  0.10566000000E+00 0.  1.
         13    1    1    2    0    0  0.87718934229E+02 -0.11900197628E+03 -0.84788600070E+03  0.86067808333E+03  0.10566000000E+00 0. -1.
          4    1    1    2  501    0  0.40227031123E+03 -0.11911842144E+03 -0.58576920925E+03  0.72051104650E+03  0.00000000000E+00 0.  1.
</event>
<event>
 5    1  0.4866530E-005  0.1690859E+03  0.7818608E-02  0.1083676E+00
          4   -1    0    0  502    0 -0.00000000000E+00  0.00000000000E+00  0.45659516199E+03  0.45659516199E+03  0.00000000000E+00 0.  1.
         21   -1    0    0  501  502  0.00000000000E+00 -0.00000000000E+00 -0.14992545964E+03  0.14992545964E+03  0.00000000000E+00 0. -1.
        -13    1    1    2    0    0 -0.17623320759E+03  0.25375838282E+02  0.31183305158E+03  0.35908486441E+03  0.10566000000E+00 0.  1.
         13    1    1    2    0    0  0.11857726758E+03 -0.55077242629E+02 -0.76132517310E+02  0.15129521604E+03  0.10566000000E+00 0. -1.
          4    1    1    2  501    0  0.57655940016E+02  0.29701404347E+02  0.70969168078E+02  0.96140541173E+02  0.00000000000E+00 0.  1.
</event>
<event>
 5    1  0.4866530E-005  0.3239014E+03  0.7818608E-02  0.1044423E+00
         21   -1    0    0  501  502  0.00000000000E+00  0.00000000000E+00  0.52780250785E+03  0.52780250785E+03  0.00000000000E+00 0. -1.
         -4   -1    0    0    0  501 -0.00000000000E+00 -0.00000000000E+00 -0.49200480562E+03  0.49200480562E+03  0.00000000000E+00 0. -1.
        -13    1    1    2    0    0 -0.74697849587E+02 -0.65190716188E+01  0.82255297973E+01  0.75431674594E+02  0.10566000000E+00 0.  1.
         13    1    1    2    0    0  0.33137583956E+03 -0.41487546117E+02  0.37990497767E+03  0.50582503571E+03  0.10566000000E+00 0. -1.
         -4    1    1    2    0  502 -0.25667798997E+03  0.48006617736E+02 -0.35233280524E+03  0.43855060316E+03  0.00000000000E+00 0. -1.
</event>
<event>
 5    1  0.4866530E-005  0.2882495E+03  0.7818608E-02  0.1012277E+00
         -4   -1    0    0    0  501 -0.00000000000E+00  0.00000000000E+00  0.14851359272E+04  0.14851359272E+04  0.00000000000E+00 0. -1.
         21   -1    0    0  501  502  0.00000000000E+00 -0.00000000000E+00 -0.74247164519E+02  0.74247164519E+02  0.00000000000E+00 0.  1.
        -13    1    1    2    0    0 -0.61028395033E+01 -0.29069446859E+03  0.99505953036E+03  0.10366696672E+04  0.10566000000E+00 0.  1.
         13    1    1    2    0    0 -0.13572172231E+01  0.28313015186E+03  0.42362791491E+03  0.50953424457E+03  0.10566000000E+00 0. -1.
         -4    1    1    2    0  502  0.74600567265E+01  0.75643167211E+01 -0.77986826103E+01  0.13179179955E+02  0.00000000000E+00 0. -1.
</event>
<event>
 5    1  0.4866530E-005  0.2748607E+03  0.7818608E-02  0.1018258E+00
         -4   -1    0    0    0  501 -0.00000000000E+00  0.00000000000E+00  0.19727428841E+04  0.19727428841E+04  0.00000000000E+00 0. -1.
         21   -1    0    0  501  502  0.00000000000E+00 -0.00000000000E+00 -0.23735648824E+03  0.23735648824E+03  0.00000000000E+00 0. -1.
        -13    1    1    2    0    0 -0.33005768563E+02  0.30133839343E+03  0.54344208654E+03  0.62227286676E+03  0.10566000000E+00 0.  1.
         13    1    1    2    0    0  0.18685131081E+03 -0.11164322308E+03 -0.12325662593E+03  0.25013961823E+03  0.10566000000E+00 0. -1.
         -4    1    1    2    0  502 -0.15384554224E+03 -0.18969517035E+03  0.13152009352E+04  0.13376868873E+04  0.00000000000E+00 0. -1.
</event>
<event>
 5    1  0.4866530E-005  0.3325106E+03  0.7818608E-02  0.1014588E+00
          4   -1    0    0  502    0 -0.00000000000E+00  0.00000000000E+00  0.61530718023E+03  0.61530718023E+03  0.00000000000E+00 0.  1.
         21   -1    0    0  501  502  0.00000000000E+00 -0.00000000000E+00 -0.58612061390E+03  0.58612061390E+03  0.00000000000E+00 0.  1.
        -13    1    1    2    0    0  0.40574081640E+03 -0.24998877745E+03  0.29202908711E+03  0.55892843712E+03  0.10566000000E+00 0.  1.
         13    1    1    2    0    0 -0.16768261074E+03  0.48037753315E+02  0.68374445304E+02  0.18735036595E+03  0.10566000000E+00 0. -1.
          4    1    1    2  501    0 -0.23805820567E+03  0.20195102413E+03 -0.33121696608E+03  0.45514899105E+03  0.00000000000E+00 0.  1.
</event>
<event>
 5    1  0.4866530E-005  0.2181249E+02  0.7818608E-02  0.1486101E+00
          4   -1    0    0  502    0 -0.00000000000E+00  0.00000000000E+00  0.28961534841E+02  0.28961534841E+02  0.00000000000E+00 0.  1.
         21   -1    0    0  501  502  0.00000000000E+00 -0.00000000000E+00 -0.29808328899E+02  0.29808328899E+02  0.00000000000E+00 0.  1.
        -13    1    1    2    0    0 -0.10296376966E+02  0.20580995516E+02 -0.48996264026E+01  0.23528923859E+02  0.10566000000E+00 0.  1.
         13    1    1    2    0    0 -0.55452920797E+00 -0.22101848405E+02  0.81206453540E+01  0.23553242889E+02  0.10566000000E+00 0. -1.
          4    1    1    2  501    0  0.10850906174E+02  0.15208528897E+01 -0.40678130095E+01  0.11687696992E+02  0.00000000000E+00 0.  1.
</event>
<event>
 5    1  0.4866530E-005  0.1735468E+03  0.7818608E-02  0.1079958E+00
          4   -1    0    0  502    0 -0.00000000000E+00  0.00000000000E+00  0.95440410873E+03  0.95440410873E+03  0.00000000000E+00 0.  1.
         21   -1    0    0  501  502  0.00000000000E+00 -0.00000000000E+00 -0.75921705648E+02  0.75921705648E+02  0.00000000000E+00 0. -1.
        -13    1    1    2    0    0  0.78648574212E+02  0.14904335014E+03  0.69210459682E+03  0.71232598054E+03  0.10566000000E+00 0.  1.
         13    1    1    2    0    0 -0.10459452175E+03 -0.16225053252E+03  0.20644581899E+03  0.28263958786E+03  0.10566000000E+00 0. -1.
          4    1    1    2  501    0  0.25945947540E+02  0.13207182376E+02 -0.20068012738E+02  0.35360245973E+02  0.00000000000E+00 0.  1.
</event>
<event>
 5    1  0.4866530E-005  0.3582092E+03  0.7818608E-02  0.9858170E-01
         21   -1    0    0  501  502  0.00000000000E+00  0.00000000000E+00  0.94628234089E+02  0.94628234089E+02  0.00000000000E+00 0.  1.
         -4   -1    0    0    0  501 -0.00000000000E+00 -0.00000000000E+00 -0.20713296725E+04  0.20713296725E+04  0.00000000000E+00 0. -1.
        -13    1    1    2    0    0 -0.73545867249E+02  0.33111266577E+03 -0.11677249562E+04  0.12159877370E+04  0.10566000000E+00 0.  1.
         13    1    1    2    0    0  0.60450849006E+02 -0.39073856378E+03 -0.79417345841E+03  0.88715411490E+03  0.10566000000E+00 0. -1.
         -4    1    1    2    0  502  0.13095018242E+02  0.59625898016E+02 -0.14803023829E+02  0.62816054727E+02  0.00000000000E+00 0. -1.
</event>
<event>
 5    1  0.4866530E-005  0.5844829E+03  0.7818608E-02  0.9309856E-01
         21   -1    0    0  501  502  0.00000000000E+00  0.00000000000E+00  0.15860744398E+03  0.15860744398E+03  0.00000000000E+00 0.  1.
          4   -1    0    0  502    0 -0.00000000000E+00 -0.00000000000E+00 -0.37974779858E+04  0.37974779858E+04  0.00000000000E+00 0.  1.
        -13    1    1    2    0    0 -0.30453130843E+03 -0.65291151702E+03 -0.23124386897E+04  0.24220663640E+04  0.10566000000E+00 0.  1.
         13    1    1    2    0    0  0.19143348607E+03  0.35077791431E+03 -0.45924046052E+03  0.60876410579E+03  0.10566000000E+00 0. -1.
          4    1    1    2  501    0  0.11309782236E+03  0.30213360271E+03 -0.86719139157E+03  0.92525495996E+03  0.00000000000E+00 0.  1.
</event>
<event>
 5    1  0.4866530E-005  0.6785208E+03  0.7818608E-02  0.9154733E-01
         21   -1    0    0  501  502  0.00000000000E+00  0.00000000000E+00  0.46759782419E+03  0.46759782419E+03  0.00000000000E+00 0.  1.
         -4   -1    0    0    0  501 -0.00000000000E+00 -0.00000000000E+00 -0.12843169882E+04  0.12843169882E+04  0.00000000000E+00 0. -1.
        -13    1    1    2    0    0  0.17023945194E+03 -0.65645756805E+03 -0.78931643199E+03  0.10406432869E+04  0.10566000000E+00 0.  1.
         13    1    1    2    0    0 -0.20024509671E+03  0.64976948500E+03 -0.28333621946E+02  0.68051545734E+03  0.10566000000E+00 0. -1.
         -4    1    1    2    0  502  0.30005644770E+02  0.66880830558E+01  0.93088988377E+00  0.30756068165E+02  0.00000000000E+00 0. -1.
</event>
<event>
 5    1  0.4866530E-005  0.3885634E+03  0.7818608E-02  0.9762668E-01
         21   -1    0    0  501  502  0.00000000000E+00  0.00000000000E+00  0.88840314712E+03  0.88840314712E+03  0.00000000000E+00 0. -1.
         -4   -1    0    0    0  501 -0.00000000000E+00 -0.00000000000E+00 -0.49782006600E+03  0.49782006600E+03  0.00000000000E+00 0. -1.
        -13    1    1    2    0    0 -0.26102410695E+03  0.16264788668E+03  0.63375915158E+02  0.31401343480E+03  0.10566000000E+00 0.  1.
         13    1    1    2    0    0  0.48926054807E+03 -0.16636840302E+02 -0.15975068449E+03  0.51494947394E+03  0.10566000000E+00 0. -1.
         -4    1    1    2    0  502 -0.22823644113E+03 -0.14601104638E+03  0.48695785044E+03  0.55726030437E+03  0.00000000000E+00 0. -1.
</event>
<event>
 5    1  0.4866530E-005  0.2900880E+03  0.7818608E-02  0.1033069E+00
         21   -1    0    0  501  502  0.00000000000E+00  0.00000000000E+00  0.87165883075E+03  0.87165883075E+03  0.00000000000E+00 0.  1.
          4   -1    0    0  502    0 -0.00000000000E+00 -0.00000000000E+00 -0.40307585819E+03  0.40307585819E+03  0.00000000000E+00 0.  1.
        -13    1    1    2    0    0 -0.19536256986E+03  0.22686492590E+03  0.73704064935E+03  0.79552696891E+03  0.10566000000E+00 0.  1.
         13    1    1    2    0    0 -0.14277969241E+02 -0.14666384814E+03 -0.27497966816E+02  0.14990094763E+03  0.10566000000E+00 0. -1.
          4    1    1    2  501    0  0.20964053910E+03 -0.80201077756E+02 -0.24095970998E+03  0.32930677239E+03  0.00000000000E+00 0.  1.
</event>
<event>
 5    1  0.4866530E-005  0.4822865E+03  0.7818608E-02  0.9684788E-01
         21   -1    0    0  501  502  0.00000000000E+00  0.00000000000E+00  0.37257626389E+03  0.37257626389E+03  0.00000000000E+00 0. -1.
         -4   -1    0    0    0  501 -0.00000000000E+00 -0.00000000000E+00 -0.13694674846E+04  0.13694674846E+04  0.00000000000E+00 0. -1.
        -13    1    1    2    0    0  0.12143829454E+02  0.26590110575E+03 -0.56709377772E+03  0.62645529332E+03  0.10566000000E+00 0.  1.
         13    1    1    2    0    0 -0.38236727226E+03 -0.46880184147E+03 -0.28988753304E+03  0.67083134277E+03  0.10566000000E+00 0. -1.
         -4    1    1    2    0  502  0.37022344280E+03  0.20290073572E+03 -0.13990991000E+03  0.44475711245E+03  0.00000000000E+00 0. -1.
</event>
<event>
 5    1  0.7510157E-005  0.2805192E+03  0.7818608E-02  0.1049930E+00
         21   -1    0    0  501  502  0.00000000000E+00  0.00000000000E+00  0.27325458631E+04  0.27325458631E+04  0.00000000000E+00 0. -1.
         -4   -1    0    0    0  501 -0.00000000000E+00 -0.00000000000E+00 -0.13195703359E+03  0.13195703359E+03  0.00000000000E+00 0. -1.
        -13    1    1    2    0    0  0.86711957835E+02 -0.45459502200E+02  0.26442344278E+02  0.10141370078E+03  0.10566000000E+00 0.  1.
         13    1    1    2    0    0 -0.30652889664E+03  0.20594524267E+03  0.30860841113E+03  0.48126143627E+03  0.10566000000E+00 0. -1.
         -4    1    1    2    0  502  0.21981693880E+03 -0.16048574047E+03  0.22655380741E+04  0.22818277597E+04  0.00000000000E+00 0. -1.
</event>
<event>
 5    1  0.4866530E-005  0.6100090E+03  0.7818608E-02  0.9264867E-01
          4   -1    0    0  502    0 -0.00000000000E+00  0.00000000000E+00  0.18155275962E+04  0.18155275962E+04  0.00000000000E+00 0.  1.
         21   -1    0    0  501  502  0.00000000000E+00 -0.00000000000E+00 -0.48929197178E+03  0.48929197178E+03  0.00000000000E+00 0. -1.
        -13    1    1    2    0    0  0.39679205420E+03 -0.43926663896E+03  0.10351005823E+04  0.11924061141E+04  0.10566000000E+00 0.  1.
         13    1    1    2    0    0 -0.18735117389E+03  0.70083365170E+03  0.27857404160E+03  0.77709187200E+03  0.10566000000E+00 0. -1.
          4    1    1    2  501    0 -0.20944088031E+03 -0.26156701274E+03  0.12561000488E+02  0.33532158181E+03  0.00000000000E+00 0.  1.
</event>
<event>
 5    1  0.4866530E-005  0.1655867E+03  0.7818608E-02  0.1086681E+00
         -4   -1    0    0    0  501 -0.00000000000E+00  0.00000000000E+00  0.18830804727E+03  0.18830804727E+03  0.00000000000E+00 0. -1.
         21   -1    0    0  501  502  0.00000000000E+00 -0.00000000000E+00 -0.12011808721E+04  0.12011808721E+04  0.00000000000E+00 0.  1.
        -13    1    1    2    0    0 -0.69114716863E+02  0.17781000801E+03 -0.76771847025E+03  0.79106567601E+03  0.10566000000E+00 0.  1.
         13    1    1    2    0    0  0.84819663898E+02 -0.14091407578E+03  0.13706998160E+03  0.21410124511E+03  0.10566000000E+00 0. -1.
         -4    1    1    2    0  502 -0.15704947035E+02 -0.36895932231E+02 -0.38222433620E+03  0.38432199828E+03  0.00000000000E+00 0. -1.
</event>
<event>
 5    1  0.4866530E-005  0.2364145E+03  0.7818608E-02  0.1037684E+00
         21   -1    0    0  501  502  0.00000000000E+00  0.00000000000E+00  0.16195680268E+03  0.16195680268E+03  0.00000000000E+00 0.  1.
         -4   -1    0    0    0  501 -0.00000000000E+00 -0.00000000000E+00 -0.41939020784E+03  0.41939020784E+03  0.00000000000E+00 0. -1.
        -13    1    1    2    0    0 -0.23331633057E+03 -0.24687492639E+01 -0.16263201114E+02  0.23389550596E+03  0.10566000000E+00 0.  1.
         13    1    1    2    0    0  0.23752353614E+03  0.13557907242E+02 -0.23333724928E+03  0.33323794823E+03  0.10566000000E+00 0. -1.
         -4    1    1    2    0  502 -0.42072055689E+01 -0.11089157978E+02 -0.78329547596E+01  0.14213556333E+02  0.00000000000E+00 0. -1.
</event>
<event>
 5    1  0.4866530E-005  0.3967044E+03  0.7818608E-02  0.9843379E-01
         21   -1    0    0  501  502  0.00000000000E+00  0.00000000000E+00  0.91476949368E+03  0.91476949368E+03  0.00000000000E+00 0.  1.
          4   -1    0    0  502    0 -0.00000000000E+00 -0.00000000000E+00 -0.55838840247E+03  0.55838840247E+03  0.00000000000E+00 0.  1.
        -13    1    1    2    0    0  0.22040316462E+03 -0.91287354085E+02 -0.20929114374E+03  0.31735426577E+03  0.10566000000E+00 0.  1.
         13    1    1    2    0    0  0.21456184580E+03  0.17556830653E+03 -0.14914903145E+03  0.31481178611E+03  0.10566000000E+00 0. -1.
          4    1    1    2  501    0 -0.43496501041E+03 -0.84280952443E+02  0.71482126640E+03  0.84099184427E+03  0.00000000000E+00 0.  1.
</event>
<event>
 5    1  0.4866530E-005  0.5295025E+03  0.7818608E-02  0.9447665E-01
         -4   -1    0    0    0  501 -0.00000000000E+00  0.00000000000E+00  0.18442739050E+04  0.18442739050E+04  0.00000000000E+00 0. -1.
         21   -1    0    0  501  502  0.00000000000E+00 -0.00000000000E+00 -0.48852528546E+03  0.48852528546E+03  0.00000000000E+00 0. -1.
        -13    1    1    2    0    0 -0.13090365065E+03 -0.62785702868E+03  0.19861184819E+03  0.67140665146E+03  0.10566000000E+00 0.  1.
         13    1    1    2    0    0 -0.32272445713E+03  0.35473724637E+03  0.10000272607E+04  0.11090735424E+04  0.10566000000E+00 0. -1.
         -4    1    1    2    0  502  0.45362810779E+03  0.27311978231E+03  0.15710951067E+03  0.55231899660E+03  0.00000000000E+00 0. -1.
</event>
<event>
 5    1  0.4866530E-005  0.3700405E+03  0.7818608E-02  0.9819796E-01
          4   -1    0    0  502    0 -0.00000000000E+00  0.00000000000E+00  0.19378495606E+03  0.19378495606E+03  0.00000000000E+00 0.  1.
         21   -1    0    0  501  502  0.00000000000E+00 -0.00000000000E+00 -0.10764581335E+04  0.10764581335E+04  0.00000000000E+00 0. -1.
        -13    1    1    2    0    0  0.14483023761E+03 -0.34725849159E+03 -0.17280933212E+03  0.41403784144E+03  0.10566000000E+00 0.  1.
         13    1    1    2    0    0 -0.16196791698E+03  0.32270452924E+03 -0.37706866601E+03  0.52206571366E+03  0.10566000000E+00 0. -1.
          4    1    1    2  501    0  0.17137679365E+02  0.24553962353E+02 -0.33279517932E+03  0.33413953447E+03  0.00000000000E+00 0.  1.
</event>
<event>
 5    1  0.4866530E-005  0.4728147E+02  0.7818608E-02  0.1303271E+00
         21   -1    0    0  501  502  0.00000000000E+00  0.00000000000E+00  0.84461119035E+02  0.84461119035E+02  0.00000000000E+00 0.  1.
          4   -1    0    0  502    0 -0.00000000000E+00 -0.00000000000E+00 -0.18327261061E+03  0.18327261061E+03  0.00000000000E+00 0.  1.
        -13    1    1    2    0    0  0.17419034055E+02  0.45881295670E+02 -0.16497684441E+03  0.17212171971E+03  0.10566000000E+00 0.  1.
         13    1    1    2    0    0 -0.15939484131E+02 -0.32085892046E+02  0.92112632058E+01  0.36992298612E+02  0.10566000000E+00 0. -1.
          4    1    1    2  501    0 -0.14795499234E+01 -0.13795403625E+02  0.56954089634E+02  0.58619711320E+02  0.00000000000E+00 0.  1.
</event>
<event>
 5    1  0.4866530E-005  0.4923684E+03  0.7818608E-02  0.9494858E-01
         -4   -1    0    0    0  501 -0.00000000000E+00  0.00000000000E+00  0.11509377000E+04  0.11509377000E+04  0.00000000000E+00 0. -1.
         21   -1    0    0  501  502  0.00000000000E+00 -0.00000000000E+00 -0.64912831304E+03  0.64912831304E+03  0.00000000000E+00 0. -1.
        -13    1    1    2    0    0  0.39235041258E+03  0.38832139140E+03  0.34845915138E+03  0.65280635767E+03  0.10566000000E+00 0.  1.
         13    1    1    2    0    0 -0.20270607652E+03 -0.42311484461E+03  0.53991454619E+03  0.71527872437E+03  0.10566000000E+00 0. -1.
         -4    1    1    2    0  502 -0.18964433606E+03  0.34793453210E+02 -0.38656431056E+03  0.43198093104E+03  0.00000000000E+00 0. -1.
</event>
<event>
 5    1  0.4866530E-005  0.5824800E+02  0.7818608E-02  0.1294546E+00
         21   -1    0    0  501  502  0.00000000000E+00  0.00000000000E+00  0.23678901311E+02  0.23678901311E+02  0.00000000000E+00 0. -1.
         -4   -1    0    0    0  501 -0.00000000000E+00 -0.00000000000E+00 -0.42572833706E+03  0.42572833706E+03  0.00000000000E+00 0. -1.
        -13    1    1    2    0    0  0.28517695894E+02 -0.91865184884E+01 -0.21874656599E+01  0.30040760161E+02  0.10566000000E+00 0.  1.
         13    1    1    2    0    0 -0.69528706880E+02  0.34619298914E+02 -0.26401333274E+03  0.27520135895E+03  0.10566000000E+00 0. -1.
         -4    1    1    2    0  502  0.41011010986E+02 -0.25432780426E+02 -0.13584863735E+03  0.14416511926E+03  0.00000000000E+00 0. -1.
</event>
<event>
 5    1  0.4866530E-005  0.1399932E+03  0.7818608E-02  0.1115896E+00
         21   -1    0    0  501  502  0.00000000000E+00  0.00000000000E+00  0.18593933931E+04  0.18593933931E+04  0.00000000000E+00 0.  1.
          4   -1    0    0  502    0 -0.00000000000E+00 -0.00000000000E+00 -0.24338941114E+03  0.24338941114E+03  0.00000000000E+00 0.  1.
        -13    1    1    2    0    0 -0.24363631733E+03 -0.50647757694E+02 -0.34146309378E+01  0.24886848204E+03  0.10566000000E+00 0.  1.
         13    1    1    2    0    0  0.10648401379E+03  0.64293464140E+02 -0.80663998975E+02  0.14825379125E+03  0.10566000000E+00 0. -1.
          4    1    1    2  501    0  0.13715230354E+03 -0.13645706446E+02  0.17000826119E+04  0.17056605310E+04  0.00000000000E+00 0.  1.
</event>
<event>
 5    1  0.4866530E-005  0.2628025E+03  0.7818608E-02  0.1023964E+00
         -4   -1    0    0    0  501 -0.00000000000E+00  0.00000000000E+00  0.20885015721E+04  0.20885015721E+04  0.00000000000E+00 0. -1.
         21   -1    0    0  501  502  0.00000000000E+00 -0.00000000000E+00 -0.65354692054E+02  0.65354692054E+02  0.00000000000E+00 0.  1.
        -13    1    1    2    0    0  0.28130651197E+03 -0.16522636980E+03  0.10925134378E+04  0.11401836387E+04  0.10566000000E+00 0.  1.
         13    1    1    2    0    0 -0.22470955440E+03  0.28696672927E+02  0.73091440901E+03  0.76521485045E+03  0.10566000000E+00 0. -1.
         -4    1    1    2    0  502 -0.56596957576E+02  0.13652969687E+03  0.19971903317E+03  0.24845777498E+03  0.00000000000E+00 0. -1.
</event>
<event>
 5    1  0.4866530E-005  0.9620525E+02  0.7818608E-02  0.1170991E+00
         21   -1    0    0  501  502  0.00000000000E+00  0.00000000000E+00  0.77290530547E+03  0.77290530547E+03  0.00000000000E+00 0. -1.
          4   -1    0    0  502    0 -0.00000000000E+00 -0.00000000000E+00 -0.23518206085E+02  0.23518206085E+02  0.00000000000E+00 0.  1.
        -13    1    1    2    0    0  0.99758949969E+02  0.17578450836E+02  0.14743899282E+03  0.17888297236E+03  0.10566000000E+00 0.  1.
         13    1    1    2    0    0 -0.87864831317E+02  0.25904732313E+02  0.36321288989E+03  0.37458630285E+03  0.10566000000E+00 0. -1.
          4    1    1    2  501    0 -0.11894118652E+02 -0.43483183148E+02  0.23873521668E+03  0.24295423635E+03  0.00000000000E+00 0.  1.
</event>
<event>
 5    1  0.4866530E-005  0.4364524E+03  0.7818608E-02  0.9920590E-01
          4   -1    0    0  502    0 -0.00000000000E+00  0.00000000000E+00  0.73608169729E+03  0.73608169729E+03  0.00000000000E+00 0.  1.
         21   -1    0    0  501  502  0.00000000000E+00 -0.00000000000E+00 -0.61150619643E+03  0.61150619643E+03  0.00000000000E+00 0.  1.
        -13    1    1    2    0    0  0.26806767973E+03 -0.29218528564E+03 -0.23590879511E+03  0.46139515909E+03  0.10566000000E+00 0.  1.
         13    1    1    2    0    0  0.14510754022E+03 -0.68909804218E+02  0.29191612836E+03  0.33319633328E+03  0.10566000000E+00 0. -1.
          4    1    1    2  501    0 -0.41317521996E+03  0.36109508986E+03  0.68568167605E+02  0.55299640136E+03  0.00000000000E+00 0.  1.
</event>
<event>
 5    1  0.4866530E-005  0.3956948E+02  0.7818608E-02  0.1392903E+00
         21   -1    0    0  501  502  0.00000000000E+00  0.00000000000E+00  0.36943034885E+02  0.36943034885E+02  0.00000000000E+00 0. -1.
         -4   -1    0    0    0  501 -0.00000000000E+00 -0.00000000000E+00 -0.91562355329E+02  0.91562355329E+02  0.00000000000E+00 0. -1.
        -13    1    1    2    0    0  0.15893922963E+02 -0.17070147444E+01 -0.15931740403E+02  0.22569054096E+02  0.10566000000E+00 0.  1.
         13    1    1    2    0    0 -0.28544183220E+02 -0.30132282767E+02  0.13379099381E+02  0.43608901897E+02  0.10566000000E+00 0. -1.
         -4    1    1    2    0  502  0.12650260256E+02  0.31839297511E+02 -0.52066679422E+02  0.62327434221E+02  0.00000000000E+00 0. -1.
</event>
<event>
 5    1  0.4866530E-005  0.1120872E+03  0.7818608E-02  0.1145972E+00
         21   -1    0    0  501  502  0.00000000000E+00  0.00000000000E+00  0.34707090243E+03  0.34707090243E+03  0.00000000000E+00 0.  1.
         -4   -1    0    0    0  501 -0.00000000000E+00 -0.00000000000E+00 -0.60472756106E+02  0.60472756106E+02  0.00000000000E+00 0. -1.
        -13    1    1    2    0    0  0.10029469696E+03 -0.59064605693E+02  0.91018509925E+02  0.14775667226E+03  0.10566000000E+00 0.  1.
         13    1    1    2    0    0 -0.10171574824E+03  0.39957659787E+02  0.63638064072E+02  0.12646154506E+03  0.10566000000E+00 0. -1.
         -4    1    1    2    0  502  0.14210512794E+01  0.19106945906E+02  0.13194157233E+03  0.13332544122E+03  0.00000000000E+00 0. -1.
</event>
<event>
 5    1  0.4866530E-005  0.4143611E+02  0.7818608E-02  0.1404051E+00
         21   -1    0    0  501  502  0.00000000000E+00  0.00000000000E+00  0.24481969841E+03  0.24481969841E+03  0.00000000000E+00 0.  1.
          4   -1    0    0  502    0 -0.00000000000E+00 -0.00000000000E+00 -0.11909669572E+02  0.11909669572E+02  0.00000000000E+00 0.  1.
        -13    1    1    2    0    0  0.47846168457E+02 -0.13074440573E+02  0.67167297519E+02  0.83496430177E+02  0.10566000000E+00 0.  1.
         13    1    1    2    0    0 -0.10247913773E+02  0.53241119282E+01  0.48908138997E+02  0.50253190234E+02  0.10566000000E+00 0. -1.
          4    1    1    2  501    0 -0.37598254684E+02  0.77503286447E+01  0.11683459232E+03  0.12297974757E+03  0.00000000000E+00 0.  1.
</event>
<event>
 5    1  0.4866530E-005  0.1527722E+03  0.7818608E-02  0.1098409E+00
         21   -1    0    0  501  502  0.00000000000E+00  0.00000000000E+00  0.91044103380E+03  0.91044103380E+03  0.00000000000E+00 0.  1.
         -4   -1    0    0    0  501 -0.00000000000E+00 -0.00000000000E+00 -0.13436436934E+03  0.13436436934E+03  0.00000000000E+00 0. -1.
        -13    1    1    2    0    0  0.81263998166E+02  0.14886399344E+03  0.78201201507E+03  0.80019193249E+03  0.10566000000E+00 0.  1.
         13    1    1    2    0    0 -0.74784953446E+02 -0.13208466811E+03 -0.77777782578E+02  0.17055363801E+03  0.10566000000E+00 0. -1.
         -4    1    1    2    0  502 -0.64790447197E+01 -0.16779325336E+02  0.71842431974E+02  0.74059832643E+02  0.00000000000E+00 0. -1.
</event>
<event>
 5    1  0.4866530E-005  0.9968579E+02  0.7818608E-02  0.1165076E+00
         -4   -1    0    0    0  501 -0.00000000000E+00  0.00000000000E+00  0.10106238892E+03  0.10106238892E+03  0.00000000000E+00 0. -1.
         21   -1    0    0  501  502  0.00000000000E+00 -0.00000000000E+00 -0.13088277024E+03  0.13088277024E+03  0.00000000000E+00 0.  1.
        -13    1    1    2    0    0  0.82438464110E+02  0.67499557346E+02  0.35147347388E+01  0.10660513651E+03  0.10566000000E+00 0.  1.
         13    1    1    2    0    0 -0.78428147624E+02 -0.50581295451E+02 -0.67424360275E+01  0.93567694194E+02  0.10566000000E+00 0. -1.
         -4    1    1    2    0  502 -0.40103164863E+01 -0.16918261896E+02 -0.26592680029E+02  0.31772328448E+02  0.00000000000E+00 0. -1.
</event>
<event>
 5    1  0.4866530E-005  0.5486483E+02  0.7818608E-02  0.1273156E+00
          4   -1    0    0  502    0 -0.00000000000E+00  0.00000000000E+00  0.69599761145E+02  0.69599761145E+02  0.00000000000E+00 0.  1.
         21   -1    0    0  501  502  0.00000000000E+00 -0.00000000000E+00 -0.12190969571E+03  0.12190969571E+03  0.00000000000E+00 0. -1.
        -13    1    1    2    0    0  0.43052614289E+02  0.37650267822E+02  0.38406082777E+02  0.68892006957E+02  0.10566000000E+00 0.  1.
         13    1    1    2    0    0 -0.27267262082E+02 -0.41803136342E+02 -0.26800253879E+02  0.56650424195E+02  0.10566000000E+00 0. -1.
          4    1    1    2  501    0 -0.15785352207E+02  0.41528685193E+01 -0.63915763467E+02  0.65967025709E+02  0.00000000000E+00 0.  1.
</event>
<event>
 5    1  0.4866530E-005  0.5697171E+03  0.7818608E-02  0.9416209E-01
          4   -1    0    0  502    0 -0.00000000000E+00  0.00000000000E+00  0.27081201880E+04  0.27081201880E+04  0.00000000000E+00 0.  1.
         21   -1    0    0  501  502  0.00000000000E+00 -0.00000000000E+00 -0.26042826936E+03  0.26042826936E+03  0.00000000000E+00 0.  1.
        -13    1    1    2    0    0 -0.48480216334E+03  0.31100187754E+03  0.62263203501E+03  0.84818981814E+03  0.10566000000E+00 0.  1.
         13    1    1    2    0    0  0.29105495929E+03  0.30842050037E+03  0.83533599795E+03  0.93681504846E+03  0.10566000000E+00 0. -1.
          4    1    1    2  501    0  0.19374720406E+03 -0.61942237792E+03  0.98972388567E+03  0.11835435907E+04  0.00000000000E+00 0.  1.
</event>
<event>
 5    1  0.4866530E-005  0.3911641E+03  0.7818608E-02  0.1000385E+00
         21   -1    0    0  501  502  0.00000000000E+00  0.00000000000E+00  0.13237784044E+04  0.13237784044E+04  0.00000000000E+00 0. -1.
         -4   -1    0    0    0  501 -0.00000000000E+00 -0.00000000000E+00 -0.29114236216E+03  0.29114236216E+03  0.00000000000E+00 0. -1.
        -13    1    1    2    0    0 -0.16044213394E+03  0.54648802404E+02  0.22033164596E+03  0.27798240110E+03  0.10566000000E+00 0.  1.
         13    1    1    2    0    0  0.41401175471E+03 -0.64785609632E+02  0.95706193353E+03  0.10447824960E+04  0.10566000000E+00 0. -1.
         -4    1    1    2    0  502 -0.25356962077E+03  0.10136807228E+02 -0.14475753727E+03  0.29215586941E+03  0.00000000000E+00 0. -1.
</event>
<event>
 5    1  0.4866530E-005  0.2186120E+03  0.7818608E-02  0.1048075E+00
         -4   -1    0    0    0  501 -0.00000000000E+00  0.00000000000E+00  0.10227630356E+04  0.10227630356E+04  0.00000000000E+00 0. -1.
         21   -1    0    0  501  502  0.00000000000E+00 -0.00000000000E+00 -0.16605731374E+03  0.16605731374E+03  0.00000000000E+00 0.  1.
        -13    1    1    2    0    0  0.43721426289E+02  0.23733602072E+03  0.42046442986E+03  0.48479923452E+03  0.10566000000E+00 0.  1.
         13    1    1    2    0    0  0.53855434892E+01 -0.20693065587E+03  0.54383850856E+03  0.58190173997E+03  0.10566000000E+00 0. -1.
         -4    1    1    2    0  502 -0.49106969778E+02 -0.30405364848E+02 -0.10759721659E+03  0.12211937483E+03  0.00000000000E+00 0. -1.
</event>
<event>
 5    1  0.4866530E-005  0.3032026E+03  0.7818608E-02  0.1007975E+00
         -4   -1    0    0    0  501 -0.00000000000E+00  0.00000000000E+00  0.16134478504E+04  0.16134478504E+04  0.00000000000E+00 0. -1.
         21   -1    0    0  501  502  0.00000000000E+00 -0.00000000000E+00 -0.39464374177E+03  0.39464374177E+03  0.00000000000E+00 0. -1.
        -13    1    1    2    0    0  0.27975158160E+03  0.51106731003E+02  0.86125321690E+03  0.90698950388E+03  0.10566000000E+00 0.  1.
         13    1    1    2    0    0 -0.37415747743E+03 -0.32305428137E+03  0.56166381299E+03  0.74821396446E+03  0.10566000000E+00 0. -1.
         -4    1    1    2    0  502  0.94405895831E+02  0.27194755037E+03 -0.20411292125E+03  0.35288812383E+03  0.00000000000E+00 0. -1.
</event>
<event>
 5    1  0.4866530E-005  0.2098008E+03  0.7818608E-02  0.1053617E+00
         -4   -1    0    0    0  501 -0.00000000000E+00  0.00000000000E+00  0.22055603783E+03  0.22055603783E+03  0.00000000000E+00 0. -1.
         21   -1    0    0  501  502  0.00000000000E+00 -0.00000000000E+00 -0.12319644972E+04  0.12319644972E+04  0.00000000000E+00 0. -1.
        -13    1    1    2    0    0  0.79169635891E+01  0.20035900364E+03 -0.43670289379E+03  0.48053703006E+03  0.10566000000E+00 0.  1.
         13    1    1    2    0    0 -0.10105482528E+02 -0.21069322409E+03  0.14259083030E+03  0.25460933114E+03  0.10566000000E+00 0. -1.
         -4    1    1    2    0  502  0.21885189391E+01  0.10334220448E+02 -0.71729639588E+03  0.71737417382E+03  0.00000000000E+00 0. -1.
</event>
<event>
 5    1  0.4866530E-005  0.2358315E+03  0.7818608E-02  0.1038008E+00
         21   -1    0    0  501  502  0.00000000000E+00  0.00000000000E+00  0.51992729736E+02  0.51992729736E+02  0.00000000000E+00 0. -1.
         -4   -1    0    0    0  501 -0.00000000000E+00 -0.00000000000E+00 -0.14191151245E+04  0.14191151245E+04  0.00000000000E+00 0. -1.
        -13    1    1    2    0    0  0.18236480583E+03  0.10039095148E+03 -0.41483606595E+03  0.46413816728E+03  0.10566000000E+00 0.  1.
         13    1    1    2    0    0 -0.22529125350E+03 -0.12110456835E+03 -0.90250537702E+03  0.93805033558E+03  0.10566000000E+00 0. -1.
         -4    1    1    2    0  502  0.42926447673E+02  0.20713616871E+02 -0.49780951837E+02  0.68919351415E+02  0.00000000000E+00 0. -1.
</event>
<event>
 5    1  0.4866530E-005  0.1228860E+03  0.7818608E-02  0.1131421E+00
          4   -1    0    0  502    0 -0.00000000000E+00  0.00000000000E+00  0.60797397248E+03  0.60797397248E+03  0.00000000000E+00 0.  1.
         21   -1    0    0  501  502  0.00000000000E+00 -0.00000000000E+00 -0.27436312276E+03  0.27436312276E+03  0.00000000000E+00 0. -1.
        -13    1    1    2    0    0  0.32524408480E+02  0.11753094735E+03  0.55566134362E+03  0.56888566574E+03  0.10566000000E+00 0.  1.
         13    1    1    2    0    0 -0.47384791360E+02 -0.12996277206E+03 -0.60905800616E+02  0.15114618184E+03  0.10566000000E+00 0. -1.
          4    1    1    2  501    0  0.14860382880E+02  0.12431824704E+02 -0.16114469328E+03  0.16230524765E+03  0.00000000000E+00 0.  1.
</event>
<event>
 5    1  0.4866530E-005  0.1840282E+03  0.7818608E-02  0.1071674E+00
          4   -1    0    0  502    0 -0.00000000000E+00  0.00000000000E+00  0.60217730151E+03  0.60217730151E+03  0.00000000000E+00 0.  1.
         21   -1    0    0  501  502  0.00000000000E+00 -0.00000000000E+00 -0.15664522830E+03  0.15664522830E+03  0.00000000000E+00 0. -1.
        -13    1    1    2    0    0 -0.47354076190E+02  0.16771142284E+03  0.35775683847E+03  0.39794408718E+03  0.10566000000E+00 0.  1.
         13    1    1    2    0    0  0.15189261744E+03 -0.18764419018E+03  0.79355373442E+02  0.25412397722E+03  0.10566000000E+00 0. -1.
          4    1    1    2  501    0 -0.10453854125E+03  0.19932767341E+02  0.84198612945E+01  0.10675446541E+03  0.00000000000E+00 0.  1.
</event>
<event>
 5    1  0.4866530E-005  0.8057277E+02  0.7818608E-02  0.1201433E+00
         -4   -1    0    0    0  501 -0.00000000000E+00  0.00000000000E+00  0.64181443026E+03  0.64181443026E+03  0.00000000000E+00 0. -1.
         21   -1    0    0  501  502  0.00000000000E+00 -0.00000000000E+00 -0.39400733844E+02  0.39400733844E+02  0.00000000000E+00 0. -1.
        -13    1    1    2    0    0  0.72359323184E+02 -0.24592726722E+02  0.25319369868E+03  0.26447633935E+03  0.10566000000E+00 0.  1.
         13    1    1    2    0    0 -0.70774735940E+02  0.47859590190E+02  0.37345627481E+03  0.38310469062E+03  0.10566000000E+00 0. -1.
         -4    1    1    2    0  502 -0.15845872440E+01 -0.23266863468E+02 -0.24236277073E+02  0.33634134131E+02  0.00000000000E+00 0. -1.
</event>
<event>
 5    1  0.4866530E-005  0.4755439E+03  0.7818608E-02  0.9736983E-01
         -4   -1    0    0    0  501 -0.00000000000E+00  0.00000000000E+00  0.29256015074E+04  0.29256015074E+04  0.00000000000E+00 0. -1.
         21   -1    0    0  501  502  0.00000000000E+00 -0.00000000000E+00 -0.14207130490E+03  0.14207130490E+03  0.00000000000E+00 0.  1.
        -13    1    1    2    0    0  0.19753401739E+03 -0.12091092910E+03  0.22404920596E+03  0.32223779831E+03  0.10566000000E+00 0.  1.
         13    1    1    2    0    0 -0.43405297979E+03 -0.28251552167E+03  0.15140142088E+04  0.16001425077E+04  0.10566000000E+00 0. -1.
         -4    1    1    2    0  502  0.23651896240E+03  0.40342645077E+03  0.10454667877E+04  0.11452925063E+04  0.00000000000E+00 0. -1.
</event>
<event>
 5    1  0.4866530E-005  0.1011803E+03  0.7818608E-02  0.1162617E+00
         21   -1    0    0  501  502  0.00000000000E+00  0.00000000000E+00  0.10786199574E+03  0.10786199574E+03  0.00000000000E+00 0.  1.
         -4   -1    0    0    0  501 -0.00000000000E+00 -0.00000000000E+00 -0.20819984265E+03  0.20819984265E+03  0.00000000000E+00 0. -1.
        -13    1    1    2    0    0  0.24515989787E+02 -0.96260830021E+02  0.36896923825E+02  0.10596497206E+03  0.10566000000E+00 0.  1.
         13    1    1    2    0    0 -0.10333654060E+02  0.10123543639E+03 -0.15587540615E+03  0.18615195781E+03  0.10566000000E+00 0. -1.
         -4    1    1    2    0  502 -0.14182335728E+02 -0.49746063699E+01  0.18640635425E+02  0.23944908525E+02  0.00000000000E+00 0. -1.
</event>
<event>
 5    1  0.4866530E-005  0.3417903E+03  0.7818608E-02  0.1012514E+00
          4   -1    0    0  502    0 -0.00000000000E+00  0.00000000000E+00  0.27576785073E+04  0.27576785073E+04  0.00000000000E+00 0.  1.
         21   -1    0    0  501  502  0.00000000000E+00 -0.00000000000E+00 -0.14660277367E+03  0.14660277367E+03  0.00000000000E+00 0.  1.
        -13    1    1    2    0    0 -0.27165570325E+03 -0.16929304203E+03  0.15348359470E+04  0.15678578859E+04  0.10566000000E+00 0.  1.
         13    1    1    2    0    0 -0.79023187641E+02  0.15231539846E+03  0.94681393569E+03  0.96223764464E+03  0.10566000000E+00 0. -1.
          4    1    1    2  501    0  0.35067889090E+03  0.16977643563E+02  0.12942585097E+03  0.37418575040E+03  0.00000000000E+00 0.  1.
</event>
<event>
 5    1  0.4866530E-005  0.7533426E+03  0.7818608E-02  0.9048992E-01
          4   -1    0    0  502    0 -0.00000000000E+00  0.00000000000E+00  0.49379770698E+03  0.49379770698E+03  0.00000000000E+00 0.  1.
         21   -1    0    0  501  502  0.00000000000E+00 -0.00000000000E+00 -0.19315351676E+04  0.19315351676E+04  0.00000000000E+00 0.  1.
        -13    1    1    2    0    0  0.63146453161E+03  0.44602119570E+03 -0.14029432766E+03  0.78572569719E+03  0.10566000000E+00 0.  1.
         13    1    1    2    0    0 -0.51958569812E+03 -0.50583515051E+03 -0.63116086279E+03  0.96135453557E+03  0.10566000000E+00 0. -1.
          4    1    1    2  501    0 -0.11187883349E+03  0.59813954815E+02 -0.66628227020E+03  0.67825264184E+03  0.00000000000E+00 0.  1.
</event>
<event>
 5    1  0.4866530E-005  0.1037559E+03  0.7818608E-02  0.1158487E+00
          4   -1    0    0  502    0 -0.00000000000E+00  0.00000000000E+00  0.27670738224E+03  0.27670738224E+03  0.00000000000E+00 0.  1.
         21   -1    0    0  501  502  0.00000000000E+00 -0.00000000000E+00 -0.11216907054E+03  0.11216907054E+03  0.00000000000E+00 0. -1.
        -13    1    1    2    0    0  0.84186370892E+02 -0.60207987392E+02  0.20373068190E+03  0.22851378230E+03  0.10566000000E+00 0.  1.
         13    1    1    2    0    0 -0.59664088676E+02  0.95373078805E+02 -0.31299336575E+02  0.11677108920E+03  0.10566000000E+00 0. -1.
          4    1    1    2  501    0 -0.24522282216E+02 -0.35165091413E+02 -0.78930336264E+01  0.43591581286E+02  0.00000000000E+00 0.  1.
</event>
<event>
 5    1  0.4866530E-005  0.3960231E+03  0.7818608E-02  0.9815645E-01
          4   -1    0    0  502    0 -0.00000000000E+00  0.00000000000E+00  0.88580672029E+03  0.88580672029E+03  0.00000000000E+00 0.  1.
         21   -1    0    0  501  502  0.00000000000E+00 -0.00000000000E+00 -0.10304964850E+04  0.10304964850E+04  0.00000000000E+00 0.  1.
        -13    1    1    2    0    0 -0.18365465758E+03  0.21472538448E+03  0.13106643391E+03  0.31147141965E+03  0.10566000000E+00 0.  1.
         13    1    1    2    0    0 -0.25438839432E+03 -0.17037902893E+03  0.57243765167E+03  0.64917435630E+03  0.10566000000E+00 0. -1.
          4    1    1    2  501    0  0.43804305190E+03 -0.44346355555E+02 -0.84819385028E+03  0.95565742932E+03  0.00000000000E+00 0.  1.
</event>
<event>
 5    1  0.4866530E-005  0.2583904E+03  0.7818608E-02  0.1026417E+00
         21   -1    0    0  501  502  0.00000000000E+00  0.00000000000E+00  0.35391836574E+03  0.35391836574E+03  0.00000000000E+00 0. -1.
         -4   -1    0    0    0  501 -0.00000000000E+00 -0.00000000000E+00 -0.13504264608E+04  0.13504264608E+04  0.00000000000E+00 0. -1.
        -13    1    1    2    0    0 -0.55082432608E+02  0.25361916244E+03 -0.37610699755E+03  0.45696087219E+03  0.10566000000E+00 0.  1.
         13    1    1    2    0    0  0.21831960661E+03  0.12533044738E+03  0.20496658051E+03  0.32462668092E+03  0.10566000000E+00 0. -1.
         -4    1    1    2    0  502 -0.16323717400E+03 -0.37894960983E+03 -0.82536767803E+03  0.92275727345E+03  0.00000000000E+00 0. -1.
</event>
<event>
 5    1  0.4866530E-005  0.4595904E+03  0.7818608E-02  0.9582014E-01
          4   -1    0    0  502    0 -0.00000000000E+00  0.00000000000E+00  0.19397107589E+04  0.19397107589E+04  0.00000000000E+00 0.  1.
         21   -1    0    0  501  502  0.00000000000E+00 -0.00000000000E+00 -0.33996645329E+03  0.33996645329E+03  0.00000000000E+00 0.  1.
        -13    1    1    2    0    0 -0.30995649730E+03  0.32022910570E+03  0.69491020147E+03  0.82554219131E+03  0.10566000000E+00 0.  1.
         13    1    1    2    0    0  0.43021448997E+03  0.18558140306E+03  0.79493216356E+03  0.92273621386E+03  0.10566000000E+00 0. -1.
          4    1    1    2  501    0 -0.12025799267E+03 -0.50581050877E+03  0.10990194060E+03  0.53139880704E+03  0.00000000000E+00 0.  1.
</event>
<event>
 5    1  0.4866530E-005  0.1829670E+03  0.7818608E-02  0.1088885E+00
         -4   -1    0    0    0  501 -0.00000000000E+00  0.00000000000E+00  0.70845501988E+03  0.70845501988E+03  0.00000000000E+00 0. -1.
         21   -1    0    0  501  502  0.00000000000E+00 -0.00000000000E+00 -0.17655409606E+03  0.17655409606E+03  0.00000000000E+00 0.  1.
        -13    1    1    2    0    0  0.11401710419E+03  0.18238168947E+02 -0.14804259456E+02  0.11641180402E+03  0.10566000000E+00 0.  1.
         13    1    1    2    0    0 -0.22441612229E+03 -0.14804530264E+03  0.53382876911E+03  0.59770659480E+03  0.10566000000E+00 0. -1.
         -4    1    1    2    0  502  0.11039901810E+03  0.12980713370E+03  0.12876414171E+02  0.17089071712E+03  0.00000000000E+00 0. -1.
</event>
<event>
 5    1  0.4866530E-005  0.5562136E+03  0.7818608E-02  0.9406203E-01
         -4   -1    0    0    0  501 -0.00000000000E+00  0.00000000000E+00  0.50565952546E+03  0.50565952546E+03  0.00000000000E+00 0. -1.
         21   -1    0    0  501  502  0.00000000000E+00 -0.00000000000E+00 -0.16560279183E+04  0.16560279183E+04  0.00000000000E+00 0. -1.
        -13    1    1    2    0    0 -0.47294681738E+03 -0.37442719738E+03 -0.19235013129E+03  0.63314532485E+03  0.10566000000E+00 0.  1.
         13    1    1    2    0    0 -0.26233689770E+03  0.14841298733E+03 -0.19234270253E+01  0.30141462048E+03  0.10566000000E+00 0. -1.
         -4    1    1    2    0  502  0.73528371508E+03  0.22601421006E+03 -0.95609483451E+03  0.12271274984E+04  0.00000000000E+00 0. -1.
</event>
<event>
 5    1  0.4866530E-005  0.4793814E+03  0.7818608E-02  0.1009112E+00
         21   -1    0    0  501  502  0.00000000000E+00  0.00000000000E+00  0.78686985667E+02  0.78686985667E+02  0.00000000000E+00 0.  1.
          4   -1    0    0  502    0 -0.00000000000E+00 -0.00000000000E+00 -0.36115024871E+04  0.36115024871E+04  0.00000000000E+00 0.  1.
        -13    1    1    2    0    0  0.34661840946E+03  0.35126050657E+03 -0.12440399092E+04  0.13383435927E+04  0.10566000000E+00 0.  1.
         13    1    1    2    0    0 -0.68203491636E+02  0.12647555040E+02 -0.16120677063E+03  0.17549732471E+03  0.10566000000E+00 0. -1.
          4    1    1    2  501    0 -0.27841491782E+03 -0.36390806161E+03 -0.21275688216E+04  0.21763485553E+04  0.00000000000E+00 0.  1.
</event>
<event>
 5    1  0.4866530E-005  0.4154735E+03  0.7818608E-02  0.9782304E-01
         21   -1    0    0  501  502  0.00000000000E+00  0.00000000000E+00  0.11572751822E+04  0.11572751822E+04  0.00000000000E+00 0. -1.
         -4   -1    0    0    0  501 -0.00000000000E+00 -0.00000000000E+00 -0.42552390524E+03  0.42552390524E+03  0.00000000000E+00 0. -1.
        -13    1    1    2    0    0 -0.13391910136E+03 -0.26523665087E+03  0.48076768201E+02  0.30099201564E+03  0.10566000000E+00 0.  1.
         13    1    1    2    0    0 -0.20964800739E+03  0.48123580310E+03  0.47301962771E+02  0.52704617637E+03  0.10566000000E+00 0. -1.
         -4    1    1    2    0  502  0.34356710875E+03 -0.21599915223E+03  0.63637254601E+03  0.75476089544E+03  0.00000000000E+00 0. -1.
</event>
<event>
 5    1  0.4866530E-005  0.5506015E+02  0.7818608E-02  0.1272454E+00
         21   -1    0    0  501  502  0.00000000000E+00  0.00000000000E+00  0.97399587577E+02  0.97399587577E+02  0.00000000000E+00 0. -1.
          4   -1    0    0  502    0 -0.00000000000E+00 -0.00000000000E+00 -0.11410230181E+03  0.11410230181E+03  0.00000000000E+00 0.  1.
        -13    1    1    2    0    0  0.22186202621E+02 -0.37765017800E+02 -0.32195578028E+02  0.54359824915E+02  0.10566000000E+00 0.  1.
         13    1    1    2    0    0 -0.57805567384E+02  0.67210527549E+02 -0.28718848359E+02  0.93185417577E+02  0.10566000000E+00 0. -1.
          4    1    1    2  501    0  0.35619364762E+02 -0.29445509749E+02  0.44211712153E+02  0.63956646894E+02  0.00000000000E+00 0.  1.
</event>
<event>
 5    1  0.4866530E-005  0.4216324E+03  0.7818608E-02  0.9692307E-01
          4   -1    0    0  502    0 -0.00000000000E+00  0.00000000000E+00  0.23348629241E+04  0.23348629241E+04  0.00000000000E+00 0.  1.
         21   -1    0    0  501  502  0.00000000000E+00 -0.00000000000E+00 -0.25546235565E+03  0.25546235565E+03  0.00000000000E+00 0.  1.
        -13    1    1    2    0    0 -0.58677033963E+02 -0.36821250494E+03  0.26305181193E+03  0.45631097953E+03  0.10566000000E+00 0.  1.
         13    1    1    2    0    0  0.40306211756E+03 -0.17521433874E+03  0.47971014835E+03  0.65060047087E+03  0.10566000000E+00 0. -1.
          4    1    1    2  501    0 -0.34438508360E+03  0.54342684368E+03  0.13366386082E+04  0.14834138293E+04  0.00000000000E+00 0.  1.
</event>
<event>
 5    1  0.4866530E-005  0.2813576E+02  0.7818608E-02  0.1438733E+00
         21   -1    0    0  501  502  0.00000000000E+00  0.00000000000E+00  0.19551182152E+02  0.19551182152E+02  0.00000000000E+00 0. -1.
         -4   -1    0    0    0  501 -0.00000000000E+00 -0.00000000000E+00 -0.11976537636E+03  0.11976537636E+03  0.00000000000E+00 0. -1.
        -13    1    1    2    0    0 -0.13112785730E+02 -0.16416960301E+02 -0.43560124320E+02  0.48362768014E+02  0.10566000000E+00 0.  1.
         13    1    1    2    0    0  0.33184026379E+02  0.29091904139E+02 -0.49156072721E+02  0.66059436439E+02  0.10566000000E+00 0. -1.
         -4    1    1    2    0  502 -0.20071240650E+02 -0.12674943838E+02 -0.74979971657E+01  0.24894354059E+02  0.00000000000E+00 0. -1.
</event>
<event>
 5    1  0.4866530E-005  0.1636462E+03  0.7818608E-02  0.1088382E+00
         21   -1    0    0  501  502  0.00000000000E+00  0.00000000000E+00  0.63235149658E+02  0.63235149658E+02  0.00000000000E+00 0. -1.
          4   -1    0    0  502    0 -0.00000000000E+00 -0.00000000000E+00 -0.90853351163E+03  0.90853351163E+03  0.00000000000E+00 0.  1.
        -13    1    1    2    0    0  0.15104808586E+02  0.15774902148E+03 -0.57362474168E+03  0.59511197640E+03  0.10566000000E+00 0.  1.
         13    1    1    2    0    0 -0.30981378818E+02 -0.17290124926E+03 -0.29581121841E+03  0.34403339363E+03  0.10566000000E+00 0. -1.
          4    1    1    2  501    0  0.15876570232E+02  0.15152227778E+02  0.24137598126E+02  0.32623291255E+02  0.00000000000E+00 0.  1.
</event>
<event>
 5    1  0.4866530E-005  0.4880700E+03  0.7818608E-02  0.9720386E-01
         21   -1    0    0  501  502  0.00000000000E+00  0.00000000000E+00  0.26089482507E+03  0.26089482507E+03  0.00000000000E+00 0. -1.
         -4   -1    0    0    0  501 -0.00000000000E+00 -0.00000000000E+00 -0.17533353836E+04  0.17533353836E+04  0.00000000000E+00 0. -1.
        -13    1    1    2    0    0 -0.45601211418E+02  0.22226649727E+03 -0.61234423147E+03  0.65302935253E+03  0.10566000000E+00 0.  1.
         13    1    1    2    0    0  0.50304623417E+03 -0.25679143888E+03 -0.59850168030E+03  0.82292261439E+03  0.10566000000E+00 0. -1.
         -4    1    1    2    0  502 -0.45744502275E+03  0.34524941619E+02 -0.28159464674E+03  0.53827824172E+03  0.00000000000E+00 0. -1.
</event>
<event>
 5    1  0.4866530E-005  0.3627809E+03  0.7818608E-02  0.1010909E+00
          4   -1    0    0  502    0 -0.00000000000E+00  0.00000000000E+00  0.26880055363E+04  0.26880055363E+04  0.00000000000E+00 0.  1.
         21   -1    0    0  501  502  0.00000000000E+00 -0.00000000000E+00 -0.13924552450E+03  0.13924552450E+03  0.00000000000E+00 0.  1.
        -13    1    1    2    0    0  0.30839171661E+03 -0.20734803785E+03  0.21216272646E+04  0.21539268606E+04  0.10566000000E+00 0.  1.
         13    1    1    2    0    0 -0.11182992207E+03 -0.10156811532E+03  0.91493766995E+02  0.17661578095E+03  0.10566000000E+00 0. -1.
          4    1    1    2  501    0 -0.19656179455E+03  0.30891615317E+03  0.33563898026E+03  0.49670841933E+03  0.00000000000E+00 0.  1.
</event>
<event>
 5    1  0.4866530E-005  0.2845007E+03  0.7818608E-02  0.1015085E+00
          4   -1    0    0  502    0 -0.00000000000E+00  0.00000000000E+00  0.17084293889E+04  0.17084293889E+04  0.00000000000E+00 0.  1.
         21   -1    0    0  501  502  0.00000000000E+00 -0.00000000000E+00 -0.41246970567E+03  0.41246970567E+03  0.00000000000E+00 0.  1.
        -13    1    1    2    0    0  0.22769260945E+03 -0.11307135774E+03  0.68561897673E+03  0.73123351178E+03  0.10566000000E+00 0.  1.
         13    1    1    2    0    0 -0.37060416010E+03 -0.13909405235E+03  0.89795577370E+03  0.98133540727E+03  0.10566000000E+00 0. -1.
          4    1    1    2  501    0  0.14291155065E+03  0.25216541009E+03 -0.28761506720E+03  0.40833017551E+03  0.00000000000E+00 0.  1.
</event>
<event>
 5    1  0.4866530E-005  0.2767270E+03  0.7818608E-02  0.1085365E+00
          4   -1    0    0  502    0 -0.00000000000E+00  0.00000000000E+00  0.14049391041E+04  0.14049391041E+04  0.00000000000E+00 0.  1.
         21   -1    0    0  501  502  0.00000000000E+00 -0.00000000000E+00 -0.68717763846E+02  0.68717763846E+02  0.00000000000E+00 0.  1.
        -13    1    1    2    0    0  0.28984438163E+03  0.62192099802E+01  0.63637490315E+03  0.69930070260E+03  0.10566000000E+00 0.  1.
         13    1    1    2    0    0 -0.28241666456E+02  0.23590355726E+02  0.13426394210E+02  0.39171109673E+02  0.10566000000E+00 0. -1.
          4    1    1    2  501    0 -0.26160271518E+03 -0.29809565706E+02  0.68642004290E+03  0.73518505567E+03  0.00000000000E+00 0.  1.
</event>
<event>
 5    1  0.4866530E-005  0.3463562E+03  0.7818608E-02  0.1022887E+00
         21   -1    0    0  501  502  0.00000000000E+00  0.00000000000E+00  0.29475456646E+03  0.29475456646E+03  0.00000000000E+00 0.  1.
          4   -1    0    0  502    0 -0.00000000000E+00 -0.00000000000E+00 -0.13869006390E+04  0.13869006390E+04  0.00000000000E+00 0.  1.
        -13    1    1    2    0    0  0.18753154955E+03 -0.29183053320E+03  0.12278054590E+03  0.36797855345E+03  0.10566000000E+00 0.  1.
         13    1    1    2    0    0  0.96123863715E+02  0.69707304095E+02 -0.48971500241E+03  0.50390445539E+03  0.10566000000E+00 0. -1.
          4    1    1    2  501    0 -0.28365541327E+03  0.22212322910E+03 -0.72521161606E+03  0.80977219664E+03  0.00000000000E+00 0.  1.
</event>
<event>
 5    1  0.4866530E-005  0.3018415E+03  0.7818608E-02  0.1006548E+00
          4   -1    0    0  502    0 -0.00000000000E+00  0.00000000000E+00  0.23727044106E+04  0.23727044106E+04  0.00000000000E+00 0.  1.
         21   -1    0    0  501  502  0.00000000000E+00 -0.00000000000E+00 -0.92605373295E+02  0.92605373295E+02  0.00000000000E+00 0. -1.
        -13    1    1    2    0    0  0.93821875780E+02  0.27500425512E+03  0.12778894489E+04  0.13105080464E+04  0.10566000000E+00 0.  1.
         13    1    1    2    0    0 -0.10483846564E+03 -0.30034296549E+03  0.10513515912E+04  0.10984248633E+04  0.10566000000E+00 0. -1.
          4    1    1    2  501    0  0.11016589859E+02  0.25338710369E+02 -0.49142002893E+02  0.56376874191E+02  0.00000000000E+00 0.  1.
</event>
<event>
 5    1  0.4866530E-005  0.1900763E+03  0.7818608E-02  0.1067160E+00
          4   -1    0    0  502    0 -0.00000000000E+00  0.00000000000E+00  0.47348716363E+03  0.47348716363E+03  0.00000000000E+00 0.  1.
         21   -1    0    0  501  502  0.00000000000E+00 -0.00000000000E+00 -0.12578313547E+03  0.12578313547E+03  0.00000000000E+00 0.  1.
        -13    1    1    2    0    0  0.14183549656E+03  0.14948173101E+03  0.23261723683E+03  0.31076178340E+03  0.10566000000E+00 0.  1.
         13    1    1    2    0    0 -0.12307007470E+03 -0.12340859587E+03  0.15776829308E+03  0.23508885615E+03  0.10566000000E+00 0. -1.
          4    1    1    2  501    0 -0.18765421857E+02 -0.26073135141E+02 -0.42681501751E+02  0.53419659539E+02  0.00000000000E+00 0.  1.
</event>
<event>
 5    1  0.4866530E-005  0.1268699E+03  0.7818608E-02  0.1126461E+00
         -4   -1    0    0    0  501 -0.00000000000E+00  0.00000000000E+00  0.17415946639E+03  0.17415946639E+03  0.00000000000E+00 0. -1.
         21   -1    0    0  501  502  0.00000000000E+00 -0.00000000000E+00 -0.14893579551E+03  0.14893579551E+03  0.00000000000E+00 0.  1.
        -13    1    1    2    0    0 -0.11390742927E+03 -0.76422529736E+02 -0.49855081185E+02  0.14594809275E+03  0.10566000000E+00 0.  1.
         13    1    1    2    0    0  0.89962640246E+02  0.85184231489E+02  0.84498370853E+02  0.14996538192E+03  0.10566000000E+00 0. -1.
         -4    1    1    2    0  502  0.23944789022E+02 -0.87617017531E+01 -0.94196187863E+01  0.27181787230E+02  0.00000000000E+00 0. -1.
</event>
<event>
 5    1  0.4866530E-005  0.4882735E+03  0.7818608E-02  0.9734174E-01
          4   -1    0    0  502    0 -0.00000000000E+00  0.00000000000E+00  0.21030938984E+04  0.21030938984E+04  0.00000000000E+00 0.  1.
         21   -1    0    0  501  502  0.00000000000E+00 -0.00000000000E+00 -0.18428724461E+03  0.18428724461E+03  0.00000000000E+00 0.  1.
        -13    1    1    2    0    0 -0.34461056900E+03  0.25688343728E+03  0.60682779681E+03  0.74362996898E+03  0.10566000000E+00 0.  1.
         13    1    1    2    0    0 -0.17636835567E+02  0.21532277863E+03  0.29914006352E+03  0.36899830045E+03  0.10566000000E+00 0. -1.
          4    1    1    2  501    0  0.36224740457E+03 -0.47220621591E+03  0.10128387934E+04  0.11747528735E+04  0.00000000000E+00 0.  1.
</event>
<event>
 5    1  0.4866530E-005  0.7324473E+02  0.7818608E-02  0.1218463E+00
         -4   -1    0    0    0  501 -0.00000000000E+00  0.00000000000E+00  0.20278568053E+03  0.20278568053E+03  0.00000000000E+00 0. -1.
         21   -1    0    0  501  502  0.00000000000E+00 -0.00000000000E+00 -0.52781623280E+02  0.52781623280E+02  0.00000000000E+00 0. -1.
        -13    1    1    2    0    0 -0.39025266565E+02 -0.46645477727E+02  0.30611254870E+02  0.68086945236E+02  0.10566000000E+00 0.  1.
         13    1    1    2    0    0  0.30336478418E+02  0.89530817895E+02  0.54206485641E+02  0.10896982851E+03  0.10566000000E+00 0. -1.
         -4    1    1    2    0  502  0.86887881468E+01 -0.42885340168E+02  0.65186316735E+02  0.78510530060E+02  0.00000000000E+00 0. -1.
</event>
<event>
 5    1  0.4866530E-005  0.2493309E+03  0.7818608E-02  0.1030740E+00
         -4   -1    0    0    0  501 -0.00000000000E+00  0.00000000000E+00  0.68005592708E+03  0.68005592708E+03  0.00000000000E+00 0. -1.
         21   -1    0    0  501  502  0.00000000000E+00 -0.00000000000E+00 -0.18243759685E+03  0.18243759685E+03  0.00000000000E+00 0.  1.
        -13    1    1    2    0    0 -0.25754506825E+03 -0.12519821836E+02 -0.73948651075E+01  0.25795523510E+03  0.10566000000E+00 0.  1.
         13    1    1    2    0    0  0.24492239050E+03  0.37408617111E+02  0.51766168769E+03  0.57389895981E+03  0.10566000000E+00 0. -1.
         -4    1    1    2    0  502  0.12622677752E+02 -0.24888795275E+02 -0.12648492352E+02  0.30639329018E+02  0.00000000000E+00 0. -1.
</event>
<event>
 5    1  0.4866530E-005  0.3972018E+03  0.7818608E-02  0.9931592E-01
          4   -1    0    0  502    0 -0.00000000000E+00  0.00000000000E+00  0.16970949798E+04  0.16970949798E+04  0.00000000000E+00 0.  1.
         21   -1    0    0  501  502  0.00000000000E+00 -0.00000000000E+00 -0.22613030635E+03  0.22613030635E+03  0.00000000000E+00 0.  1.
        -13    1    1    2    0    0  0.31333385552E+03 -0.86844795707E+02  0.11855342911E+04  0.12293135036E+04  0.10566000000E+00 0.  1.
         13    1    1    2    0    0  0.10322166760E+03  0.17764835176E+03  0.77723627851E+02  0.21966934933E+03  0.10566000000E+00 0. -1.
          4    1    1    2  501    0 -0.41655552312E+03 -0.90803556053E+02  0.20770675452E+03  0.47424243326E+03  0.00000000000E+00 0.  1.
</event>
<event>
 5    1  0.4866530E-005  0.2570675E+03  0.7818608E-02  0.1026794E+00
         21   -1    0    0  501  502  0.00000000000E+00  0.00000000000E+00  0.18842488721E+03  0.18842488721E+03  0.00000000000E+00 0. -1.
          4   -1    0    0  502    0 -0.00000000000E+00 -0.00000000000E+00 -0.12015142470E+04  0.12015142470E+04  0.00000000000E+00 0.  1.
        -13    1    1    2    0    0  0.21130707003E+03  0.15772228501E+03 -0.10043801625E+04  0.10384153885E+04  0.10566000000E+00 0.  1.
         13    1    1    2    0    0 -0.17732062790E+03 -0.14414781094E+03 -0.10279164288E+03  0.25057400002E+03  0.10566000000E+00 0. -1.
          4    1    1    2  501    0 -0.33986442129E+02 -0.13574474071E+02  0.94082445576E+02  0.10094974572E+03  0.00000000000E+00 0.  1.
</event>
<event>
 5    1  0.4866530E-005  0.4434804E+03  0.7818608E-02  0.9640071E-01
         21   -1    0    0  501  502  0.00000000000E+00  0.00000000000E+00  0.15893741911E+03  0.15893741911E+03  0.00000000000E+00 0. -1.
         -4   -1    0    0    0  501 -0.00000000000E+00 -0.00000000000E+00 -0.34478177563E+04  0.34478177563E+04  0.00000000000E+00 0. -1.
        -13    1    1    2    0    0 -0.24584816615E+03  0.31620017529E+03 -0.91611364061E+03  0.99984403050E+03  0.10566000000E+00 0.  1.
         13    1    1    2    0    0  0.48213033789E+03  0.93036446046E+02 -0.17926758356E+04  0.18587071059E+04  0.10566000000E+00 0. -1.
         -4    1    1    2    0  502 -0.23628217174E+03 -0.40923662134E+03 -0.58009086096E+03  0.74820403894E+03  0.00000000000E+00 0. -1.
</event>
<event>
 5    1  0.4866530E-005  0.4721912E+03  0.7818608E-02  0.9549994E-01
          4   -1    0    0  502    0 -0.00000000000E+00  0.00000000000E+00  0.11701045782E+04  0.11701045782E+04  0.00000000000E+00 0.  1.
         21   -1    0    0  501  502  0.00000000000E+00 -0.00000000000E+00 -0.69498442339E+03  0.69498442339E+03  0.00000000000E+00 0.  1.
        -13    1    1    2    0    0 -0.19987512957E+03 -0.28026822598E+03 -0.32678259700E+02  0.34578638744E+03  0.10566000000E+00 0.  1.
         13    1    1    2    0    0 -0.46583499842E+03 -0.11495791892E+03  0.56709594652E+03  0.74284277785E+03  0.10566000000E+00 0. -1.
          4    1    1    2  501    0  0.66571012798E+03  0.39522614490E+03 -0.59297531994E+02  0.77645983632E+03  0.00000000000E+00 0.  1.
</event>
<event>
 5    1  0.5233774E-005  0.7165011E+02  0.7818608E-02  0.1244136E+00
          4   -1    0    0  502    0 -0.00000000000E+00  0.00000000000E+00  0.31138386724E+04  0.31138386724E+04  0.00000000000E+00 0.  1.
         21   -1    0    0  501  502  0.00000000000E+00 -0.00000000000E+00 -0.95432751427E+02  0.95432751427E+02  0.00000000000E+00 0.  1.
        -13    1    1    2    0    0 -0.41268704066E+02 -0.38672842639E+02 -0.77214975129E+02  0.95712372457E+02  0.10566000000E+00 0.  1.
         13    1    1    2    0    0 -0.88610304364E+02  0.18389930992E+02  0.26767396859E+03  0.28255856070E+03  0.10566000000E+00 0. -1.
          4    1    1    2  501    0  0.12987900843E+03  0.20282911647E+02  0.28279469275E+04  0.28310004906E+04  0.00000000000E+00 0.  1.
</event>
<event>
 5    1  0.4866530E-005  0.4975432E+03  0.7818608E-02  0.1018324E+00
         -4   -1    0    0    0  501 -0.00000000000E+00  0.00000000000E+00  0.41701845718E+03  0.41701845718E+03  0.00000000000E+00 0. -1.
         21   -1    0    0  501  502  0.00000000000E+00 -0.00000000000E+00 -0.79098358461E+03  0.79098358461E+03  0.00000000000E+00 0. -1.
        -13    1    1    2    0    0  0.21192822573E+02  0.41101403402E+02  0.95316346346E+02  0.10594186205E+03  0.10566000000E+00 0.  1.
         13    1    1    2    0    0  0.29850946006E+03 -0.40988291982E+03 -0.27417477414E+03  0.57644056384E+03  0.10566000000E+00 0. -1.
         -4    1    1    2    0  502 -0.31970228264E+03  0.36878151641E+03 -0.19510669964E+03  0.52561961590E+03  0.00000000000E+00 0. -1.
</event>
<event>
 5    1  0.4866530E-005  0.2357043E+03  0.7818608E-02  0.1038079E+00
         -4   -1    0    0    0  501 -0.00000000000E+00  0.00000000000E+00  0.47021314130E+03  0.47021314130E+03  0.00000000000E+00 0. -1.
         21   -1    0    0  501  502  0.00000000000E+00 -0.00000000000E+00 -0.20689651786E+03  0.20689651786E+03  0.00000000000E+00 0. -1.
        -13    1    1    2    0    0  0.19461826130E+03  0.12013492705E+03  0.11921284726E+03  0.25791545600E+03  0.10566000000E+00 0.  1.
         13    1    1    2    0    0 -0.22244639108E+03 -0.95610445819E+02  0.22479331789E+03  0.33038735022E+03  0.10566000000E+00 0. -1.
         -4    1    1    2    0  502  0.27828129778E+02 -0.24524481231E+02 -0.80689541720E+02  0.88806852942E+02  0.00000000000E+00 0. -1.
</event>
<event>
 5    1  0.4866530E-005  0.4500608E+03  0.7818608E-02  0.9750216E-01
         21   -1    0    0  501  502  0.00000000000E+00  0.00000000000E+00  0.26514030441E+03  0.26514030441E+03  0.00000000000E+00 0. -1.
         -4   -1    0    0    0  501 -0.00000000000E+00 -0.00000000000E+00 -0.17498925960E+04  0.17498925960E+04  0.00000000000E+00 0. -1.
        -13    1    1    2    0    0  0.11772895073E+03 -0.23295125353E+03 -0.58593775205E+03  0.64144325767E+03  0.10566000000E+00 0.  1.
         13    1    1    2    0    0 -0.15082863371E+03  0.61358953436E+03 -0.69959647587E+03  0.94269646952E+03  0.10566000000E+00 0. -1.
         -4    1    1    2    0  502  0.33099682977E+02 -0.38063828083E+03 -0.19921806368E+03  0.43089317323E+03  0.00000000000E+00 0. -1.
</event>
<event>
 5    1  0.4866530E-005  0.7530402E+02  0.7818608E-02  0.1213461E+00
          4   -1    0    0  502    0 -0.00000000000E+00  0.00000000000E+00  0.24459053603E+03  0.24459053603E+03  0.00000000000E+00 0.  1.
         21   -1    0    0  501  502  0.00000000000E+00 -0.00000000000E+00 -0.49345524447E+02  0.49345524447E+02  0.00000000000E+00 0.  1.
        -13    1    1    2    0    0 -0.30882594884E+02 -0.62691656482E+02  0.13565883991E+03  0.15260180362E+03  0.10566000000E+00 0.  1.
         13    1    1    2    0    0  0.52824940488E+02  0.73098660084E+02  0.70729159148E+02  0.11461463066E+03  0.10566000000E+00 0. -1.
          4    1    1    2  501    0 -0.21942345604E+02 -0.10407003602E+02 -0.11142987468E+02  0.26719626200E+02  0.00000000000E+00 0.  1.
</event>
<event>
 5    1  0.4866530E-005  0.3359822E+03  0.7818608E-02  0.9934707E-01
         -4   -1    0    0    0  501 -0.00000000000E+00  0.00000000000E+00  0.12717829524E+04  0.12717829524E+04  0.00000000000E+00 0. -1.
         21   -1    0    0  501  502  0.00000000000E+00 -0.00000000000E+00 -0.45164094378E+03  0.45164094378E+03  0.00000000000E+00 0. -1.
        -13    1    1    2    0    0  0.34057422301E+03 -0.73894310164E+01  0.50019746760E+03  0.60518007471E+03  0.10566000000E+00 0.  1.
         13    1    1    2    0    0 -0.27389060989E+03  0.26692779549E+03  0.61213202345E+03  0.72178399780E+03  0.10566000000E+00 0. -1.
         -4    1    1    2    0  502 -0.66683613117E+02 -0.25953836447E+03 -0.29218748243E+03  0.39645982366E+03  0.00000000000E+00 0. -1.
</event>
<event>
 5    1  0.4866530E-005  0.5425282E+03  0.7818608E-02  0.9531260E-01
         21   -1    0    0  501  502  0.00000000000E+00  0.00000000000E+00  0.44529043051E+03  0.44529043051E+03  0.00000000000E+00 0. -1.
         -4   -1    0    0    0  501 -0.00000000000E+00 -0.00000000000E+00 -0.14125295130E+04  0.14125295130E+04  0.00000000000E+00 0. -1.
        -13    1    1    2    0    0 -0.24786996639E+03  0.20641198405E+03 -0.57592987241E+03  0.66010654935E+03  0.10566000000E+00 0.  1.
         13    1    1    2    0    0 -0.40580609250E+03  0.13071266223E+02 -0.29412819909E+03  0.50135900448E+03  0.10566000000E+00 0. -1.
         -4    1    1    2    0  502  0.65367605889E+03 -0.21948325028E+03 -0.97181010972E+02  0.69635438967E+03  0.00000000000E+00 0. -1.
</event>
<event>
 5    1  0.4866530E-005  0.3874472E+03  0.7818608E-02  0.9970809E-01
          4   -1    0    0  502    0 -0.00000000000E+00  0.00000000000E+00  0.98329039683E+03  0.98329039683E+03  0.00000000000E+00 0.  1.
         21   -1    0    0  501  502  0.00000000000E+00 -0.00000000000E+00 -0.52101747619E+03  0.52101747619E+03  0.00000000000E+00 0.  1.
        -13    1    1    2    0    0  0.25312844043E+03 -0.24917331225E+03 -0.23677357175E+03  0.42687595662E+03  0.10566000000E+00 0.  1.
         13    1    1    2    0    0  0.18332441790E+03 -0.64737510619E+02  0.43921063628E+03  0.48031737598E+03  0.10566000000E+00 0. -1.
          4    1    1    2  501    0 -0.43645285833E+03  0.31391082287E+03  0.25983585611E+03  0.59711454042E+03  0.00000000000E+00 0.  1.
</event>
<event>
 5    1  0.4866530E-005  0.1020745E+03  0.7818608E-02  0.1161168E+00
         -4   -1    0    0    0  501 -0.00000000000E+00  0.00000000000E+00  0.52082628026E+02  0.52082628026E+02  0.00000000000E+00 0. -1.
         21   -1    0    0  501  502  0.00000000000E+00 -0.00000000000E+00 -0.43437361945E+03  0.43437361945E+03  0.00000000000E+00 0.  1.
        -13    1    1    2    0    0  0.10175024845E+03  0.56292099809E+02 -0.24588908024E+03  0.27199883181E+03  0.10566000000E+00 0.  1.
         13    1    1    2    0    0 -0.88185205848E+02 -0.44126408438E+02 -0.25207776901E+02  0.10178022221E+03  0.10566000000E+00 0. -1.
         -4    1    1    2    0  502 -0.13565042597E+02 -0.12165691372E+02 -0.11119413428E+03  0.11267719346E+03  0.00000000000E+00 0. -1.
</event>
<event>
 5    1  0.4866530E-005  0.1009169E+03  0.7818608E-02  0.1163047E+00
         21   -1    0    0  501  502  0.00000000000E+00  0.00000000000E+00  0.60248158425E+02  0.60248158425E+02  0.00000000000E+00 0. -1.
          4   -1    0    0  502    0 -0.00000000000E+00 -0.00000000000E+00 -0.51822570788E+03  0.51822570788E+03  0.00000000000E+00 0.  1.
        -13    1    1    2    0    0 -0.95765567335E+02 -0.33918597429E+02 -0.43723372015E+03  0.44888177991E+03  0.10566000000E+00 0.  1.
         13    1    1    2    0    0  0.88327552045E+02  0.41450742865E+02 -0.41705017933E+02  0.10610956705E+03  0.10566000000E+00 0. -1.
          4    1    1    2  501    0  0.74380152906E+01 -0.75321454363E+01  0.20961188624E+02  0.23482519347E+02  0.00000000000E+00 0.  1.
</event>
<event>
 5    1  0.4866530E-005  0.6342674E+02  0.7818608E-02  0.1245108E+00
         21   -1    0    0  501  502  0.00000000000E+00  0.00000000000E+00  0.81632153627E+02  0.81632153627E+02  0.00000000000E+00 0.  1.
         -4   -1    0    0    0  501 -0.00000000000E+00 -0.00000000000E+00 -0.82514122279E+02  0.82514122279E+02  0.00000000000E+00 0. -1.
        -13    1    1    2    0    0  0.61474190285E+02  0.22494696667E+01  0.40997763496E+02  0.73925394559E+02  0.10566000000E+00 0.  1.
         13    1    1    2    0    0 -0.62292731112E+02 -0.16185443447E+02 -0.40833709716E+02  0.76221755045E+02  0.10566000000E+00 0. -1.
         -4    1    1    2    0  502  0.81854082628E+00  0.13935973780E+02 -0.10460224320E+01  0.13999126302E+02  0.00000000000E+00 0. -1.
</event>
<event>
 5    1  0.4866530E-005  0.5046059E+03  0.7818608E-02  0.9652123E-01
         21   -1    0    0  501  502  0.00000000000E+00  0.00000000000E+00  0.66195363778E+03  0.66195363778E+03  0.00000000000E+00 0.  1.
          4   -1    0    0  502    0 -0.00000000000E+00 -0.00000000000E+00 -0.85955013391E+03  0.85955013391E+03  0.00000000000E+00 0.  1.
        -13    1    1    2    0    0  0.17223046748E+03  0.34676491806E+03 -0.12411569793E+02  0.38738004667E+03  0.10566000000E+00 0.  1.
         13    1    1    2    0    0  0.14585969467E+03  0.21594890600E+03 -0.37841504733E+03  0.45946375237E+03  0.10566000000E+00 0. -1.
          4    1    1    2  501    0 -0.31809016215E+03 -0.56271382406E+03  0.19323012100E+03  0.67465997265E+03  0.00000000000E+00 0.  1.
</event>
<event>
 5    1  0.4866530E-005  0.4892047E+03  0.7818608E-02  0.9746865E-01
          4   -1    0    0  502    0 -0.00000000000E+00  0.00000000000E+00  0.88914728940E+03  0.88914728940E+03  0.00000000000E+00 0.  1.
         21   -1    0    0  501  502  0.00000000000E+00 -0.00000000000E+00 -0.44756209223E+03  0.44756209223E+03  0.00000000000E+00 0.  1.
        -13    1    1    2    0    0  0.54839722422E+02 -0.56287757264E+03  0.35024918826E+02  0.56662625516E+03  0.10566000000E+00 0.  1.
         13    1    1    2    0    0 -0.53674027913E+02  0.19846848395E+03 -0.22877551157E+02  0.20686718905E+03  0.10566000000E+00 0. -1.
          4    1    1    2  501    0 -0.11656945091E+01  0.36440908869E+03  0.42943782949E+03  0.56321593742E+03  0.00000000000E+00 0.  1.
</event>
<event>
 5    1  0.4866530E-005  0.7108010E+02  0.7818608E-02  0.1223922E+00
         21   -1    0    0  501  502  0.00000000000E+00  0.00000000000E+00  0.27156254318E+03  0.27156254318E+03  0.00000000000E+00 0.  1.
         -4   -1    0    0    0  501 -0.00000000000E+00 -0.00000000000E+00 -0.44010358651E+02  0.44010358651E+02  0.00000000000E+00 0. -1.
        -13    1    1    2    0    0  0.45089795528E+02  0.72130305256E+02  0.15823694415E+03  0.17965191970E+03  0.10566000000E+00 0.  1.
         13    1    1    2    0    0 -0.36922791062E+02 -0.57224820004E+02  0.37689510367E+01  0.68206954779E+02  0.10566000000E+00 0. -1.
         -4    1    1    2    0  502 -0.81670044656E+01 -0.14905485252E+02  0.65546289342E+02  0.67714027344E+02  0.00000000000E+00 0. -1.
</event>
<event>
 5    1  0.4866530E-005  0.3576118E+03  0.7818608E-02  0.9860150E-01
         -4   -1    0    0    0  501 -0.00000000000E+00  0.00000000000E+00  0.25228918014E+04  0.25228918014E+04  0.00000000000E+00 0. -1.
         21   -1    0    0  501  502  0.00000000000E+00 -0.00000000000E+00 -0.17237732856E+03  0.17237732856E+03  0.00000000000E+00 0. -1.
        -13    1    1    2    0    0 -0.27711830609E+03 -0.31533566408E+02  0.61322437865E+03  0.67367133761E+03  0.10566000000E+00 0.  1.
         13    1    1    2    0    0  0.40370567239E+03  0.13443155202E+03  0.17979036396E+04  0.18475680287E+04  0.10566000000E+00 0. -1.
         -4    1    1    2    0  502 -0.12658736630E+03 -0.10289798562E+03 -0.60613545439E+02  0.17402976366E+03  0.00000000000E+00 0. -1.
</event>
<event>
 5    1  0.4866530E-005  0.4346034E+03  0.7818608E-02  0.9634124E-01
         -4   -1    0    0    0  501 -0.00000000000E+00  0.00000000000E+00  0.11524123300E+04  0.11524123300E+04  0.00000000000E+00 0. -1.
         21   -1    0    0  501  502  0.00000000000E+00 -0.00000000000E+00 -0.55174182761E+03  0.55174182761E+03  0.00000000000E+00 0. -1.
        -13    1    1    2    0    0 -0.32832868587E+03  0.28761531724E+03  0.40065077181E+03  0.59248911281E+03  0.10566000000E+00 0.  1.
         13    1    1    2    0    0  0.56998370818E+03  0.73012840361E+02 -0.10093497756E+03  0.58343824293E+03  0.10566000000E+00 0. -1.
         -4    1    1    2    0  502 -0.24165502232E+03 -0.36062815760E+03  0.30095470813E+03  0.52822680187E+03  0.00000000000E+00 0. -1.
</event>
<event>
 5    1  0.4866530E-005  0.1775450E+03  0.7818608E-02  0.1076725E+00
         21   -1    0    0  501  502  0.00000000000E+00  0.00000000000E+00  0.61363449053E+02  0.61363449053E+02  0.00000000000E+00 0. -1.
          4   -1    0    0  502    0 -0.00000000000E+00 -0.00000000000E+00 -0.95658808195E+03  0.95658808195E+03  0.00000000000E+00 0.  1.
        -13    1    1    2    0    0 -0.16233283744E+03 -0.65582126741E+02 -0.63431102698E+03  0.65802998075E+03  0.10566000000E+00 0.  1.
         13    1    1    2    0    0  0.14988977477E+03  0.11642199359E+03 -0.23328261951E+03  0.30073546000E+03  0.10566000000E+00 0. -1.
          4    1    1    2  501    0  0.12443062676E+02 -0.50839866846E+02 -0.27630986415E+02  0.59186090257E+02  0.00000000000E+00 0.  1.
</event>
<event>
 5    1  0.4866530E-005  0.4592714E+03  0.7818608E-02  0.9886372E-01
         21   -1    0    0  501  502  0.00000000000E+00  0.00000000000E+00  0.18565990488E+03  0.18565990488E+03  0.00000000000E+00 0.  1.
          4   -1    0    0  502    0 -0.00000000000E+00 -0.00000000000E+00 -0.22911642881E+04  0.22911642881E+04  0.00000000000E+00 0.  1.
        -13    1    1    2    0    0  0.14664269651E+03 -0.47432242412E+03 -0.27804526359E+03  0.56902989573E+03  0.10566000000E+00 0.  1.
         13    1    1    2    0    0  0.37240896858E+02  0.15001922150E+03 -0.79985885232E+03  0.81465750228E+03  0.10566000000E+00 0. -1.
          4    1    1    2  501    0 -0.18388359337E+03  0.32430320262E+03 -0.10276002673E+04  0.10931367950E+04  0.00000000000E+00 0.  1.
</event>
<event>
 5    1  0.4866530E-005  0.2606987E+03  0.7818608E-02  0.1024993E+00
          4   -1    0    0  502    0 -0.00000000000E+00  0.00000000000E+00  0.17572852822E+04  0.17572852822E+04  0.00000000000E+00 0.  1.
         21   -1    0    0  501  502  0.00000000000E+00 -0.00000000000E+00 -0.31573088859E+03  0.31573088859E+03  0.00000000000E+00 0.  1.
        -13    1    1    2    0    0  0.19732000662E+03 -0.38145379753E+01 -0.25838976945E+03  0.32513846256E+03  0.10566000000E+00 0.  1.
         13    1    1    2    0    0 -0.25129802636E+03 -0.87298333338E+02  0.83199041518E+03  0.87348712593E+03  0.10566000000E+00 0. -1.
          4    1    1    2  501    0  0.53978019746E+02  0.91112871314E+02  0.86795374787E+03  0.87439058227E+03  0.00000000000E+00 0.  1.
</event>
<event>
 5    1  0.4866530E-005  0.2473559E+03  0.7818608E-02  0.1031772E+00
         21   -1    0    0  501  502  0.00000000000E+00  0.00000000000E+00  0.69423759119E+03  0.69423759119E+03  0.00000000000E+00 0.  1.
          4   -1    0    0  502    0 -0.00000000000E+00 -0.00000000000E+00 -0.47562326958E+03  0.47562326958E+03  0.00000000000E+00 0.  1.
        -13    1    1    2    0    0 -0.12413624066E+03  0.22783095148E+03 -0.20503917557E+03  0.33069294425E+03  0.10566000000E+00 0.  1.
         13    1    1    2    0    0  0.12509696159E+03 -0.19870884743E+03 -0.14091647552E+03  0.27384652651E+03  0.10566000000E+00 0. -1.
          4    1    1    2  501    0 -0.96072093050E+00 -0.29122104050E+02  0.56456997270E+03  0.56532139001E+03  0.00000000000E+00 0.  1.
</event>
<event>
 5    1  0.4866530E-005  0.4561901E+03  0.7818608E-02  0.9947668E-01
         21   -1    0    0  501  502  0.00000000000E+00  0.00000000000E+00  0.25462370763E+03  0.25462370763E+03  0.00000000000E+00 0.  1.
          4   -1    0    0  502    0 -0.00000000000E+00 -0.00000000000E+00 -0.15556141446E+04  0.15556141446E+04  0.00000000000E+00 0.  1.
        -13    1    1    2    0    0  0.25708079479E+03  0.37714867960E+03 -0.13114269568E+03  0.47490007303E+03  0.10566000000E+00 0.  1.
         13    1    1    2    0    0  0.10266684553E+03 -0.77401234366E+02 -0.51171960863E+03  0.52762524700E+03  0.10566000000E+00 0. -1.
          4    1    1    2  501    0 -0.35974764032E+03 -0.29974744523E+03 -0.65812813262E+03  0.80771253214E+03  0.00000000000E+00 0.  1.
</event>
<event>
 5    1  0.4866530E-005  0.4819276E+03  0.7818608E-02  0.9882129E-01
         21   -1    0    0  501  502  0.00000000000E+00  0.00000000000E+00  0.32781519884E+03  0.32781519884E+03  0.00000000000E+00 0. -1.
         -4   -1    0    0    0  501 -0.00000000000E+00 -0.00000000000E+00 -0.10051496118E+04  0.10051496118E+04  0.00000000000E+00 0. -1.
        -13    1    1    2    0    0 -0.14929103971E+02 -0.13487631834E+03 -0.19998883144E+03  0.24168169823E+03  0.10566000000E+00 0.  1.
         13    1    1    2    0    0  0.48339553561E+03 -0.54792430759E+01 -0.31055220762E+03  0.57458154406E+03  0.10566000000E+00 0. -1.
         -4    1    1    2    0  502 -0.46846643164E+03  0.14035556142E+03 -0.16679337394E+03  0.51670156839E+03  0.00000000000E+00 0. -1.
</event>
<event>
 5    1  0.4866530E-005  0.4926726E+03  0.7818608E-02  0.9494178E-01
         21   -1    0    0  501  502  0.00000000000E+00  0.00000000000E+00  0.24108812285E+04  0.24108812285E+04  0.00000000000E+00 0.  1.
         -4   -1    0    0    0  501 -0.00000000000E+00 -0.00000000000E+00 -0.25800444333E+03  0.25800444333E+03  0.00000000000E+00 0. -1.
        -13    1    1    2    0    0  0.38401920064E+03 -0.26263601503E+03  0.76401941557E+03  0.89452451133E+03  0.10566000000E+00 0.  1.
         13    1    1    2    0    0 -0.61232960591E+03 -0.13753765300E+03  0.94646087733E+03  0.11356286170E+04  0.10566000000E+00 0. -1.
         -4    1    1    2    0  502  0.22831040527E+03  0.40017366803E+03  0.44239649224E+03  0.63873254346E+03  0.00000000000E+00 0. -1.
</event>
<event>
 5    1  0.4866530E-005  0.2676607E+03  0.7818608E-02  0.1043123E+00
          4   -1    0    0  502    0 -0.00000000000E+00  0.00000000000E+00  0.22725354326E+04  0.22725354326E+04  0.00000000000E+00 0.  1.
         21   -1    0    0  501  502  0.00000000000E+00 -0.00000000000E+00 -0.17515942429E+03  0.17515942429E+03  0.00000000000E+00 0.  1.
        -13    1    1    2    0    0 -0.27120467039E+03  0.19631983672E+03  0.13571087227E+04  0.13977973915E+04  0.10566000000E+00 0.  1.
         13    1    1    2    0    0  0.13842370251E+02 -0.13747865156E+03  0.77175189232E+03  0.78402358722E+03  0.10566000000E+00 0. -1.
          4    1    1    2  501    0  0.25736230014E+03 -0.58841185161E+02 -0.31484606685E+02  0.26587387811E+03  0.00000000000E+00 0.  1.
</event>
<event>
 5    1  0.4866530E-005  0.2089530E+03  0.7818608E-02  0.1054166E+00
          4   -1    0    0  502    0 -0.00000000000E+00  0.00000000000E+00  0.18099143722E+04  0.18099143722E+04  0.00000000000E+00 0.  1.
         21   -1    0    0  501  502  0.00000000000E+00 -0.00000000000E+00 -0.14735322861E+03  0.14735322861E+03  0.00000000000E+00 0.  1.
        -13    1    1    2    0    0  0.12008192146E+03 -0.17867829332E+03  0.62689103941E+03  0.66282575902E+03  0.10566000000E+00 0.  1.
         13    1    1    2    0    0 -0.54820588322E+01  0.21787121397E+03  0.11237473450E+04  0.11446859942E+04  0.10566000000E+00 0. -1.
          4    1    1    2  501    0 -0.11459986263E+03 -0.39192920650E+02 -0.88077240786E+02  0.14975584759E+03  0.00000000000E+00 0.  1.
</event>
<event>
 5    1  0.4866530E-005  0.2325459E+03  0.7818608E-02  0.1039857E+00
          4   -1    0    0  502    0 -0.00000000000E+00  0.00000000000E+00  0.10475918395E+04  0.10475918395E+04  0.00000000000E+00 0.  1.
         21   -1    0    0  501  502  0.00000000000E+00 -0.00000000000E+00 -0.61792678265E+02  0.61792678265E+02  0.00000000000E+00 0. -1.
        -13    1    1    2    0    0 -0.22976263756E+03  0.38558707721E+01  0.63408724725E+03  0.67444227748E+03  0.10566000000E+00 0.  1.
         13    1    1    2    0    0  0.23732080378E+03 -0.10473820289E+02  0.35226811118E+03  0.42488080462E+03  0.10566000000E+00 0. -1.
          4    1    1    2  501    0 -0.75581662195E+01  0.66179495166E+01 -0.55619719400E+00  0.10061435669E+02  0.00000000000E+00 0.  1.
</event>
<event>
 5    1  0.4866530E-005  0.1798227E+03  0.7818608E-02  0.1074924E+00
         21   -1    0    0  501  502  0.00000000000E+00  0.00000000000E+00  0.12485853443E+03  0.12485853443E+03  0.00000000000E+00 0. -1.
         -4   -1    0    0    0  501 -0.00000000000E+00 -0.00000000000E+00 -0.67470623632E+03  0.67470623632E+03  0.00000000000E+00 0. -1.
        -13    1    1    2    0    0 -0.10555166980E+03 -0.10980644623E+03 -0.72760295732E+02  0.16879775600E+03  0.10566000000E+00 0.  1.
         13    1    1    2    0    0  0.12637745649E+03  0.14080250650E+03 -0.53184067182E+03  0.56449191200E+03  0.10566000000E+00 0. -1.
         -4    1    1    2    0  502 -0.20825786693E+02 -0.30996060263E+02  0.54753265663E+02  0.66275102746E+02  0.00000000000E+00 0. -1.
</event>
<event>
 5    1  0.4866530E-005  0.1962689E+03  0.7818608E-02  0.1090726E+00
         21   -1    0    0  501  502  0.00000000000E+00  0.00000000000E+00  0.81449246560E+03  0.81449246560E+03  0.00000000000E+00 0.  1.
          4   -1    0    0  502    0 -0.00000000000E+00 -0.00000000000E+00 -0.54346734620E+03  0.54346734620E+03  0.00000000000E+00 0.  1.
        -13    1    1    2    0    0 -0.78957874642E+02 -0.10096522210E+03  0.47677103361E+03  0.49369925227E+03  0.10566000000E+00 0.  1.
         13    1    1    2    0    0  0.32166501901E+02 -0.28983234411E+03  0.15509948257E+03  0.33029279768E+03  0.10566000000E+00 0. -1.
          4    1    1    2  501    0  0.46791372741E+02  0.39079756621E+03 -0.36084539678E+03  0.53396776186E+03  0.00000000000E+00 0.  1.
</event>
<event>
 5    1  0.4866530E-005  0.4815977E+03  0.7818608E-02  0.1022175E+00
         21   -1    0    0  501  502  0.00000000000E+00  0.00000000000E+00  0.40738610320E+03  0.40738610320E+03  0.00000000000E+00 0.  1.
          4   -1    0    0  502    0 -0.00000000000E+00 -0.00000000000E+00 -0.69780777432E+03  0.69780777432E+03  0.00000000000E+00 0.  1.
        -13    1    1    2    0    0 -0.14658900171E+03  0.45689117097E+03 -0.16573193843E+02  0.48011723511E+03  0.10566000000E+00 0.  1.
         13    1    1    2    0    0 -0.44083836103E+02 -0.98254743279E+01  0.27812694647E+02  0.53042263327E+02  0.10566000000E+00 0. -1.
          4    1    1    2  501    0  0.19067283781E+03 -0.44706569664E+03 -0.30166117193E+03  0.57203437908E+03  0.00000000000E+00 0.  1.
</event>
<event>
 5    1  0.4866530E-005  0.1026595E+03  0.7818608E-02  0.1160229E+00
         -4   -1    0    0    0  501 -0.00000000000E+00  0.00000000000E+00  0.44560288212E+03  0.44560288212E+03  0.00000000000E+00 0. -1.
         21   -1    0    0  501  502  0.00000000000E+00 -0.00000000000E+00 -0.57695872421E+02  0.57695872421E+02  0.00000000000E+00 0.  1.
        -13    1    1    2    0    0 -0.92276500494E+02  0.49992573971E+02  0.37386391830E+02  0.11140899180E+03  0.10566000000E+00 0.  1.
         13    1    1    2    0    0  0.80393675585E+02 -0.63531756358E+02  0.35800682567E+03  0.37238196188E+03  0.10566000000E+00 0. -1.
         -4    1    1    2    0  502  0.11882824909E+02  0.13539182387E+02 -0.74862077980E+01  0.19507800868E+02  0.00000000000E+00 0. -1.
</event>
<event>
 5    1  0.4866530E-005  0.4915514E+03  0.7818608E-02  0.9637090E-01
         21   -1    0    0  501  502  0.00000000000E+00  0.00000000000E+00  0.22993639097E+03  0.22993639097E+03  0.00000000000E+00 0.  1.
          4   -1    0    0  502    0 -0.00000000000E+00 -0.00000000000E+00 -0.28465508917E+04  0.28465508917E+04  0.00000000000E+00 0.  1.
        -13    1    1    2    0    0  0.15527466637E+03 -0.31515142264E+03 -0.71298470692E+03  0.79484454120E+03  0.10566000000E+00 0.  1.
         13    1    1    2    0    0  0.28281899432E+03 -0.91487542624E+02 -0.15684118002E+04  0.15963308367E+04  0.10566000000E+00 0. -1.
          4    1    1    2  501    0 -0.43809366068E+03  0.40663896526E+03 -0.33521799362E+03  0.68531190479E+03  0.00000000000E+00 0.  1.
</event>
<event>
 5    1  0.4866530E-005  0.4793240E+02  0.7818608E-02  0.1300444E+00
          4   -1    0    0  502    0 -0.00000000000E+00  0.00000000000E+00  0.19245589493E+03  0.19245589493E+03  0.00000000000E+00 0.  1.
         21   -1    0    0  501  502  0.00000000000E+00 -0.00000000000E+00 -0.86770664596E+02  0.86770664596E+02  0.00000000000E+00 0.  1.
        -13    1    1    2    0    0 -0.86913377795E+01  0.53988917530E+02  0.10898716119E+03  0.12193668454E+03  0.10566000000E+00 0.  1.
         13    1    1    2    0    0  0.62491574948E+01 -0.41468018160E+02  0.70697054170E+02  0.82199349948E+02  0.10566000000E+00 0. -1.
          4    1    1    2  501    0  0.24421802848E+01 -0.12520899370E+02 -0.73998985026E+02  0.75090525038E+02  0.00000000000E+00 0.  1.
</event>
<event>
 5    1  0.4866530E-005  0.4687032E+03  0.7818608E-02  0.9840821E-01
         21   -1    0    0  501  502  0.00000000000E+00  0.00000000000E+00  0.50579573225E+03  0.50579573225E+03  0.00000000000E+00 0.  1.
          4   -1    0    0  502    0 -0.00000000000E+00 -0.00000000000E+00 -0.99236804693E+03  0.99236804693E+03  0.00000000000E+00 0.  1.
        -13    1    1    2    0    0 -0.46118860039E+03  0.23747949250E+03 -0.12981823050E+03  0.53473752311E+03  0.10566000000E+00 0.  1.
         13    1    1    2    0    0  0.15402945585E+02 -0.16885750237E+03 -0.46893512707E+03  0.49864844470E+03  0.10566000000E+00 0. -1.
          4    1    1    2  501    0  0.44578565480E+03 -0.68621990130E+02  0.11218104289E+03  0.46477781137E+03  0.00000000000E+00 0.  1.
</event>
<event>
 5    1  0.4866530E-005  0.3292391E+03  0.7818608E-02  0.1034990E+00
          4   -1    0    0  502    0 -0.00000000000E+00  0.00000000000E+00  0.18690707549E+04  0.18690707549E+04  0.00000000000E+00 0.  1.
         21   -1    0    0  501  502  0.00000000000E+00 -0.00000000000E+00 -0.16931456651E+03  0.16931456651E+03  0.00000000000E+00 0.  1.
        -13    1    1    2    0    0  0.15551962225E+03 -0.38173847024E+03  0.14019520047E+04  0.14612939633E+04  0.10566000000E+00 0.  1.
         13    1    1    2    0    0 -0.45961632288E+02  0.83176144968E+02  0.23422572743E+03  0.25276954977E+03  0.10566000000E+00 0. -1.
          4    1    1    2  501    0 -0.10955798996E+03  0.29856232528E+03  0.63578456211E+02  0.32432180829E+03  0.00000000000E+00 0.  1.
</event>
<event>
 5    1  0.4866530E-005  0.9464493E+02  0.7818608E-02  0.1173733E+00
         21   -1    0    0  501  502  0.00000000000E+00  0.00000000000E+00  0.15376857107E+03  0.15376857107E+03  0.00000000000E+00 0.  1.
         -4   -1    0    0    0  501 -0.00000000000E+00 -0.00000000000E+00 -0.11465353673E+03  0.11465353673E+03  0.00000000000E+00 0. -1.
        -13    1    1    2    0    0 -0.85818356818E+00 -0.86924504010E+02  0.95153790220E+02  0.12888312858E+03  0.10566000000E+00 0.  1.
         13    1    1    2    0    0  0.21799576048E+02  0.94348837345E+02 -0.63846639086E+02  0.11598848698E+03  0.10566000000E+00 0. -1.
         -4    1    1    2    0  502 -0.20941392480E+02 -0.74243333355E+01  0.78078832079E+01  0.23550492238E+02  0.00000000000E+00 0. -1.
</event>
<event>
 5    1  0.4866530E-005  0.4222785E+03  0.7818608E-02  0.9666823E-01
         21   -1    0    0  501  502  0.00000000000E+00  0.00000000000E+00  0.28944956281E+03  0.28944956281E+03  0.00000000000E+00 0.  1.
         -4   -1    0    0    0  501 -0.00000000000E+00 -0.00000000000E+00 -0.82915628094E+03  0.82915628094E+03  0.00000000000E+00 0. -1.
        -13    1    1    2    0    0 -0.29072036661E+03 -0.28051504282E+03 -0.15575192148E+03  0.43297308579E+03  0.10566000000E+00 0.  1.
         13    1    1    2    0    0  0.30718712898E+03  0.30658632520E+03 -0.44228256025E+03  0.61965553437E+03  0.10566000000E+00 0. -1.
         -4    1    1    2    0  502 -0.16466762367E+02 -0.26071282387E+02  0.58327763593E+02  0.65977223600E+02  0.00000000000E+00 0. -1.
</event>
<event>
 5    1  0.4866530E-005  0.4396679E+03  0.7818608E-02  0.9621021E-01
          4   -1    0    0  502    0 -0.00000000000E+00  0.00000000000E+00  0.80083960922E+03  0.80083960922E+03  0.00000000000E+00 0.  1.
         21   -1    0    0  501  502  0.00000000000E+00 -0.00000000000E+00 -0.39328515201E+03  0.39328515201E+03  0.00000000000E+00 0. -1.
        -13    1    1    2    0    0 -0.37087373772E+03  0.26535301748E+03  0.51315021753E+03  0.68650033513E+03  0.10566000000E+00 0.  1.
         13    1    1    2    0    0  0.28148765451E+03 -0.28470348748E+03 -0.58060665192E+02  0.40455213191E+03  0.10566000000E+00 0. -1.
          4    1    1    2  501    0  0.89386083206E+02  0.19350470003E+02 -0.47535095128E+02  0.10307229419E+03  0.00000000000E+00 0.  1.
</event>
<event>
 5    1  0.4866530E-005  0.4142785E+03  0.7818608E-02  0.1001871E+00
          4   -1    0    0  502    0 -0.00000000000E+00  0.00000000000E+00  0.19770668593E+03  0.19770668593E+03  0.00000000000E+00 0.  1.
         21   -1    0    0  501  502  0.00000000000E+00 -0.00000000000E+00 -0.14726332016E+04  0.14726332016E+04  0.00000000000E+00 0. -1.
        -13    1    1    2    0    0 -0.25123096609E+03  0.43304445721E+03 -0.37177324908E+03  0.62358628925E+03  0.10566000000E+00 0.  1.
         13    1    1    2    0    0  0.27831738523E+02 -0.13302748186E+03 -0.38045392603E+03  0.40400014554E+03  0.10566000000E+00 0. -1.
          4    1    1    2  501    0  0.22339922756E+03 -0.30001697535E+03 -0.52269934054E+03  0.64275345272E+03  0.00000000000E+00 0.  1.
</event>
<event>
 5    1  0.4866530E-005  0.4658288E+03  0.7818608E-02  0.9810035E-01
          4   -1    0    0  502    0 -0.00000000000E+00  0.00000000000E+00  0.19760204486E+04  0.19760204486E+04  0.00000000000E+00 0.  1.
         21   -1    0    0  501  502  0.00000000000E+00 -0.00000000000E+00 -0.16735069638E+03  0.16735069638E+03  0.00000000000E+00 0.  1.
        -13    1    1    2    0    0  0.43324461339E+03  0.29946787612E+03  0.82524301311E+03  0.97898311819E+03  0.10566000000E+00 0.  1.
         13    1    1    2    0    0 -0.16468988867E+02 -0.19104633008E+03  0.33454867238E+03  0.38560699317E+03  0.10566000000E+00 0. -1.
          4    1    1    2  501    0 -0.41677562452E+03 -0.10842154604E+03  0.64887806677E+03  0.77878103365E+03  0.00000000000E+00 0.  1.
</event>
<event>
 5    1  0.4866530E-005  0.1255541E+03  0.7818608E-02  0.1128077E+00
         21   -1    0    0  501  502  0.00000000000E+00  0.00000000000E+00  0.91229290528E+02  0.91229290528E+02  0.00000000000E+00 0. -1.
          4   -1    0    0  502    0 -0.00000000000E+00 -0.00000000000E+00 -0.22944647833E+03  0.22944647833E+03  0.00000000000E+00 0.  1.
        -13    1    1    2    0    0  0.11448546622E+03  0.17873936812E+02 -0.33857581469E+02  0.12071763161E+03  0.10566000000E+00 0.  1.
         13    1    1    2    0    0 -0.12991495208E+03 -0.24096776259E+02 -0.11898322674E+03  0.17780767365E+03  0.10566000000E+00 0. -1.
          4    1    1    2  501    0  0.15429485852E+02  0.62228394477E+01  0.14623620401E+02  0.22150463609E+02  0.00000000000E+00 0.  1.
</event>
<event>
 5    1  0.4866530E-005  0.2325448E+03  0.7818608E-02  0.1067637E+00
          4   -1    0    0  502    0 -0.00000000000E+00  0.00000000000E+00  0.13990195874E+04  0.13990195874E+04  0.00000000000E+00 0.  1.
         21   -1    0    0  501  502  0.00000000000E+00 -0.00000000000E+00 -0.97888078459E+02  0.97888078459E+02  0.00000000000E+00 0.  1.
        -13    1    1    2    0    0 -0.17995682149E+03  0.17059417718E+03  0.98904328213E+03  0.10196535961E+04  0.10566000000E+00 0.  1.
         13    1    1    2    0    0 -0.40263540076E+02 -0.94136622030E+02  0.18576495990E+03  0.21211196986E+03  0.10566000000E+00 0. -1.
          4    1    1    2  501    0  0.22022036157E+03 -0.76457555153E+02  0.12632326690E+03  0.26514209992E+03  0.00000000000E+00 0.  1.
</event>
<event>
 5    1  0.4866530E-005  0.4918281E+03  0.7818608E-02  0.1005919E+00
         21   -1    0    0  501  502  0.00000000000E+00  0.00000000000E+00  0.13001756751E+03  0.13001756751E+03  0.00000000000E+00 0. -1.
         -4   -1    0    0    0  501 -0.00000000000E+00 -0.00000000000E+00 -0.22003317594E+04  0.22003317594E+04  0.00000000000E+00 0. -1.
        -13    1    1    2    0    0  0.43609769496E+02 -0.56289563863E+02 -0.25108104140E+03  0.26098281075E+03  0.10566000000E+00 0.  1.
         13    1    1    2    0    0  0.23675556684E+03  0.44658868324E+03 -0.91100614122E+03  0.10418382077E+04  0.10566000000E+00 0. -1.
         -4    1    1    2    0  502 -0.28036533634E+03 -0.39029911937E+03 -0.90822700923E+03  0.10275283085E+04  0.00000000000E+00 0. -1.
</event>
<event>
 5    1  0.4866530E-005  0.1193504E+03  0.7818608E-02  0.1135999E+00
         21   -1    0    0  501  502  0.00000000000E+00  0.00000000000E+00  0.62471349636E+03  0.62471349636E+03  0.00000000000E+00 0. -1.
         -4   -1    0    0    0  501 -0.00000000000E+00 -0.00000000000E+00 -0.46025939552E+03  0.46025939552E+03  0.00000000000E+00 0. -1.
        -13    1    1    2    0    0 -0.13586746243E+02 -0.11217794044E+03 -0.14719161809E+03  0.18556366454E+03  0.10566000000E+00 0.  1.
         13    1    1    2    0    0  0.12784535962E+02  0.12300283771E+03 -0.28082022581E+03  0.30684385742E+03  0.10566000000E+00 0. -1.
         -4    1    1    2    0  502  0.80221028049E+00 -0.10824897267E+02  0.59246594475E+03  0.59256536993E+03  0.00000000000E+00 0. -1.
</event>
<event>
 5    1  0.4866530E-005  0.4433637E+03  0.7818608E-02  0.9675564E-01
          4   -1    0    0  502    0 -0.00000000000E+00  0.00000000000E+00  0.11366913512E+04  0.11366913512E+04  0.00000000000E+00 0.  1.
         21   -1    0    0  501  502  0.00000000000E+00 -0.00000000000E+00 -0.55721760722E+03  0.55721760722E+03  0.00000000000E+00 0.  1.
        -13    1    1    2    0    0  0.27979634998E+03  0.41736829973E+03  0.30327559921E+03  0.58690578062E+03  0.10566000000E+00 0.  1.
         13    1    1    2    0    0 -0.35218939883E+03  0.34205115791E+02  0.48817360392E+03  0.60292689550E+03  0.10566000000E+00 0. -1.
          4    1    1    2  501    0  0.72393048849E+02 -0.45157341552E+03 -0.21197545913E+03  0.50407628232E+03  0.00000000000E+00 0.  1.
</event>
<event>
 5    1  0.4866530E-005  0.3261487E+03  0.7818608E-02  0.1054624E+00
         -4   -1    0    0    0  501 -0.00000000000E+00  0.00000000000E+00  0.52695225589E+03  0.52695225589E+03  0.00000000000E+00 0. -1.
         21   -1    0    0  501  502  0.00000000000E+00 -0.00000000000E+00 -0.73695209001E+03  0.73695209001E+03  0.00000000000E+00 0. -1.
        -13    1    1    2    0    0  0.54203935118E+02 -0.80456789303E+00  0.16499981747E+03  0.17367689783E+03  0.10566000000E+00 0.  1.
         13    1    1    2    0    0  0.74311028640E+02  0.31613886394E+03 -0.59988703940E+03  0.68215128928E+03  0.10566000000E+00 0. -1.
         -4    1    1    2    0  502 -0.12851496376E+03 -0.31533429605E+03  0.22488738781E+03  0.40807615878E+03  0.00000000000E+00 0. -1.
</event>
<event>
 5    1  0.4866530E-005  0.5846292E+03  0.7818608E-02  0.9490527E-01
         -4   -1    0    0    0  501 -0.00000000000E+00  0.00000000000E+00  0.28107426951E+04  0.28107426951E+04  0.00000000000E+00 0. -1.
         21   -1    0    0  501  502  0.00000000000E+00 -0.00000000000E+00 -0.23532329086E+03  0.23532329086E+03  0.00000000000E+00 0. -1.
        -13    1    1    2    0    0 -0.81067791129E+02 -0.28757964387E+03  0.75466103105E+03  0.81165714515E+03  0.10566000000E+00 0.  1.
         13    1    1    2    0    0  0.62086381679E+03  0.47997334294E+02  0.13223118631E+04  0.14616033311E+04  0.10566000000E+00 0. -1.
         -4    1    1    2    0  502 -0.53979602566E+03  0.23958230957E+03  0.49844651011E+03  0.77280550970E+03  0.00000000000E+00 0. -1.
</event>
<event>
 5    1  0.4866530E-005  0.2138738E+03  0.7818608E-02  0.1051020E+00
          4   -1    0    0  502    0 -0.00000000000E+00  0.00000000000E+00  0.18515475407E+04  0.18515475407E+04  0.00000000000E+00 0.  1.
         21   -1    0    0  501  502  0.00000000000E+00 -0.00000000000E+00 -0.39422191732E+02  0.39422191732E+02  0.00000000000E+00 0. -1.
        -13    1    1    2    0    0  0.14156149527E+03  0.14814711651E+03  0.81102785568E+03  0.83651265318E+03  0.10566000000E+00 0.  1.
         13    1    1    2    0    0 -0.17763847370E+03 -0.13632854418E+03  0.98985135329E+03  0.10148628538E+04  0.10566000000E+00 0. -1.
          4    1    1    2  501    0  0.36076978424E+02 -0.11818572337E+02  0.11246140028E+02  0.39594225461E+02  0.00000000000E+00 0.  1.
</event>
<event>
 5    1  0.4866530E-005  0.7982882E+02  0.7818608E-02  0.1203069E+00
         21   -1    0    0  501  502  0.00000000000E+00  0.00000000000E+00  0.10031930860E+04  0.10031930860E+04  0.00000000000E+00 0.  1.
         -4   -1    0    0    0  501 -0.00000000000E+00 -0.00000000000E+00 -0.86815850902E+02  0.86815850902E+02  0.00000000000E+00 0. -1.
        -13    1    1    2    0    0 -0.85185066431E+02  0.10610042918E+03  0.68983174956E+03  0.70312278478E+03  0.10566000000E+00 0.  1.
         13    1    1    2    0    0  0.30630555234E+02 -0.72114866850E+02 -0.56523886022E+02  0.96611312950E+02  0.10566000000E+00 0. -1.
         -4    1    1    2    0  502  0.54554511197E+02 -0.33985562331E+02  0.28306937153E+03  0.29027483914E+03  0.00000000000E+00 0. -1.
</event>
<event>
 5    1  0.4866530E-005  0.4725664E+03  0.7818608E-02  0.9859787E-01
         21   -1    0    0  501  502  0.00000000000E+00  0.00000000000E+00  0.32283375618E+03  0.32283375618E+03  0.00000000000E+00 0.  1.
          4   -1    0    0  502    0 -0.00000000000E+00 -0.00000000000E+00 -0.10480092428E+04  0.10480092428E+04  0.00000000000E+00 0.  1.
        -13    1    1    2    0    0  0.38602220160E+03 -0.33368175970E+03 -0.41179386792E+03  0.65569112980E+03  0.10566000000E+00 0.  1.
         13    1    1    2    0    0 -0.14440696543E+03 -0.56765117489E+02 -0.17866871565E+03  0.23663932755E+03  0.10566000000E+00 0. -1.
          4    1    1    2  501    0 -0.24161523617E+03  0.39044687718E+03 -0.13471290307E+03  0.47851254164E+03  0.00000000000E+00 0.  1.
</event>
<event>
 5    1  0.4866530E-005  0.8259264E+02  0.7818608E-02  0.1270353E+00
         21   -1    0    0  501  502  0.00000000000E+00  0.00000000000E+00  0.11520825240E+03  0.11520825240E+03  0.00000000000E+00 0. -1.
         -4   -1    0    0    0  501 -0.00000000000E+00 -0.00000000000E+00 -0.16474762123E+03  0.16474762123E+03  0.00000000000E+00 0. -1.
        -13    1    1    2    0    0  0.11970243419E+02  0.12102111828E+02 -0.37231748298E+02  0.40938515893E+02  0.10566000000E+00 0.  1.
         13    1    1    2    0    0 -0.41521879482E+02 -0.86870969774E+02 -0.86637453397E+02  0.12952486773E+03  0.10566000000E+00 0. -1.
         -4    1    1    2    0  502  0.29551636063E+02  0.74768857946E+02  0.74329832871E+02  0.10949249000E+03  0.00000000000E+00 0. -1.
</event>
<event>
 5    1  0.4866530E-005  0.7811673E+02  0.7818608E-02  0.1206909E+00
         -4   -1    0    0    0  501 -0.00000000000E+00  0.00000000000E+00  0.92032299804E+02  0.92032299804E+02  0.00000000000E+00 0. -1.
         21   -1    0    0  501  502  0.00000000000E+00 -0.00000000000E+00 -0.36827308028E+03  0.36827308028E+03  0.00000000000E+00 0.  1.
        -13    1    1    2    0    0  0.50190378468E+02  0.69778875624E+02 -0.28723313711E+03  0.29981836467E+03  0.10566000000E+00 0.  1.
         13    1    1    2    0    0 -0.17055458187E+02 -0.76140725208E+02  0.61772535005E+02  0.99519625874E+02  0.10566000000E+00 0. -1.
         -4    1    1    2    0  502 -0.33134920280E+02  0.63618495843E+01 -0.50780178365E+02  0.60967389537E+02  0.00000000000E+00 0. -1.
</event>
<event>
 5    1  0.4866530E-005  0.2178753E+03  0.7818608E-02  0.1048527E+00
          4   -1    0    0  502    0 -0.00000000000E+00  0.00000000000E+00  0.14569365318E+03  0.14569365318E+03  0.00000000000E+00 0.  1.
         21   -1    0    0  501  502  0.00000000000E+00 -0.00000000000E+00 -0.14865781187E+04  0.14865781187E+04  0.00000000000E+00 0. -1.
        -13    1    1    2    0    0  0.18878548265E+03 -0.10905580186E+03  0.45817725972E+02  0.22278330628E+03  0.10566000000E+00 0.  1.
         13    1    1    2    0    0 -0.18071906489E+03  0.11924692507E+03 -0.10281386709E+04  0.10506894628E+04  0.10566000000E+00 0. -1.
          4    1    1    2  501    0 -0.80664177566E+01 -0.10191123211E+02 -0.35856352061E+03  0.35879900279E+03  0.00000000000E+00 0.  1.
</event>
<event>
 5    1  0.4866530E-005  0.3302257E+03  0.7818608E-02  0.9955563E-01
         21   -1    0    0  501  502  0.00000000000E+00  0.00000000000E+00  0.49223247880E+02  0.49223247880E+02  0.00000000000E+00 0.  1.
         -4   -1    0    0    0  501 -0.00000000000E+00 -0.00000000000E+00 -0.28388916872E+04  0.28388916872E+04  0.00000000000E+00 0. -1.
        -13    1    1    2    0    0 -0.12969150797E+03  0.28650306380E+03 -0.10941849342E+04  0.11384834536E+04  0.10566000000E+00 0.  1.
         13    1    1    2    0    0  0.77303763211E+02 -0.33850170790E+03 -0.15219050812E+04  0.15610106871E+04  0.10566000000E+00 0. -1.
         -4    1    1    2    0  502  0.52387744761E+02  0.51998644103E+02 -0.17357842395E+03  0.18862079433E+03  0.00000000000E+00 0. -1.
</event>
<event>
 5    1  0.4866530E-005  0.1201042E+03  0.7818608E-02  0.1135008E+00
         21   -1    0    0  501  502  0.00000000000E+00  0.00000000000E+00  0.18650315539E+03  0.18650315539E+03  0.00000000000E+00 0.  1.
          4   -1    0    0  502    0 -0.00000000000E+00 -0.00000000000E+00 -0.12150260378E+03  0.12150260378E+03  0.00000000000E+00 0.  1.
        -13    1    1    2    0    0 -0.11739123606E+03 -0.22163047037E+02 -0.32457876184E+02  0.12379591208E+03  0.10566000000E+00 0.  1.
         13    1    1    2    0    0  0.12122621418E+03  0.10730258724E+02  0.44002792485E+02  0.12941093605E+03  0.10566000000E+00 0. -1.
          4    1    1    2  501    0 -0.38349781241E+01  0.11432788314E+02  0.53455635302E+02  0.54798911042E+02  0.00000000000E+00 0.  1.
</event>
<event>
 5    1  0.4866530E-005  0.4011432E+03  0.7818608E-02  0.1014939E+00
         21   -1    0    0  501  502  0.00000000000E+00  0.00000000000E+00  0.26447712655E+03  0.26447712655E+03  0.00000000000E+00 0. -1.
         -4   -1    0    0    0  501 -0.00000000000E+00 -0.00000000000E+00 -0.11941894443E+04  0.11941894443E+04  0.00000000000E+00 0. -1.
        -13    1    1    2    0    0 -0.97056291651E+02 -0.15190376063E+02 -0.46333368920E+03  0.47363360310E+03  0.10566000000E+00 0.  1.
         13    1    1    2    0    0  0.10533906554E+03  0.40961124772E+03 -0.40537141411E+03  0.58583588788E+03  0.10566000000E+00 0. -1.
         -4    1    1    2    0  502 -0.82827738879E+01 -0.39442087166E+03 -0.61007214408E+02  0.39919707984E+03  0.00000000000E+00 0. -1.
</event>
<event>
 5    1  0.4866530E-005  0.5132259E+02  0.7818608E-02  0.1286496E+00
          4   -1    0    0  502    0 -0.00000000000E+00  0.00000000000E+00  0.19326927255E+03  0.19326927255E+03  0.00000000000E+00 0.  1.
         21   -1    0    0  501  502  0.00000000000E+00 -0.00000000000E+00 -0.12362564393E+03  0.12362564393E+03  0.00000000000E+00 0. -1.
        -13    1    1    2    0    0  0.32262032224E+02  0.39260596127E+02  0.17537405555E+03  0.18258779711E+03  0.10566000000E+00 0.  1.
         13    1    1    2    0    0 -0.40652363875E+02 -0.45202445290E+02 -0.53213675842E+02  0.80793454002E+02  0.10566000000E+00 0. -1.
          4    1    1    2  501    0  0.83903316516E+01  0.59418491632E+01 -0.52516751086E+02  0.53513665370E+02  0.00000000000E+00 0.  1.
</event>
<event>
 5    1  0.4866530E-005  0.4770107E+03  0.7818608E-02  0.9529835E-01
          4   -1    0    0  502    0 -0.00000000000E+00  0.00000000000E+00  0.41364929921E+03  0.41364929921E+03  0.00000000000E+00 0.  1.
         21   -1    0    0  501  502  0.00000000000E+00 -0.00000000000E+00 -0.14747611797E+04  0.14747611797E+04  0.00000000000E+00 0.  1.
        -13    1    1    2    0    0 -0.34930031315E+03  0.62986104908E+03 -0.69740949674E+03  0.10025545707E+04  0.10566000000E+00 0.  1.
         13    1    1    2    0    0  0.28258695406E+03 -0.30579451208E+03 -0.32393662652E+02  0.41763025605E+03  0.10566000000E+00 0. -1.
          4    1    1    2  501    0  0.66713359086E+02 -0.32406653700E+03 -0.33130872111E+03  0.46822565219E+03  0.00000000000E+00 0.  1.
</event>
<event>
 5    1  0.4866530E-005  0.5636056E+02  0.7818608E-02  0.1267857E+00
         21   -1    0    0  501  502  0.00000000000E+00  0.00000000000E+00  0.47091772874E+03  0.47091772874E+03  0.00000000000E+00 0.  1.
          4   -1    0    0  502    0 -0.00000000000E+00 -0.00000000000E+00 -0.18373324509E+02  0.18373324509E+02  0.00000000000E+00 0.  1.
        -13    1    1    2    0    0 -0.81687209836E+02 -0.68031791467E+01  0.15799632885E+03  0.17799419819E+03  0.10566000000E+00 0.  1.
         13    1    1    2    0    0  0.42676087832E+02 -0.15492470554E+02  0.79014040467E+02  0.91129001265E+02  0.10566000000E+00 0. -1.
          4    1    1    2  501    0  0.39011122005E+02  0.22295649701E+02  0.21553403492E+03  0.22016785379E+03  0.00000000000E+00 0.  1.
</event>
<event>
 5    1  0.4866530E-005  0.1149242E+03  0.7818608E-02  0.1141980E+00
         21   -1    0    0  501  502  0.00000000000E+00  0.00000000000E+00  0.20754771462E+03  0.20754771462E+03  0.00000000000E+00 0. -1.
         -4   -1    0    0    0  501 -0.00000000000E+00 -0.00000000000E+00 -0.82666559470E+02  0.82666559470E+02  0.00000000000E+00 0. -1.
        -13    1    1    2    0    0  0.90506690016E+02  0.67145108613E+02  0.43442140887E+02  0.12077730464E+03  0.10566000000E+00 0.  1.
         13    1    1    2    0    0 -0.99687936710E+02 -0.61769062918E+02  0.35861700260E+02  0.12263431236E+03  0.10566000000E+00 0. -1.
         -4    1    1    2    0  502  0.91812466934E+01 -0.53760456946E+01  0.45577314006E+02  0.46802657085E+02  0.00000000000E+00 0. -1.
</event>
<event>
 5    1  0.4866530E-005  0.4523848E+03  0.7818608E-02  0.1008701E+00
         21   -1    0    0  501  502  0.00000000000E+00  0.00000000000E+00  0.24159559026E+03  0.24159559026E+03  0.00000000000E+00 0.  1.
          4   -1    0    0  502    0 -0.00000000000E+00 -0.00000000000E+00 -0.11051562229E+04  0.11051562229E+04  0.00000000000E+00 0.  1.
        -13    1    1    2    0    0  0.11151242741E+03 -0.47120160154E+03 -0.36282910582E+03  0.60507102224E+03  0.10566000000E+00 0.  1.
         13    1    1    2    0    0  0.42151065805E+02  0.72240095242E+02 -0.20619870411E+03  0.22251575326E+03  0.10566000000E+00 0. -1.
          4    1    1    2  501    0 -0.15366349322E+03  0.39896150630E+03 -0.29453282270E+03  0.51916503764E+03  0.00000000000E+00 0.  1.
</event>
<event>
 5    1  0.4866530E-005  0.4891111E+03  0.7818608E-02  0.9770662E-01
         -4   -1    0    0    0  501 -0.00000000000E+00  0.00000000000E+00  0.52741448857E+03  0.52741448857E+03  0.00000000000E+00 0. -1.
         21   -1    0    0  501  502  0.00000000000E+00 -0.00000000000E+00 -0.12903138823E+04  0.12903138823E+04  0.00000000000E+00 0. -1.
        -13    1    1    2    0    0  0.18793044335E+03  0.24623968793E+02  0.30075701092E+03  0.35549821681E+03  0.10566000000E+00 0.  1.
         13    1    1    2    0    0  0.29263121114E+03  0.30275818049E+03 -0.41759438474E+03  0.59302666291E+03  0.10566000000E+00 0. -1.
         -4    1    1    2    0  502 -0.48056165449E+03 -0.32738214928E+03 -0.64606201989E+03  0.86920349113E+03  0.00000000000E+00 0. -1.
</event>
<event>
 5    1  0.4866530E-005  0.1507611E+03  0.7818608E-02  0.1100363E+00
         -4   -1    0    0    0  501 -0.00000000000E+00  0.00000000000E+00  0.27776292626E+02  0.27776292626E+02  0.00000000000E+00 0. -1.
         21   -1    0    0  501  502  0.00000000000E+00 -0.00000000000E+00 -0.10998985960E+04  0.10998985960E+04  0.00000000000E+00 0.  1.
        -13    1    1    2    0    0 -0.14479223235E+03  0.79720247018E+01 -0.73295472228E+03  0.74716195019E+03  0.10566000000E+00 0.  1.
         13    1    1    2    0    0  0.15303896502E+03 -0.14776911807E+01 -0.26838042626E+03  0.30895173207E+03  0.10566000000E+00 0. -1.
         -4    1    1    2    0  502 -0.82467326751E+01 -0.64943335211E+01 -0.70787154803E+02  0.71561206340E+02  0.00000000000E+00 0. -1.
</event>
<event>
 5    1  0.4866530E-005  0.1953964E+03  0.7818608E-02  0.1063338E+00
         21   -1    0    0  501  502  0.00000000000E+00  0.00000000000E+00  0.11691583254E+03  0.11691583254E+03  0.00000000000E+00 0. -1.
         -4   -1    0    0    0  501 -0.00000000000E+00 -0.00000000000E+00 -0.87296805546E+03  0.87296805546E+03  0.00000000000E+00 0. -1.
        -13    1    1    2    0    0  0.19361248727E+03  0.53098972017E+02 -0.66246774114E+02  0.21140941866E+03  0.10566000000E+00 0.  1.
         13    1    1    2    0    0 -0.18481430630E+03 -0.60545186742E+02 -0.72018514338E+03  0.74598170176E+03  0.10566000000E+00 0. -1.
         -4    1    1    2    0  502 -0.87981809654E+01  0.74462147252E+01  0.30379694582E+02  0.32492767578E+02  0.00000000000E+00 0. -1.
</event>
<event>
 5    1  0.4866530E-005  0.5140084E+03  0.7818608E-02  0.9447786E-01
         21   -1    0    0  501  502  0.00000000000E+00  0.00000000000E+00  0.66178704571E+03  0.66178704571E+03  0.00000000000E+00 0. -1.
         -4   -1    0    0    0  501 -0.00000000000E+00 -0.00000000000E+00 -0.99567581096E+03  0.99567581096E+03  0.00000000000E+00 0. -1.
        -13    1    1    2    0    0 -0.15637106989E+03 -0.44537491211E+03 -0.28540138856E+03  0.55160192856E+03  0.10566000000E+00 0.  1.
         13    1    1    2    0    0  0.31764932190E+03  0.47119512768E+03 -0.41561998496E+03  0.70403545586E+03  0.10566000000E+00 0. -1.
         -4    1    1    2    0  502 -0.16127825201E+03 -0.25820215568E+02  0.36713260827E+03  0.40182547226E+03  0.00000000000E+00 0. -1.
</event>
<event>
 5    1  0.4866530E-005  0.3384153E+03  0.7818608E-02  0.9926026E-01
         -4   -1    0    0    0  501 -0.00000000000E+00  0.00000000000E+00  0.96193683717E+03  0.96193683717E+03  0.00000000000E+00 0. -1.
         21   -1    0    0  501  502  0.00000000000E+00 -0.00000000000E+00 -0.17349024281E+03  0.17349024281E+03  0.00000000000E+00 0.  1.
        -13    1    1    2    0    0  0.21643240231E+03  0.26270615104E+03  0.15671279090E+03  0.37472178554E+03  0.10566000000E+00 0.  1.
         13    1    1    2    0    0 -0.22237538303E+03 -0.25416937789E+03  0.65404445872E+03  0.73608902232E+03  0.10566000000E+00 0. -1.
         -4    1    1    2    0  502  0.59429807168E+01 -0.85367731439E+01 -0.22310655256E+02  0.24616272127E+02  0.00000000000E+00 0. -1.
</event>
<event>
 5    1  0.4866530E-005  0.6029215E+02  0.7818608E-02  0.1254767E+00
         -4   -1    0    0    0  501 -0.00000000000E+00  0.00000000000E+00  0.19914461646E+03  0.19914461646E+03  0.00000000000E+00 0. -1.
         21   -1    0    0  501  502  0.00000000000E+00 -0.00000000000E+00 -0.64137885982E+02  0.64137885982E+02  0.00000000000E+00 0.  1.
        -13    1    1    2    0    0 -0.50523425650E+02  0.40106407373E+02 -0.20601860502E+02  0.67716971816E+02  0.10566000000E+00 0.  1.
         13    1    1    2    0    0  0.53628725116E+02 -0.26773345560E+02  0.16720498781E+03  0.17762424188E+03  0.10566000000E+00 0. -1.
         -4    1    1    2    0  502 -0.31052994664E+01 -0.13333061813E+02 -0.11596396836E+02  0.17941288740E+02  0.00000000000E+00 0. -1.
</event>
<event>
 5    1  0.4866530E-005  0.1041182E+03  0.7818608E-02  0.1157916E+00
         -4   -1    0    0    0  501 -0.00000000000E+00  0.00000000000E+00  0.39099356197E+03  0.39099356197E+03  0.00000000000E+00 0. -1.
         21   -1    0    0  501  502  0.00000000000E+00 -0.00000000000E+00 -0.89392337808E+02  0.89392337808E+02  0.00000000000E+00 0.  1.
        -13    1    1    2    0    0  0.90921227028E+02  0.70622662685E+02 -0.45982688026E+01  0.11521885804E+03  0.10566000000E+00 0.  1.
         13    1    1    2    0    0 -0.93782363201E+02 -0.42579212829E+02  0.31825660912E+03  0.33450770010E+03  0.10566000000E+00 0. -1.
         -4    1    1    2    0  502  0.28611361733E+01 -0.28043449856E+02 -0.12057116149E+02  0.30659341642E+02  0.00000000000E+00 0. -1.
</event>
<event>
 5    1  0.4866530E-005  0.4925998E+03  0.7818608E-02  0.9496050E-01
          4   -1    0    0  502    0 -0.00000000000E+00  0.00000000000E+00  0.12758225871E+04  0.12758225871E+04  0.00000000000E+00 0.  1.
         21   -1    0    0  501  502  0.00000000000E+00 -0.00000000000E+00 -0.57885385660E+03  0.57885385660E+03  0.00000000000E+00 0.  1.
        -13    1    1    2    0    0  0.20180278982E+03 -0.14395524607E+03  0.34076912654E+03  0.42139184570E+03  0.10566000000E+00 0.  1.
         13    1    1    2    0    0  0.47954913298E+03  0.11916695495E+03  0.53514757933E+03  0.72838937178E+03  0.10566000000E+00 0. -1.
          4    1    1    2  501    0 -0.68135192280E+03  0.24788291125E+02 -0.17894797535E+03  0.70489522624E+03  0.00000000000E+00 0.  1.
</event>
<event>
 5    1  0.4866530E-005  0.1588429E+03  0.7818608E-02  0.1092704E+00
         21   -1    0    0  501  502  0.00000000000E+00  0.00000000000E+00  0.37868453857E+03  0.37868453857E+03  0.00000000000E+00 0. -1.
         -4   -1    0    0    0  501 -0.00000000000E+00 -0.00000000000E+00 -0.25805279843E+03  0.25805279843E+03  0.00000000000E+00 0. -1.
        -13    1    1    2    0    0  0.13163616299E+03  0.92007671673E+02  0.17026905958E+03  0.23406207482E+03  0.10566000000E+00 0.  1.
         13    1    1    2    0    0 -0.11993782271E+03 -0.10393347659E+03 -0.19778616561E+03  0.25358751417E+03  0.10566000000E+00 0. -1.
         -4    1    1    2    0  502 -0.11698340281E+02  0.11925804912E+02  0.14814884617E+03  0.14908774802E+03  0.00000000000E+00 0. -1.
</event>
<event>
 5    1  0.4866530E-005  0.4953594E+03  0.7818608E-02  0.9692942E-01
         21   -1    0    0  501  502  0.00000000000E+00  0.00000000000E+00  0.39613714665E+03  0.39613714665E+03  0.00000000000E+00 0. -1.
         -4   -1    0    0    0  501 -0.00000000000E+00 -0.00000000000E+00 -0.11399014048E+04  0.11399014048E+04  0.00000000000E+00 0. -1.
        -13    1    1    2    0    0  0.17613624372E+02  0.23811151986E+03 -0.37737817698E+03  0.44656649592E+03  0.10566000000E+00 0.  1.
         13    1    1    2    0    0 -0.48714672950E+03 -0.26583837950E+03 -0.21840483723E+03  0.59639136828E+03  0.10566000000E+00 0. -1.
         -4    1    1    2    0  502  0.46953310512E+03  0.27726859637E+02 -0.14798124390E+03  0.49308068721E+03  0.00000000000E+00 0. -1.
</event>
<event>
 5    1  0.4866530E-005  0.4447947E+03  0.7818608E-02  0.9872746E-01
          4   -1    0    0  502    0 -0.00000000000E+00  0.00000000000E+00  0.11207577961E+04  0.11207577961E+04  0.00000000000E+00 0.  1.
         21   -1    0    0  501  502  0.00000000000E+00 -0.00000000000E+00 -0.38824036540E+03  0.38824036540E+03  0.00000000000E+00 0.  1.
        -13    1    1    2    0    0 -0.20214762189E+03  0.45230008368E+03  0.37573147184E+03  0.62178225837E+03  0.10566000000E+00 0.  1.
         13    1    1    2    0    0  0.17711985892E+03 -0.18958364345E+02  0.41276065117E+03  0.44955781644E+03  0.10566000000E+00 0. -1.
          4    1    1    2  501    0  0.25027762969E+02 -0.43334171933E+03 -0.55974692335E+02  0.43765808666E+03  0.00000000000E+00 0.  1.
</event>
<event>
 5    1  0.4866530E-005  0.5140366E+02  0.7818608E-02  0.1286177E+00
         -4   -1    0    0    0  501 -0.00000000000E+00  0.00000000000E+00  0.10038088935E+03  0.10038088935E+03  0.00000000000E+00 0. -1.
         21   -1    0    0  501  502  0.00000000000E+00 -0.00000000000E+00 -0.18652934103E+03  0.18652934103E+03  0.00000000000E+00 0. -1.
        -13    1    1    2    0    0  0.30370614029E+02 -0.48892310976E+02  0.46734354586E+02  0.74141373953E+02  0.10566000000E+00 0.  1.
         13    1    1    2    0    0 -0.31630168873E+02  0.33313802525E+02  0.26224166532E+02  0.52896078266E+02  0.10566000000E+00 0. -1.
         -4    1    1    2    0  502  0.12595548437E+01  0.15578508451E+02 -0.15910697279E+03  0.15987277816E+03  0.00000000000E+00 0. -1.
</event>
<event>
 5    1  0.4866530E-005  0.3232358E+03  0.7818608E-02  0.1010010E+00
         21   -1    0    0  501  502  0.00000000000E+00  0.00000000000E+00  0.11548522866E+04  0.11548522866E+04  0.00000000000E+00 0.  1.
          4   -1    0    0  502    0 -0.00000000000E+00 -0.00000000000E+00 -0.35752078617E+03  0.35752078617E+03  0.00000000000E+00 0.  1.
        -13    1    1    2    0    0  0.24061418442E+03 -0.21629029393E+03  0.84834288312E+03  0.90794401562E+03  0.10566000000E+00 0.  1.
         13    1    1    2    0    0 -0.15532931240E+03 -0.15555340245E+03 -0.23541405961E+01  0.21983996326E+03  0.10566000000E+00 0. -1.
          4    1    1    2  501    0 -0.85284872024E+02  0.37184369639E+03 -0.48657242086E+02  0.38458909390E+03  0.00000000000E+00 0.  1.
</event>
<event>
 5    1  0.4866530E-005  0.4359845E+03  0.7818608E-02  0.9630532E-01
         21   -1    0    0  501  502  0.00000000000E+00  0.00000000000E+00  0.26683583984E+03  0.26683583984E+03  0.00000000000E+00 0. -1.
          4   -1    0    0  502    0 -0.00000000000E+00 -0.00000000000E+00 -0.18189124561E+04  0.18189124561E+04  0.00000000000E+00 0.  1.
        -13    1    1    2    0    0 -0.43302969219E+03 -0.24922030052E+02 -0.12890187203E+04  0.13600386370E+04  0.10566000000E+00 0.  1.
         13    1    1    2    0    0  0.44241748137E+03  0.79107998658E+01 -0.39451648106E+03  0.59282296984E+03  0.10566000000E+00 0. -1.
          4    1    1    2  501    0 -0.93877891782E+01  0.17011230186E+02  0.13145858507E+03  0.13288668905E+03  0.00000000000E+00 0.  1.
</event>
<event>
 5    1  0.4866530E-005  0.1098980E+03  0.7818608E-02  0.1149142E+00
         21   -1    0    0  501  502  0.00000000000E+00  0.00000000000E+00  0.18566612843E+03  0.18566612843E+03  0.00000000000E+00 0.  1.
         -4   -1    0    0    0  501 -0.00000000000E+00 -0.00000000000E+00 -0.26712261470E+03  0.26712261470E+03  0.00000000000E+00 0. -1.
        -13    1    1    2    0    0  0.86964898333E+02 -0.21166398799E+02  0.31843273167E+02  0.94999553632E+02  0.10566000000E+00 0.  1.
         13    1    1    2    0    0 -0.10652280074E+03  0.42198776655E+02 -0.21959134819E+03  0.24768571859E+03  0.10566000000E+00 0. -1.
         -4    1    1    2    0  502  0.19557902409E+02 -0.21032377856E+02  0.10629158876E+03  0.11010347091E+03  0.00000000000E+00 0. -1.
</event>
<event>
 5    1  0.4866530E-005  0.3640179E+03  0.7818608E-02  0.9839137E-01
         -4   -1    0    0    0  501 -0.00000000000E+00  0.00000000000E+00  0.32725462231E+04  0.32725462231E+04  0.00000000000E+00 0. -1.
         21   -1    0    0  501  502  0.00000000000E+00 -0.00000000000E+00 -0.89336237688E+02  0.89336237688E+02  0.00000000000E+00 0.  1.
        -13    1    1    2    0    0 -0.29999801624E+03 -0.20191004096E+03  0.10977812521E+04  0.11558071478E+04  0.10566000000E+00 0.  1.
         13    1    1    2    0    0  0.28986317830E+03  0.22273811510E+03  0.21271622161E+04  0.21583447442E+04  0.10566000000E+00 0. -1.
         -4    1    1    2    0  502  0.10134837936E+02 -0.20828074133E+02 -0.41733482757E+02  0.47730568770E+02  0.00000000000E+00 0. -1.
</event>
<event>
 5    1  0.4866530E-005  0.2694772E+03  0.7818608E-02  0.1020766E+00
          4   -1    0    0  502    0 -0.00000000000E+00  0.00000000000E+00  0.19498963361E+03  0.19498963361E+03  0.00000000000E+00 0.  1.
         21   -1    0    0  501  502  0.00000000000E+00 -0.00000000000E+00 -0.67677891886E+03  0.67677891886E+03  0.00000000000E+00 0. -1.
        -13    1    1    2    0    0 -0.26440184179E+03  0.31912433477E+02  0.33988090625E+02  0.26848079787E+03  0.10566000000E+00 0.  1.
         13    1    1    2    0    0  0.28183422136E+03 -0.18747463611E+02 -0.42777311992E+03  0.51261276712E+03  0.10566000000E+00 0. -1.
          4    1    1    2  501    0 -0.17432379569E+02 -0.13164969867E+02 -0.88004255954E+02  0.90674987483E+02  0.00000000000E+00 0.  1.
</event>
<event>
 5    1  0.4866530E-005  0.4300854E+03  0.7818608E-02  0.9731704E-01
         -4   -1    0    0    0  501 -0.00000000000E+00  0.00000000000E+00  0.37066449982E+04  0.37066449982E+04  0.00000000000E+00 0. -1.
         21   -1    0    0  501  502  0.00000000000E+00 -0.00000000000E+00 -0.15950936946E+03  0.15950936946E+03  0.00000000000E+00 0. -1.
        -13    1    1    2    0    0  0.44075238400E+03  0.15396608008E+02  0.12188494131E+04  0.12961842548E+04  0.10566000000E+00 0.  1.
         13    1    1    2    0    0 -0.13285044489E+03 -0.31567960479E+03  0.19994634179E+04  0.20285849315E+04  0.10566000000E+00 0. -1.
         -4    1    1    2    0  502 -0.30790193911E+03  0.30028299678E+03  0.32882279778E+03  0.54138518137E+03  0.00000000000E+00 0. -1.
</event>
<event>
 5    1  0.1872490E-004  0.3662317E+03  0.7818608E-02  0.1055803E+00
         21   -1    0    0  501  502  0.00000000000E+00  0.00000000000E+00  0.62448351759E+03  0.62448351759E+03  0.00000000000E+00 0. -1.
         -4   -1    0    0    0  501 -0.00000000000E+00 -0.00000000000E+00 -0.59875003424E+03  0.59875003424E+03  0.00000000000E+00 0. -1.
        -13    1    1    2    0    0  0.29295217307E+02  0.22569775789E+02 -0.19624896196E+03  0.19970295634E+03  0.10566000000E+00 0.  1.
         13    1    1    2    0    0  0.30785866296E+03  0.13465365328E+03 -0.25270509681E+03  0.42043839004E+03  0.10566000000E+00 0. -1.
         -4    1    1    2    0  502 -0.33715388027E+03 -0.15722342907E+03  0.47468754213E+03  0.60309220545E+03  0.00000000000E+00 0. -1.
</event>
<event>
 5    1  0.4866530E-005  0.6013576E+03  0.7818608E-02  0.9279851E-01
         -4   -1    0    0    0  501 -0.00000000000E+00  0.00000000000E+00  0.13305923730E+04  0.13305923730E+04  0.00000000000E+00 0. -1.
         21   -1    0    0  501  502  0.00000000000E+00 -0.00000000000E+00 -0.72896895494E+03  0.72896895494E+03  0.00000000000E+00 0. -1.
        -13    1    1    2    0    0  0.21964451135E+03  0.52658179893E+03  0.70261659887E+03  0.90509789443E+03  0.10566000000E+00 0.  1.
         13    1    1    2    0    0 -0.41171478006E+03 -0.66672936489E+03 -0.30529852402E+03  0.84097818406E+03  0.10566000000E+00 0. -1.
         -4    1    1    2    0  502  0.19207026871E+03  0.14014756596E+03  0.20430534323E+03  0.31348524947E+03  0.00000000000E+00 0. -1.
</event>
<event>
 5    1  0.4866530E-005  0.4430356E+03  0.7818608E-02  0.9741414E-01
         21   -1    0    0  501  502  0.00000000000E+00  0.00000000000E+00  0.14677641168E+04  0.14677641168E+04  0.00000000000E+00 0.  1.
          4   -1    0    0  502    0 -0.00000000000E+00 -0.00000000000E+00 -0.48643546549E+03  0.48643546549E+03  0.00000000000E+00 0.  1.
        -13    1    1    2    0    0  0.38909721602E+03  0.49810161780E+03  0.52758717055E+03  0.82331652410E+03  0.10566000000E+00 0.  1.
         13    1    1    2    0    0 -0.24251391271E+03 -0.14403937461E+03 -0.21869936180E+03  0.35691702301E+03  0.10566000000E+00 0. -1.
          4    1    1    2  501    0 -0.14658330331E+03 -0.35406224319E+03  0.67244084254E+03  0.77396603515E+03  0.00000000000E+00 0.  1.
</event>
<event>
 5    1  0.4866530E-005  0.3486228E+03  0.7818608E-02  0.9890435E-01
          4   -1    0    0  502    0 -0.00000000000E+00  0.00000000000E+00  0.13225142391E+04  0.13225142391E+04  0.00000000000E+00 0.  1.
         21   -1    0    0  501  502  0.00000000000E+00 -0.00000000000E+00 -0.66078209149E+03  0.66078209149E+03  0.00000000000E+00 0.  1.
        -13    1    1    2    0    0 -0.29301162999E+03 -0.20413621212E+03  0.96666968692E+03  0.10305230241E+04  0.10566000000E+00 0.  1.
         13    1    1    2    0    0  0.23845629533E+03  0.22681626449E+03  0.23830939969E+03  0.40632302883E+03  0.10566000000E+00 0. -1.
          4    1    1    2  501    0  0.54555334660E+02 -0.22680052365E+02 -0.54324693896E+03  0.54645027770E+03  0.00000000000E+00 0.  1.
</event>
<event>
 5    1  0.4866530E-005  0.3343218E+03  0.7818608E-02  0.9940677E-01
         21   -1    0    0  501  502  0.00000000000E+00  0.00000000000E+00  0.68002316023E+03  0.68002316023E+03  0.00000000000E+00 0. -1.
         -4   -1    0    0    0  501 -0.00000000000E+00 -0.00000000000E+00 -0.18161991832E+04  0.18161991832E+04  0.00000000000E+00 0. -1.
        -13    1    1    2    0    0  0.32013461624E+03 -0.91838014870E+01 -0.13684788219E+04  0.14054553753E+04  0.10566000000E+00 0.  1.
         13    1    1    2    0    0 -0.44500960086E+03  0.24928362888E+03 -0.22649258712E+03  0.55809925252E+03  0.10566000000E+00 0. -1.
         -4    1    1    2    0  502  0.12487498462E+03 -0.24009982739E+03  0.45879538611E+03  0.53266771557E+03  0.00000000000E+00 0. -1.
</event>
<event>
 5    1  0.4866530E-005  0.2805127E+03  0.7818608E-02  0.1065295E+00
          4   -1    0    0  502    0 -0.00000000000E+00  0.00000000000E+00  0.12446785095E+04  0.12446785095E+04  0.00000000000E+00 0.  1.
         21   -1    0    0  501  502  0.00000000000E+00 -0.00000000000E+00 -0.22022422591E+03  0.22022422591E+03  0.00000000000E+00 0.  1.
        -13    1    1    2    0    0  0.77712086117E+02 -0.26370418377E+03 -0.67729434695E+02  0.28313663195E+03  0.10566000000E+00 0.  1.
         13    1    1    2    0    0  0.24756240317E+02 -0.57284039133E+02  0.33651014136E+02  0.70899467491E+02  0.10566000000E+00 0. -1.
          4    1    1    2  501    0 -0.10246832643E+03  0.32098822290E+03  0.10585327042E+04  0.11108666360E+04  0.00000000000E+00 0.  1.
</event>
<event>
 5    1  0.4866530E-005  0.2742827E+03  0.7818608E-02  0.1018524E+00
          4   -1    0    0  502    0 -0.00000000000E+00  0.00000000000E+00  0.13921198064E+04  0.13921198064E+04  0.00000000000E+00 0.  1.
         21   -1    0    0  501  502  0.00000000000E+00 -0.00000000000E+00 -0.74028102034E+02  0.74028102034E+02  0.00000000000E+00 0. -1.
        -13    1    1    2    0    0  0.26885293997E+03 -0.46172365474E+02  0.98466191016E+03  0.10217499103E+04  0.10566000000E+00 0.  1.
         13    1    1    2    0    0 -0.27657544178E+03  0.34155070812E+02  0.32360599510E+03  0.42706134816E+03  0.10566000000E+00 0. -1.
          4    1    1    2  501    0  0.77225018121E+01  0.12017294662E+02  0.98237991484E+01  0.17336650049E+02  0.00000000000E+00 0.  1.
</event>
<event>
 5    1  0.4866530E-005  0.4529299E+03  0.7818608E-02  0.9663843E-01
         21   -1    0    0  501  502  0.00000000000E+00  0.00000000000E+00  0.11629890550E+04  0.11629890550E+04  0.00000000000E+00 0.  1.
          4   -1    0    0  502    0 -0.00000000000E+00 -0.00000000000E+00 -0.45077200901E+03  0.45077200901E+03  0.00000000000E+00 0.  1.
        -13    1    1    2    0    0 -0.61075918688E+02 -0.37854288816E+03 -0.13709514123E+03  0.40721011153E+03  0.10566000000E+00 0.  1.
         13    1    1    2    0    0 -0.34022332527E+03  0.61935611789E+02  0.33872630105E+03  0.48406967397E+03  0.10566000000E+00 0. -1.
          4    1    1    2  501    0  0.40129924396E+03  0.31660727637E+03  0.51058588618E+03  0.72248127852E+03  0.00000000000E+00 0.  1.
</event>
<event>
 5    1  0.4866530E-005  0.4051953E+03  0.7818608E-02  0.9873392E-01
         -4   -1    0    0    0  501 -0.00000000000E+00  0.00000000000E+00  0.25328031185E+04  0.25328031185E+04  0.00000000000E+00 0. -1.
         21   -1    0    0  501  502  0.00000000000E+00 -0.00000000000E+00 -0.15408131807E+03  0.15408131807E+03  0.00000000000E+00 0. -1.
        -13    1    1    2    0    0  0.22980392794E+03 -0.49698694451E+02  0.47873361525E+03  0.53335325167E+03  0.10566000000E+00 0.  1.
         13    1    1    2    0    0 -0.35260907579E+03  0.40577532167E+03  0.15453861107E+04  0.16362166771E+04  0.10566000000E+00 0. -1.
         -4    1    1    2    0  502  0.12280514784E+03 -0.35607662722E+03  0.35460207447E+03  0.51731450783E+03  0.00000000000E+00 0. -1.
</event>
<event>
 5    1  0.4866530E-005  0.2267486E+03  0.7818608E-02  0.1049476E+00
          4   -1    0    0  502    0 -0.00000000000E+00  0.00000000000E+00  0.17926386118E+04  0.17926386118E+04  0.00000000000E+00 0.  1.
         21   -1    0    0  501  502  0.00000000000E+00 -0.00000000000E+00 -0.20204659576E+03  0.20204659576E+03  0.00000000000E+00 0.  1.
        -13    1    1    2    0    0  0.17870640354E+03  0.22286817454E+03  0.14223796192E+04  0.14507825454E+04  0.10566000000E+00 0.  1.
         13    1    1    2    0    0  0.44826726771E+02 -0.18247178810E+03  0.24079870888E+03  0.30543316494E+03  0.10566000000E+00 0. -1.
          4    1    1    2  501    0 -0.22353313031E+03 -0.40396386432E+02 -0.72586312043E+02  0.23846949717E+03  0.00000000000E+00 0.  1.
</event>
<event>
 5    1  0.4866530E-005  0.5306764E+03  0.7818608E-02  0.9413156E-01
          4   -1    0    0  502    0 -0.00000000000E+00  0.00000000000E+00  0.17658717829E+04  0.17658717829E+04  0.00000000000E+00 0.  1.
         21   -1    0    0  501  502  0.00000000000E+00 -0.00000000000E+00 -0.35848557889E+03  0.35848557889E+03  0.00000000000E+00 0.  1.
        -13    1    1    2    0    0  0.38849345165E+03  0.63917699818E+03  0.67606098339E+03  0.10082325433E+04  0.10566000000E+00 0.  1.
         13    1    1    2    0    0 -0.17464133650E+03 -0.40779809692E+03  0.65643172068E+03  0.79227615094E+03  0.10566000000E+00 0. -1.
          4    1    1    2  501    0 -0.21385211515E+03 -0.23137890126E+03  0.74893499904E+02  0.32384866749E+03  0.00000000000E+00 0.  1.
</event>
<event>
 5    1  0.4866530E-005  0.5000653E+03  0.7818608E-02  0.9555172E-01
         21   -1    0    0  501  502  0.00000000000E+00  0.00000000000E+00  0.41262952510E+03  0.41262952510E+03  0.00000000000E+00 0.  1.
          4   -1    0    0  502    0 -0.00000000000E+00 -0.00000000000E+00 -0.14306923918E+04  0.14306923918E+04  0.00000000000E+00 0.  1.
        -13    1    1    2    0    0 -0.29236932920E+03 -0.13628205268E+03 -0.33106109541E+03  0.46222730620E+03  0.10566000000E+00 0.  1.
         13    1    1    2    0    0 -0.25546980541E+03 -0.27850377936E+03 -0.57022163309E+03  0.68409202495E+03  0.10566000000E+00 0. -1.
          4    1    1    2  501    0  0.54783913461E+03  0.41478583204E+03 -0.11678013822E+03  0.69700258576E+03  0.00000000000E+00 0.  1.
</event>
<event>
 5    1  0.4866530E-005  0.6951808E+02  0.7818608E-02  0.1255808E+00
         21   -1    0    0  501  502  0.00000000000E+00  0.00000000000E+00  0.44225043112E+03  0.44225043112E+03  0.00000000000E+00 0. -1.
         -4   -1    0    0    0  501 -0.00000000000E+00 -0.00000000000E+00 -0.23354547360E+03  0.23354547360E+03  0.00000000000E+00 0. -1.
        -13    1    1    2    0    0 -0.23925350667E+02 -0.30150203260E+02  0.78169486005E+02  0.87131721362E+02  0.10566000000E+00 0.  1.
         13    1    1    2    0    0  0.24864551429E+02 -0.39806671908E+02 -0.22319745485E+03  0.22807878477E+03  0.10566000000E+00 0. -1.
         -4    1    1    2    0  502 -0.93920076226E+00  0.69956875168E+02  0.35373292636E+03  0.36058539859E+03  0.00000000000E+00 0. -1.
</event>
<event>
 5    1  0.4866530E-005  0.1794496E+02  0.7818608E-02  0.1564194E+00
         -4   -1    0    0    0  501 -0.00000000000E+00  0.00000000000E+00  0.90623845322E+01  0.90623845322E+01  0.00000000000E+00 0. -1.
         21   -1    0    0  501  502  0.00000000000E+00 -0.00000000000E+00 -0.74099830638E+02  0.74099830638E+02  0.00000000000E+00 0.  1.
        -13    1    1    2    0    0  0.19919023247E+02  0.85194450642E+01 -0.17991816756E+02  0.28161410929E+02  0.10566000000E+00 0.  1.
         13    1    1    2    0    0 -0.86191221492E+01  0.54209188412E+01 -0.12977805821E+02  0.16495764174E+02  0.10566000000E+00 0. -1.
         -4    1    1    2    0  502 -0.11299901097E+02 -0.13940363905E+02 -0.34067823528E+02  0.38505040067E+02  0.00000000000E+00 0. -1.
</event>
<event>
 5    1  0.4866530E-005  0.8030346E+02  0.7818608E-02  0.1202023E+00
         -4   -1    0    0    0  501 -0.00000000000E+00  0.00000000000E+00  0.69525110294E+02  0.69525110294E+02  0.00000000000E+00 0. -1.
         21   -1    0    0  501  502  0.00000000000E+00 -0.00000000000E+00 -0.90937673142E+03  0.90937673142E+03  0.00000000000E+00 0. -1.
        -13    1    1    2    0    0  0.88564636834E+02 -0.10897097695E+02 -0.43601736132E+03  0.44505459460E+03  0.10566000000E+00 0.  1.
         13    1    1    2    0    0 -0.79801224078E+02  0.20598745703E+01  0.40379309038E+02  0.89459366251E+02  0.10566000000E+00 0. -1.
         -4    1    1    2    0  502 -0.87634127567E+01  0.88372231250E+01 -0.44421356884E+03  0.44438788086E+03  0.00000000000E+00 0. -1.
</event>
<event>
 5    1  0.4866530E-005  0.9411046E+02  0.7818608E-02  0.1174686E+00
         21   -1    0    0  501  502  0.00000000000E+00  0.00000000000E+00  0.11093095771E+03  0.11093095771E+03  0.00000000000E+00 0. -1.
          4   -1    0    0  502    0 -0.00000000000E+00 -0.00000000000E+00 -0.16051564828E+03  0.16051564828E+03  0.00000000000E+00 0.  1.
        -13    1    1    2    0    0 -0.12570460820E+03  0.16649201946E+02  0.77398849359E+01  0.12703842501E+03  0.10566000000E+00 0.  1.
         13    1    1    2    0    0  0.76001024003E+02 -0.27907702396E+02 -0.28340551080E+02  0.85779913162E+02  0.10566000000E+00 0. -1.
          4    1    1    2  501    0  0.49703584194E+02  0.11258500450E+02 -0.28984024425E+02  0.58628267806E+02  0.00000000000E+00 0.  1.
</event>
<event>
 5    1  0.4866530E-005  0.2000441E+03  0.7818608E-02  0.1060106E+00
         21   -1    0    0  501  502  0.00000000000E+00  0.00000000000E+00  0.33156688579E+03  0.33156688579E+03  0.00000000000E+00 0.  1.
          4   -1    0    0  502    0 -0.00000000000E+00 -0.00000000000E+00 -0.33984032573E+03  0.33984032573E+03  0.00000000000E+00 0.  1.
        -13    1    1    2    0    0 -0.21641318702E+03  0.71264972355E+02  0.90558165624E+01  0.22802496087E+03  0.10566000000E+00 0.  1.
         13    1    1    2    0    0  0.17366846539E+03 -0.79467375716E+02 -0.18755502830E+03  0.26768021869E+03  0.10566000000E+00 0. -1.
          4    1    1    2  501    0  0.42744721628E+02  0.82024033615E+01  0.17022577181E+03  0.17570203196E+03  0.00000000000E+00 0.  1.
</event>
<event>
 5    1  0.4866530E-005  0.1480661E+03  0.7818608E-02  0.1103034E+00
         21   -1    0    0  501  502  0.00000000000E+00  0.00000000000E+00  0.13394469047E+03  0.13394469047E+03  0.00000000000E+00 0.  1.
         -4   -1    0    0    0  501 -0.00000000000E+00 -0.00000000000E+00 -0.31039293820E+03  0.31039293820E+03  0.00000000000E+00 0. -1.
        -13    1    1    2    0    0  0.14550627364E+03  0.51017968824E+02 -0.16279940185E+03  0.22422882334E+03  0.10566000000E+00 0.  1.
         13    1    1    2    0    0 -0.14053037200E+03 -0.15407396790E+02 -0.66463325575E+02  0.15621638244E+03  0.10566000000E+00 0. -1.
         -4    1    1    2    0  502 -0.49759016359E+01 -0.35610572034E+02  0.52814479692E+02  0.63892422890E+02  0.00000000000E+00 0. -1.
</event>
<event>
 5    1  0.4866530E-005  0.8950619E+02  0.7818608E-02  0.1183192E+00
         21   -1    0    0  501  502  0.00000000000E+00  0.00000000000E+00  0.69492274131E+03  0.69492274131E+03  0.00000000000E+00 0.  1.
          4   -1    0    0  502    0 -0.00000000000E+00 -0.00000000000E+00 -0.67915654130E+02  0.67915654130E+02  0.00000000000E+00 0.  1.
        -13    1    1    2    0    0  0.15192872101E+02 -0.90351888650E+02 -0.29758431016E+02  0.96332043090E+02  0.10566000000E+00 0.  1.
         13    1    1    2    0    0 -0.30746661539E+02  0.65583547809E+02  0.30314660414E+03  0.31168001814E+03  0.10566000000E+00 0. -1.
          4    1    1    2  501    0  0.15553789438E+02  0.24768340841E+02  0.35361891405E+03  0.35482633421E+03  0.00000000000E+00 0.  1.
</event>
<event>
 5    1  0.4866530E-005  0.4309037E+03  0.7818608E-02  0.9643818E-01
          4   -1    0    0  502    0 -0.00000000000E+00  0.00000000000E+00  0.25653757401E+04  0.25653757401E+04  0.00000000000E+00 0.  1.
         21   -1    0    0  501  502  0.00000000000E+00 -0.00000000000E+00 -0.25325424513E+03  0.25325424513E+03  0.00000000000E+00 0.  1.
        -13    1    1    2    0    0 -0.47845077701E+02  0.42240452123E+03  0.20141148323E+04  0.20584881102E+04  0.10566000000E+00 0.  1.
         13    1    1    2    0    0  0.12747304379E+02 -0.45825100854E+03  0.42405109741E+03  0.62448044403E+03  0.10566000000E+00 0. -1.
          4    1    1    2  501    0  0.35097773322E+02  0.35846487309E+02 -0.12604443472E+03  0.13566143102E+03  0.00000000000E+00 0.  1.
</event>
<event>
 5    1  0.4866530E-005  0.2804453E+03  0.7818608E-02  0.1015720E+00
          4   -1    0    0  502    0 -0.00000000000E+00  0.00000000000E+00  0.26182988957E+04  0.26182988957E+04  0.00000000000E+00 0.  1.
         21   -1    0    0  501  502  0.00000000000E+00 -0.00000000000E+00 -0.36479256036E+02  0.36479256036E+02  0.00000000000E+00 0. -1.
        -13    1    1    2    0    0  0.28319372598E+03  0.66545099087E+02  0.96614436245E+03  0.10089905237E+04  0.10566000000E+00 0.  1.
         13    1    1    2    0    0 -0.27140711299E+03 -0.43422083211E+02  0.15639186694E+04  0.15878881931E+04  0.10566000000E+00 0. -1.
          4    1    1    2  501    0 -0.11786612989E+02 -0.23123015876E+02  0.51756607909E+02  0.57899434981E+02  0.00000000000E+00 0.  1.
</event>
<event>
 5    1  0.4866530E-005  0.5050953E+03  0.7818608E-02  0.9517885E-01
         21   -1    0    0  501  502  0.00000000000E+00  0.00000000000E+00  0.46491800363E+03  0.46491800363E+03  0.00000000000E+00 0.  1.
          4   -1    0    0  502    0 -0.00000000000E+00 -0.00000000000E+00 -0.19159080462E+04  0.19159080462E+04  0.00000000000E+00 0.  1.
        -13    1    1    2    0    0  0.21806579585E+03 -0.40517840171E+03 -0.21668957236E+03  0.50860260564E+03  0.10566000000E+00 0.  1.
         13    1    1    2    0    0 -0.37335089055E+03 -0.19133003824E+03 -0.11812739946E+04  0.12535574708E+04  0.10566000000E+00 0. -1.
          4    1    1    2  501    0  0.15528509470E+03  0.59650843995E+03 -0.53026475602E+02  0.61866597343E+03  0.00000000000E+00 0.  1.
</event>
<event>
 5    1  0.4866530E-005  0.1051286E+03  0.7818608E-02  0.1156338E+00
         -4   -1    0    0    0  501 -0.00000000000E+00  0.00000000000E+00  0.84599404918E+03  0.84599404918E+03  0.00000000000E+00 0. -1.
         21   -1    0    0  501  502  0.00000000000E+00 -0.00000000000E+00 -0.21726944069E+02  0.21726944069E+02  0.00000000000E+00 0. -1.
        -13    1    1    2    0    0 -0.40308095607E+02  0.10309627874E+03  0.39278796183E+03  0.40808820050E+03  0.10566000000E+00 0.  1.
         13    1    1    2    0    0  0.76390619644E+02 -0.71768820018E+02  0.34802819291E+03  0.36346928965E+03  0.10566000000E+00 0. -1.
         -4    1    1    2    0  502 -0.36082524037E+02 -0.31327458720E+02  0.83450950372E+02  0.96163503102E+02  0.00000000000E+00 0. -1.
</event>
<event>
 5    1  0.4866530E-005  0.4777770E+03  0.7818608E-02  0.9528057E-01
          4   -1    0    0  502    0 -0.00000000000E+00  0.00000000000E+00  0.25134358100E+04  0.25134358100E+04  0.00000000000E+00 0.  1.
         21   -1    0    0  501  502  0.00000000000E+00 -0.00000000000E+00 -0.26858170020E+03  0.26858170020E+03  0.00000000000E+00 0. -1.
        -13    1    1    2    0    0  0.26382601027E+03  0.45218073890E+03  0.13348588648E+04  0.14338478944E+04  0.10566000000E+00 0.  1.
         13    1    1    2    0    0  0.16610113499E+03 -0.44030876815E+03  0.18591964407E+03  0.50599162401E+03  0.10566000000E+00 0. -1.
          4    1    1    2  501    0 -0.42992714526E+03 -0.11871970746E+02  0.72407560091E+03  0.84217799173E+03  0.00000000000E+00 0.  1.
</event>
<event>
 5    1  0.4866530E-005  0.4204252E+03  0.7818608E-02  0.9854978E-01
          4   -1    0    0  502    0 -0.00000000000E+00  0.00000000000E+00  0.28690139244E+04  0.28690139244E+04  0.00000000000E+00 0.  1.
         21   -1    0    0  501  502  0.00000000000E+00 -0.00000000000E+00 -0.16868852637E+03  0.16868852637E+03  0.00000000000E+00 0.  1.
        -13    1    1    2    0    0  0.34688330933E+03 -0.38782790377E+03  0.13084046421E+04  0.14080700380E+04  0.10566000000E+00 0.  1.
         13    1    1    2    0    0 -0.22389827612E+03  0.50195047632E+01  0.11248729101E+04  0.11469501770E+04  0.10566000000E+00 0. -1.
          4    1    1    2  501    0 -0.12298503321E+03  0.38280839901E+03  0.26704784577E+03  0.48268223572E+03  0.00000000000E+00 0.  1.
</event>
<event>
 5    1  0.4866530E-005  0.2657550E+03  0.7818608E-02  0.1022537E+00
         21   -1    0    0  501  502  0.00000000000E+00  0.00000000000E+00  0.99270367667E+02  0.99270367667E+02  0.00000000000E+00 0.  1.
          4   -1    0    0  502    0 -0.00000000000E+00 -0.00000000000E+00 -0.12254014797E+04  0.12254014797E+04  0.00000000000E+00 0.  1.
        -13    1    1    2    0    0 -0.97870663032E+02 -0.31028407089E+03 -0.68296165130E+03  0.75649950406E+03  0.10566000000E+00 0.  1.
         13    1    1    2    0    0  0.17120662404E+02  0.19403265717E+03 -0.16185983753E+03  0.25325956507E+03  0.10566000000E+00 0. -1.
          4    1    1    2  501    0  0.80750000628E+02  0.11625141372E+03 -0.28130962323E+03  0.31491277826E+03  0.00000000000E+00 0.  1.
</event>
<event>
 5    1  0.4866530E-005  0.4709253E+03  0.7818608E-02  0.9640689E-01
         21   -1    0    0  501  502  0.00000000000E+00  0.00000000000E+00  0.30565814903E+03  0.30565814903E+03  0.00000000000E+00 0. -1.
         -4   -1    0    0    0  501 -0.00000000000E+00 -0.00000000000E+00 -0.16919259227E+04  0.16919259227E+04  0.00000000000E+00 0. -1.
        -13    1    1    2    0    0  0.26595617685E+03  0.20167714918E+03 -0.71685777583E+03  0.79075371794E+03  0.10566000000E+00 0.  1.
         13    1    1    2    0    0  0.15385183918E+03 -0.47377479396E+03 -0.39848141171E+03  0.63790311996E+03  0.10566000000E+00 0. -1.
         -4    1    1    2    0  502 -0.41980801603E+03  0.27209764478E+03 -0.27092858614E+03  0.56892723384E+03  0.00000000000E+00 0. -1.
</event>
<event>
 5    1  0.4866530E-005  0.2982935E+03  0.7818608E-02  0.1008012E+00
         21   -1    0    0  501  502  0.00000000000E+00  0.00000000000E+00  0.16971465457E+04  0.16971465457E+04  0.00000000000E+00 0.  1.
         -4   -1    0    0    0  501 -0.00000000000E+00 -0.00000000000E+00 -0.69337481426E+02  0.69337481426E+02  0.00000000000E+00 0. -1.
        -13    1    1    2    0    0 -0.23004656488E+03 -0.16535919131E+03  0.66450278849E+03  0.72237736069E+03  0.10566000000E+00 0.  1.
         13    1    1    2    0    0  0.22868619869E+03  0.21386268046E+03  0.59253096896E+03  0.67016981721E+03  0.10566000000E+00 0. -1.
         -4    1    1    2    0  502  0.13603661828E+01 -0.48503489142E+02  0.37077530679E+03  0.37393684918E+03  0.00000000000E+00 0. -1.
</event>
<event>
 5    1  0.4866530E-005  0.1127111E+03  0.7818608E-02  0.1145083E+00
         -4   -1    0    0    0  501 -0.00000000000E+00  0.00000000000E+00  0.29615275634E+03  0.29615275634E+03  0.00000000000E+00 0. -1.
         21   -1    0    0  501  502  0.00000000000E+00 -0.00000000000E+00 -0.13596272262E+03  0.13596272262E+03  0.00000000000E+00 0.  1.
        -13    1    1    2    0    0 -0.50361105930E+02 -0.44357520302E+02 -0.53842082551E+02  0.86039593300E+02  0.10566000000E+00 0.  1.
         13    1    1    2    0    0  0.75287193467E+02  0.96152628112E+02  0.25002553521E+03  0.27825576151E+03  0.10566000000E+00 0. -1.
         -4    1    1    2    0  502 -0.24926087537E+02 -0.51795107810E+02 -0.35993418938E+02  0.67820124151E+02  0.00000000000E+00 0. -1.
</event>
<event>
 5    1  0.4866530E-005  0.5007751E+03  0.7818608E-02  0.9566732E-01
         21   -1    0    0  501  502  0.00000000000E+00  0.00000000000E+00  0.26263829074E+03  0.26263829074E+03  0.00000000000E+00 0. -1.
         -4   -1    0    0    0  501 -0.00000000000E+00 -0.00000000000E+00 -0.21371054002E+04  0.21371054002E+04  0.00000000000E+00 0. -1.
        -13    1    1    2    0    0  0.32335428469E+03 -0.16059215727E+03 -0.80840337828E+03  0.88536086857E+03  0.10566000000E+00 0.  1.
         13    1    1    2    0    0 -0.27411397386E+03 -0.41354264171E+03 -0.43532032024E+03  0.66004528599E+03  0.10566000000E+00 0. -1.
         -4    1    1    2    0  502 -0.49240310827E+02  0.57413479899E+03 -0.63074341095E+03  0.85433753638E+03  0.00000000000E+00 0. -1.
</event>
<event>
 5    1  0.4866530E-005  0.9810781E+02  0.7818608E-02  0.1167725E+00
          4   -1    0    0  502    0 -0.00000000000E+00  0.00000000000E+00  0.43316997112E+03  0.43316997112E+03  0.00000000000E+00 0.  1.
         21   -1    0    0  501  502  0.00000000000E+00 -0.00000000000E+00 -0.10859165443E+03  0.10859165443E+03  0.00000000000E+00 0.  1.
        -13    1    1    2    0    0 -0.54090298744E+02  0.93605501665E+02  0.35221606721E+03  0.36843441686E+03  0.10566000000E+00 0.  1.
         13    1    1    2    0    0  0.78022009196E+02 -0.18505890958E+02  0.18090810594E+02  0.82202132036E+02  0.10566000000E+00 0. -1.
          4    1    1    2  501    0 -0.23931710453E+02 -0.75099610707E+02 -0.45728561122E+02  0.91125076657E+02  0.00000000000E+00 0.  1.
</event>
<event>
 5    1  0.4866530E-005  0.1521382E+03  0.7818608E-02  0.1099022E+00
         -4   -1    0    0    0  501 -0.00000000000E+00  0.00000000000E+00  0.22055358172E+03  0.22055358172E+03  0.00000000000E+00 0. -1.
         21   -1    0    0  501  502  0.00000000000E+00 -0.00000000000E+00 -0.18195521681E+03  0.18195521681E+03  0.00000000000E+00 0.  1.
        -13    1    1    2    0    0  0.22754282943E+02 -0.15505119280E+03 -0.27383245859E+02  0.15908640136E+03  0.10566000000E+00 0.  1.
         13    1    1    2    0    0 -0.30190732664E+02  0.14734655693E+03  0.11746223368E+03  0.19083992162E+03  0.10566000000E+00 0. -1.
         -4    1    1    2    0  502  0.74364497212E+01  0.77046358740E+01 -0.51480622916E+02  0.52582475543E+02  0.00000000000E+00 0. -1.
</event>
<event>
 5    1  0.4866530E-005  0.2105517E+03  0.7818608E-02  0.1053133E+00
         21   -1    0    0  501  502  0.00000000000E+00  0.00000000000E+00  0.47365254856E+02  0.47365254856E+02  0.00000000000E+00 0. -1.
          4   -1    0    0  502    0 -0.00000000000E+00 -0.00000000000E+00 -0.12572360559E+04  0.12572360559E+04  0.00000000000E+00 0.  1.
        -13    1    1    2    0    0  0.18822107773E+03  0.10841913892E+03 -0.77573797971E+03  0.80557514120E+03  0.10566000000E+00 0.  1.
         13    1    1    2    0    0 -0.15154810546E+03 -0.13289021195E+03 -0.36709063692E+03  0.41878656088E+03  0.10566000000E+00 0. -1.
          4    1    1    2  501    0 -0.36672972266E+02  0.24471073031E+02 -0.67042184461E+02  0.80239608719E+02  0.00000000000E+00 0.  1.
</event>
<event>
 5    1  0.4866530E-005  0.2556622E+03  0.7818608E-02  0.1027500E+00
         -4   -1    0    0    0  501 -0.00000000000E+00  0.00000000000E+00  0.56927580988E+03  0.56927580988E+03  0.00000000000E+00 0. -1.
         21   -1    0    0  501  502  0.00000000000E+00 -0.00000000000E+00 -0.73863794024E+03  0.73863794024E+03  0.00000000000E+00 0. -1.
        -13    1    1    2    0    0 -0.14862369988E+03 -0.19885387920E+03  0.38969045307E+02  0.25129756683E+03  0.10566000000E+00 0.  1.
         13    1    1    2    0    0 -0.40456035276E+02  0.28111697309E+03  0.35622199827E+03  0.45558486209E+03  0.10566000000E+00 0. -1.
         -4    1    1    2    0  502  0.18907973515E+03 -0.82263093892E+02 -0.56455317394E+03  0.60103132120E+03  0.00000000000E+00 0. -1.
</event>
<event>
 5    1  0.4866530E-005  0.9263083E+02  0.7818608E-02  0.1177359E+00
         21   -1    0    0  501  502  0.00000000000E+00  0.00000000000E+00  0.61121287789E+02  0.61121287789E+02  0.00000000000E+00 0.  1.
         -4   -1    0    0    0  501 -0.00000000000E+00 -0.00000000000E+00 -0.27693768389E+03  0.27693768389E+03  0.00000000000E+00 0. -1.
        -13    1    1    2    0    0 -0.94422660790E+02 -0.21641446202E+02 -0.55054058501E+02  0.11142240163E+03  0.10566000000E+00 0.  1.
         13    1    1    2    0    0  0.91381096372E+02  0.34279627867E+01 -0.17879714617E+03  0.20082501425E+03  0.10566000000E+00 0. -1.
         -4    1    1    2    0  502  0.30415644184E+01  0.18213483415E+02  0.18034808577E+02  0.25811555796E+02  0.00000000000E+00 0. -1.
</event>
<event>
 5    1  0.4866530E-005  0.3336237E+03  0.7818608E-02  0.1038181E+00
         -4   -1    0    0    0  501 -0.00000000000E+00  0.00000000000E+00  0.17091017678E+04  0.17091017678E+04  0.00000000000E+00 0. -1.
         21   -1    0    0  501  502  0.00000000000E+00 -0.00000000000E+00 -0.18259804718E+03  0.18259804718E+03  0.00000000000E+00 0. -1.
        -13    1    1    2    0    0 -0.62022170055E+02  0.54950778295E+02  0.20339105804E+03  0.21962302081E+03  0.10566000000E+00 0.  1.
         13    1    1    2    0    0  0.12144053009E+03  0.27858741521E+03  0.12971711202E+04  0.13322956415E+04  0.10566000000E+00 0. -1.
         -4    1    1    2    0  502 -0.59418360039E+02 -0.33353819350E+03  0.25941542359E+02  0.33978115259E+03  0.00000000000E+00 0. -1.
</event>
<event>
 5    1  0.4866530E-005  0.9907406E+02  0.7818608E-02  0.1166097E+00
         21   -1    0    0  501  502  0.00000000000E+00  0.00000000000E+00  0.18690665243E+03  0.18690665243E+03  0.00000000000E+00 0.  1.
         -4   -1    0    0    0  501 -0.00000000000E+00 -0.00000000000E+00 -0.83328491503E+02  0.83328491503E+02  0.00000000000E+00 0. -1.
        -13    1    1    2    0    0  0.70564972508E+02 -0.75513405701E+02  0.29734832309E+02  0.10754469397E+03  0.10566000000E+00 0.  1.
         13    1    1    2    0    0 -0.72775924986E+02  0.62676357297E+02  0.89033626107E+01  0.96456944029E+02  0.10566000000E+00 0. -1.
         -4    1    1    2    0  502  0.22109524781E+01  0.12837048404E+02  0.64939966006E+02  0.66233505928E+02  0.00000000000E+00 0. -1.
</event>
<event>
 5    1  0.4866530E-005  0.9281842E+02  0.7818608E-02  0.1196125E+00
         21   -1    0    0  501  502  0.00000000000E+00  0.00000000000E+00  0.29846104507E+03  0.29846104507E+03  0.00000000000E+00 0. -1.
         -4   -1    0    0    0  501 -0.00000000000E+00 -0.00000000000E+00 -0.23007552518E+03  0.23007552518E+03  0.00000000000E+00 0. -1.
        -13    1    1    2    0    0  0.21929829406E+02 -0.55300180260E+02  0.83168600917E+02  0.10225485170E+03  0.10566000000E+00 0.  1.
         13    1    1    2    0    0 -0.95562542664E+02 -0.25433465663E+01 -0.19836546997E+03  0.22019886242E+03  0.10566000000E+00 0. -1.
         -4    1    1    2    0  502  0.73632713258E+02  0.57843526827E+02  0.18358238894E+03  0.20608285612E+03  0.00000000000E+00 0. -1.
</event>
<event>
 5    1  0.4866530E-005  0.2890051E+03  0.7818608E-02  0.1016024E+00
          4   -1    0    0  502    0 -0.00000000000E+00  0.00000000000E+00  0.23639506075E+04  0.23639506075E+04  0.00000000000E+00 0.  1.
         21   -1    0    0  501  502  0.00000000000E+00 -0.00000000000E+00 -0.42721657723E+03  0.42721657723E+03  0.00000000000E+00 0.  1.
        -13    1    1    2    0    0 -0.12051227992E+03  0.21761084795E+03 -0.24048279665E+03  0.34599086319E+03  0.10566000000E+00 0.  1.
         13    1    1    2    0    0 -0.13000551359E+02  0.30812763850E+03  0.16841050889E+04  0.17121102819E+04  0.10566000000E+00 0. -1.
          4    1    1    2  501    0  0.13351283128E+03 -0.52573848645E+03  0.49311173809E+03  0.73306603966E+03  0.00000000000E+00 0.  1.
</event>
<event>
 5    1  0.4866530E-005  0.7500071E+03  0.7818608E-02  0.9053429E-01
         -4   -1    0    0    0  501 -0.00000000000E+00  0.00000000000E+00  0.13470375112E+04  0.13470375112E+04  0.00000000000E+00 0. -1.
         21   -1    0    0  501  502  0.00000000000E+00 -0.00000000000E+00 -0.62803873759E+03  0.62803873759E+03  0.00000000000E+00 0.  1.
        -13    1    1    2    0    0 -0.50145349244E+03  0.41761874869E+03  0.26565498193E+03  0.70458044603E+03  0.10566000000E+00 0.  1.
         13    1    1    2    0    0  0.53660067979E+03 -0.69452707767E+03  0.46076303091E+03  0.99126723591E+03  0.10566000000E+00 0. -1.
         -4    1    1    2    0  502 -0.35147187355E+02  0.27690832898E+03 -0.74192392273E+01  0.27922856686E+03  0.00000000000E+00 0. -1.
</event>
<event>
 5    1  0.4866530E-005  0.3071492E+02  0.7818608E-02  0.1399258E+00
         21   -1    0    0  501  502  0.00000000000E+00  0.00000000000E+00  0.70828435770E+02  0.70828435770E+02  0.00000000000E+00 0. -1.
          4   -1    0    0  502    0 -0.00000000000E+00 -0.00000000000E+00 -0.40572797837E+02  0.40572797837E+02  0.00000000000E+00 0.  1.
        -13    1    1    2    0    0 -0.31585195097E+02  0.81422542980E+01 -0.22288409766E+02  0.39505761964E+02  0.10566000000E+00 0.  1.
         13    1    1    2    0    0  0.15901313403E+02 -0.22198971907E+02  0.35586704839E+02  0.44856112705E+02  0.10566000000E+00 0. -1.
          4    1    1    2  501    0  0.15683881695E+02  0.14056717609E+02  0.16957342860E+02  0.27039358939E+02  0.00000000000E+00 0.  1.
</event>
<event>
 5    1  0.4866530E-005  0.6249050E+02  0.7818608E-02  0.1247926E+00
         -4   -1    0    0    0  501 -0.00000000000E+00  0.00000000000E+00  0.94242962766E+02  0.94242962766E+02  0.00000000000E+00 0. -1.
         21   -1    0    0  501  502  0.00000000000E+00 -0.00000000000E+00 -0.12045559650E+03  0.12045559650E+03  0.00000000000E+00 0. -1.
        -13    1    1    2    0    0  0.55573871530E+02  0.21252570772E+02 -0.42549814687E+02  0.73147965489E+02  0.10566000000E+00 0.  1.
         13    1    1    2    0    0 -0.52427352001E+02 -0.35752461653E+02  0.64902032881E+02  0.90769768030E+02  0.10566000000E+00 0. -1.
         -4    1    1    2    0  502 -0.31465195283E+01  0.14499890882E+02 -0.48564851931E+02  0.50780825750E+02  0.00000000000E+00 0. -1.
</event>
<event>
 5    1  0.4866530E-005  0.3289414E+03  0.7818608E-02  0.1042035E+00
         -4   -1    0    0    0  501 -0.00000000000E+00  0.00000000000E+00  0.28186866969E+03  0.28186866969E+03  0.00000000000E+00 0. -1.
         21   -1    0    0  501  502  0.00000000000E+00 -0.00000000000E+00 -0.11114413636E+04  0.11114413636E+04  0.00000000000E+00 0. -1.
        -13    1    1    2    0    0 -0.76917520937E+02  0.11527309831E+01 -0.15645494431E+03  0.17434389745E+03  0.10566000000E+00 0.  1.
         13    1    1    2    0    0  0.92640977893E+02 -0.32901005937E+03  0.11868712886E+03  0.36182401202E+03  0.10566000000E+00 0. -1.
         -4    1    1    2    0  502 -0.15723456956E+02  0.32785732839E+03 -0.79180487843E+03  0.85714212380E+03  0.00000000000E+00 0. -1.
</event>
<event>
 5    1  0.4866530E-005  0.4485348E+03  0.7818608E-02  0.9639559E-01
          4   -1    0    0  502    0 -0.00000000000E+00  0.00000000000E+00  0.21427511791E+04  0.21427511791E+04  0.00000000000E+00 0.  1.
         21   -1    0    0  501  502  0.00000000000E+00 -0.00000000000E+00 -0.24722990793E+03  0.24722990793E+03  0.00000000000E+00 0.  1.
        -13    1    1    2    0    0 -0.29052960489E+03 -0.43798849425E+03  0.10515298068E+04  0.11755663819E+04  0.10566000000E+00 0.  1.
         13    1    1    2    0    0 -0.16404780647E+03  0.35143909666E+03  0.52353226771E+03  0.65154214596E+03  0.10566000000E+00 0. -1.
          4    1    1    2  501    0  0.45457741136E+03  0.86549397583E+02  0.32045919658E+03  0.56287255912E+03  0.00000000000E+00 0.  1.
</event>
<event>
 5    1  0.4866530E-005  0.3844220E+03  0.7818608E-02  0.9775145E-01
         -4   -1    0    0    0  501 -0.00000000000E+00  0.00000000000E+00  0.11140799065E+04  0.11140799065E+04  0.00000000000E+00 0. -1.
         21   -1    0    0  501  502  0.00000000000E+00 -0.00000000000E+00 -0.55954793592E+03  0.55954793592E+03  0.00000000000E+00 0. -1.
        -13    1    1    2    0    0  0.42850949069E+03  0.18007793706E+03  0.20954373400E+03  0.50985981863E+03  0.10566000000E+00 0.  1.
         13    1    1    2    0    0 -0.32978213625E+03 -0.14705479179E+03  0.70333365943E+03  0.79060711914E+03  0.10566000000E+00 0. -1.
         -4    1    1    2    0  502 -0.98727354437E+02 -0.33023145267E+02 -0.35834542288E+03  0.37316090462E+03  0.00000000000E+00 0. -1.
</event>
<event>
 5    1  0.4866530E-005  0.3222643E+03  0.7818608E-02  0.1014192E+00
          4   -1    0    0  502    0 -0.00000000000E+00  0.00000000000E+00  0.15920192616E+04  0.15920192616E+04  0.00000000000E+00 0.  1.
         21   -1    0    0  501  502  0.00000000000E+00 -0.00000000000E+00 -0.23012587134E+03  0.23012587134E+03  0.00000000000E+00 0.  1.
        -13    1    1    2    0    0 -0.15535687164E+03 -0.28856186401E+03  0.58205542176E+00  0.32772558166E+03  0.10566000000E+00 0.  1.
         13    1    1    2    0    0  0.18930824892E+03 -0.42561210861E+02  0.17162237176E+03  0.25904308412E+03  0.10566000000E+00 0. -1.
          4    1    1    2  501    0 -0.33951377277E+02  0.33112307487E+03  0.11896889631E+04  0.12353764671E+04  0.00000000000E+00 0.  1.
</event>
<event>
 5    1  0.4866530E-005  0.3442611E+03  0.7818608E-02  0.9905483E-01
         -4   -1    0    0    0  501 -0.00000000000E+00  0.00000000000E+00  0.82092427131E+02  0.82092427131E+02  0.00000000000E+00 0. -1.
         21   -1    0    0  501  502  0.00000000000E+00 -0.00000000000E+00 -0.16596685949E+04  0.16596685949E+04  0.00000000000E+00 0.  1.
        -13    1    1    2    0    0 -0.20526075261E+03 -0.25936949343E+03 -0.80147465725E+03  0.86704449024E+03  0.10566000000E+00 0.  1.
         13    1    1    2    0    0  0.24619021632E+03  0.25715650153E+03 -0.63734811668E+03  0.73003542509E+03  0.10566000000E+00 0. -1.
         -4    1    1    2    0  502 -0.40929463710E+02  0.22129919041E+01 -0.13875339383E+03  0.14468110669E+03  0.00000000000E+00 0. -1.
</event>
<event>
 5    1  0.4866530E-005  0.4795476E+03  0.7818608E-02  0.9523962E-01
         21   -1    0    0  501  502  0.00000000000E+00  0.00000000000E+00  0.20179238401E+04  0.20179238401E+04  0.00000000000E+00 0. -1.
         -4   -1    0    0    0  501 -0.00000000000E+00 -0.00000000000E+00 -0.24625399052E+03  0.24625399052E+03  0.00000000000E+00 0. -1.
        -13    1    1    2    0    0  0.15543330480E+03  0.38302076958E+03  0.33051956691E+03  0.52925194137E+03  0.10566000000E+00 0.  1.
         13    1    1    2    0    0 -0.73777812538E+02 -0.66615461144E+03  0.10376105796E+04  0.12352493101E+04  0.10566000000E+00 0. -1.
         -4    1    1    2    0  502 -0.81655492263E+02  0.28313384186E+03  0.40353970300E+03  0.49967657912E+03  0.00000000000E+00 0. -1.
</event>
<event>
 5    1  0.4866530E-005  0.2595911E+03  0.7818608E-02  0.1040555E+00
          4   -1    0    0  502    0 -0.00000000000E+00  0.00000000000E+00  0.29311575885E+04  0.29311575885E+04  0.00000000000E+00 0.  1.
         21   -1    0    0  501  502  0.00000000000E+00 -0.00000000000E+00 -0.13601821399E+03  0.13601821399E+03  0.00000000000E+00 0.  1.
        -13    1    1    2    0    0  0.21767444119E+03  0.12930426943E+03  0.34109052616E+02  0.25547053661E+03  0.10566000000E+00 0.  1.
         13    1    1    2    0    0  0.41289044644E+01  0.16362427190E+03  0.89558417877E+03  0.91041802632E+03  0.10566000000E+00 0. -1.
          4    1    1    2  501    0 -0.22180334565E+03 -0.29292854133E+03  0.18654461431E+04  0.19012872396E+04  0.00000000000E+00 0.  1.
</event>
<event>
 5    1  0.4866530E-005  0.4085311E+03  0.7818608E-02  0.9716118E-01
          4   -1    0    0  502    0 -0.00000000000E+00  0.00000000000E+00  0.26954507744E+04  0.26954507744E+04  0.00000000000E+00 0.  1.
         21   -1    0    0  501  502  0.00000000000E+00 -0.00000000000E+00 -0.20801664908E+03  0.20801664908E+03  0.00000000000E+00 0.  1.
        -13    1    1    2    0    0  0.23239389589E+03 -0.38415472000E+03  0.13296645208E+04  0.14034206500E+04  0.10566000000E+00 0.  1.
         13    1    1    2    0    0  0.20096736836E+03  0.33734817048E+03  0.92723814713E+03  0.10069569325E+04  0.10566000000E+00 0. -1.
          4    1    1    2  501    0 -0.43336126425E+03  0.46806549525E+02  0.23053145737E+03  0.49308984097E+03  0.00000000000E+00 0.  1.
</event>
<event>
 5    1  0.4866530E-005  0.4090838E+03  0.7818608E-02  0.9734563E-01
          4   -1    0    0  502    0 -0.00000000000E+00  0.00000000000E+00  0.67093839482E+03  0.67093839482E+03  0.00000000000E+00 0.  1.
         21   -1    0    0  501  502  0.00000000000E+00 -0.00000000000E+00 -0.88167559198E+03  0.88167559198E+03  0.00000000000E+00 0. -1.
        -13    1    1    2    0    0 -0.19199510886E+03 -0.24865794787E+03  0.19416769299E+03  0.36931558460E+03  0.10566000000E+00 0.  1.
         13    1    1    2    0    0  0.30644287512E+03 -0.20170718083E+03  0.20209770008E+03  0.41885142241E+03  0.10566000000E+00 0. -1.
          4    1    1    2  501    0 -0.11444776625E+03  0.45036512871E+03 -0.60700259023E+03  0.76444697978E+03  0.00000000000E+00 0.  1.
</event>
<event>
 5    1  0.4866530E-005  0.7493128E+02  0.7818608E-02  0.1222558E+00
         21   -1    0    0  501  502  0.00000000000E+00  0.00000000000E+00  0.39460256063E+03  0.39460256063E+03  0.00000000000E+00 0. -1.
          4   -1    0    0  502    0 -0.00000000000E+00 -0.00000000000E+00 -0.57178735782E+02  0.57178735782E+02  0.00000000000E+00 0.  1.
        -13    1    1    2    0    0  0.49467834774E+02  0.22108587438E+02  0.33594542661E+02  0.63753123660E+02  0.10566000000E+00 0.  1.
         13    1    1    2    0    0 -0.36322363594E+02 -0.10308466232E+03  0.48008905300E+02  0.11937599363E+03  0.10566000000E+00 0. -1.
          4    1    1    2  501    0 -0.13145471181E+02  0.80976074885E+02  0.25582037689E+03  0.26865217912E+03  0.00000000000E+00 0.  1.
</event>
<event>
 5    1  0.4866530E-005  0.1246744E+03  0.7818608E-02  0.1176680E+00
         -4   -1    0    0    0  501 -0.00000000000E+00  0.00000000000E+00  0.52430437614E+03  0.52430437614E+03  0.00000000000E+00 0. -1.
         21   -1    0    0  501  502  0.00000000000E+00 -0.00000000000E+00 -0.12766544630E+03  0.12766544630E+03  0.00000000000E+00 0.  1.
        -13    1    1    2    0    0 -0.14365086768E+01  0.38580293730E+02 -0.37577826188E+02  0.53875846226E+02  0.10566000000E+00 0.  1.
         13    1    1    2    0    0  0.71308756101E+02  0.68562610752E+02  0.45750563857E+03  0.46807818874E+03  0.10566000000E+00 0. -1.
         -4    1    1    2    0  502 -0.69872247425E+02 -0.10714290448E+03 -0.23288882538E+02  0.13001578747E+03  0.00000000000E+00 0. -1.
</event>
<event>
 5    1  0.4866530E-005  0.1553114E+03  0.7818608E-02  0.1095988E+00
          4   -1    0    0  502    0 -0.00000000000E+00  0.00000000000E+00  0.10964143896E+03  0.10964143896E+03  0.00000000000E+00 0.  1.
         21   -1    0    0  501  502  0.00000000000E+00 -0.00000000000E+00 -0.35833316156E+03  0.35833316156E+03  0.00000000000E+00 0. -1.
        -13    1    1    2    0    0 -0.10296212085E+03 -0.96701190885E+02 -0.11139250984E+03  0.17989058080E+03  0.10566000000E+00 0.  1.
         13    1    1    2    0    0  0.10900650334E+03  0.12303653760E+03 -0.17537164718E+02  0.16531173783E+03  0.10566000000E+00 0. -1.
          4    1    1    2  501    0 -0.60443824920E+01 -0.26335346715E+02 -0.11976204804E+03  0.12277228188E+03  0.00000000000E+00 0.  1.
</event>
<event>
 5    1  0.4866530E-005  0.2109262E+03  0.7818608E-02  0.1052893E+00
         21   -1    0    0  501  502  0.00000000000E+00  0.00000000000E+00  0.16051806351E+03  0.16051806351E+03  0.00000000000E+00 0.  1.
         -4   -1    0    0    0  501 -0.00000000000E+00 -0.00000000000E+00 -0.59857703164E+03  0.59857703164E+03  0.00000000000E+00 0. -1.
        -13    1    1    2    0    0 -0.17439632642E+03  0.71870374516E+02 -0.26213584727E+02  0.19043789694E+03  0.10566000000E+00 0.  1.
         13    1    1    2    0    0  0.19157132829E+03 -0.10367737539E+03 -0.45969260516E+03  0.50869035218E+03  0.10566000000E+00 0. -1.
         -4    1    1    2    0  502 -0.17175001866E+02  0.31807000879E+02  0.47847221753E+02  0.59966846036E+02  0.00000000000E+00 0. -1.
</event>
<event>
 5    1  0.4866530E-005  0.4165666E+03  0.7818608E-02  0.9717064E-01
         -4   -1    0    0    0  501 -0.00000000000E+00  0.00000000000E+00  0.13378827712E+04  0.13378827712E+04  0.00000000000E+00 0. -1.
         21   -1    0    0  501  502  0.00000000000E+00 -0.00000000000E+00 -0.50003207076E+03  0.50003207076E+03  0.00000000000E+00 0. -1.
        -13    1    1    2    0    0 -0.28674074622E+03  0.23252142831E+03  0.60178104624E+03  0.70599356155E+03  0.10566000000E+00 0.  1.
         13    1    1    2    0    0 -0.16795730179E+03 -0.62267171218E+02  0.53334020190E+03  0.56261766588E+03  0.10566000000E+00 0. -1.
         -4    1    1    2    0  502  0.45469804801E+03 -0.17025425709E+03 -0.29727054774E+03  0.56930361449E+03  0.00000000000E+00 0. -1.
</event>
<event>
 5    1  0.4866530E-005  0.5068527E+03  0.7818608E-02  0.9564429E-01
         -4   -1    0    0    0  501 -0.00000000000E+00  0.00000000000E+00  0.44941699958E+03  0.44941699958E+03  0.00000000000E+00 0. -1.
         21   -1    0    0  501  502  0.00000000000E+00 -0.00000000000E+00 -0.11714250957E+04  0.11714250957E+04  0.00000000000E+00 0. -1.
        -13    1    1    2    0    0  0.33036900202E+03 -0.11883278893E+03 -0.56476002110E+02  0.35560435768E+03  0.10566000000E+00 0.  1.
         13    1    1    2    0    0  0.35479897031E+03  0.32325592949E+02 -0.93097137840E+02  0.36823136956E+03  0.10566000000E+00 0. -1.
         -4    1    1    2    0  502 -0.68516797233E+03  0.86507195986E+02 -0.57243495620E+03  0.89700636806E+03  0.00000000000E+00 0. -1.
</event>
<event>
 5    1  0.4866530E-005  0.2539077E+02  0.7818608E-02  0.1465884E+00
         21   -1    0    0  501  502  0.00000000000E+00  0.00000000000E+00  0.38568525935E+02  0.38568525935E+02  0.00000000000E+00 0.  1.
          4   -1    0    0  502    0 -0.00000000000E+00 -0.00000000000E+00 -0.63972339973E+02  0.63972339973E+02  0.00000000000E+00 0.  1.
        -13    1    1    2    0    0 -0.22953782984E+02  0.11031193975E+01 -0.29895884716E+01  0.23174162962E+02  0.10566000000E+00 0.  1.
         13    1    1    2    0    0  0.15377309271E+01  0.18683845232E+02 -0.40796732070E+02  0.44898053418E+02  0.10566000000E+00 0. -1.
          4    1    1    2  501    0  0.21416052057E+02 -0.19786964629E+02  0.18382506503E+02  0.34468649528E+02  0.00000000000E+00 0.  1.
</event>
<event>
 5    1  0.4866530E-005  0.4383136E+03  0.7818608E-02  0.9816776E-01
         -4   -1    0    0    0  501 -0.00000000000E+00  0.00000000000E+00  0.23651244380E+04  0.23651244380E+04  0.00000000000E+00 0. -1.
         21   -1    0    0  501  502  0.00000000000E+00 -0.00000000000E+00 -0.17711773248E+03  0.17711773248E+03  0.00000000000E+00 0. -1.
        -13    1    1    2    0    0  0.17257798777E+03  0.14430367794E+03  0.79392153932E+03  0.82517763850E+03  0.10566000000E+00 0.  1.
         13    1    1    2    0    0  0.27654117508E+03 -0.28117702481E+03  0.10862656065E+04  0.11556420379E+04  0.10566000000E+00 0. -1.
         -4    1    1    2    0  502 -0.44911916285E+03  0.13687334687E+03  0.30781955974E+03  0.56142249410E+03  0.00000000000E+00 0. -1.
</event>
<event>
 5    1  0.4866530E-005  0.4781286E+03  0.7818608E-02  0.9951614E-01
         21   -1    0    0  501  502  0.00000000000E+00  0.00000000000E+00  0.17322338845E+03  0.17322338845E+03  0.00000000000E+00 0.  1.
          4   -1    0    0  502    0 -0.00000000000E+00 -0.00000000000E+00 -0.18094772861E+04  0.18094772861E+04  0.00000000000E+00 0.  1.
        -13    1    1    2    0    0  0.16152124152E+03  0.47234743846E+03 -0.97836397546E+03  0.10983611855E+04  0.10566000000E+00 0.  1.
         13    1    1    2    0    0 -0.11014296815E+03 -0.42702238872E+01 -0.19521829532E+03  0.22418720355E+03  0.10566000000E+00 0. -1.
          4    1    1    2  501    0 -0.51378273372E+02 -0.46807721458E+03 -0.46267162684E+03  0.66015228551E+03  0.00000000000E+00 0.  1.
</event>
<event>
 5    1  0.4866530E-005  0.2482267E+03  0.7818608E-02  0.1031316E+00
         21   -1    0    0  501  502  0.00000000000E+00  0.00000000000E+00  0.11307274110E+03  0.11307274110E+03  0.00000000000E+00 0.  1.
         -4   -1    0    0    0  501 -0.00000000000E+00 -0.00000000000E+00 -0.77478186952E+03  0.77478186952E+03  0.00000000000E+00 0. -1.
        -13    1    1    2    0    0  0.26190804823E+03 -0.34626955052E+02 -0.18940598221E+03  0.32506843741E+03  0.10566000000E+00 0.  1.
         13    1    1    2    0    0 -0.24170742390E+03  0.56583895525E+01 -0.46857551156E+03  0.52727366456E+03  0.10566000000E+00 0. -1.
         -4    1    1    2    0  502 -0.20200624329E+02  0.28968565499E+02 -0.37276346448E+01  0.35512508647E+02  0.00000000000E+00 0. -1.
</event>
<event>
 5    1  0.4866530E-005  0.2307874E+03  0.7818608E-02  0.1040860E+00
         21   -1    0    0  501  502  0.00000000000E+00  0.00000000000E+00  0.32895791713E+03  0.32895791713E+03  0.00000000000E+00 0.  1.
         -4   -1    0    0    0  501 -0.00000000000E+00 -0.00000000000E+00 -0.94081558857E+03  0.94081558857E+03  0.00000000000E+00 0. -1.
        -13    1    1    2    0    0 -0.30087256766E+02 -0.24746101845E+03  0.16853064851E+03  0.30090661230E+03  0.10566000000E+00 0.  1.
         13    1    1    2    0    0  0.69950871644E+02  0.21895146233E+03 -0.85179324908E+03  0.88226108247E+03  0.10566000000E+00 0. -1.
         -4    1    1    2    0  502 -0.39863614878E+02  0.28509556118E+02  0.71404929136E+02  0.86605810926E+02  0.00000000000E+00 0. -1.
</event>
<event>
 5    1  0.4866530E-005  0.3825311E+03  0.7818608E-02  0.9845582E-01
         21   -1    0    0  501  502  0.00000000000E+00  0.00000000000E+00  0.62948689253E+03  0.62948689253E+03  0.00000000000E+00 0. -1.
         -4   -1    0    0    0  501 -0.00000000000E+00 -0.00000000000E+00 -0.88556253441E+03  0.88556253441E+03  0.00000000000E+00 0. -1.
        -13    1    1    2    0    0 -0.29232871277E+03  0.93488811133E+02 -0.34527824067E+03  0.46196678318E+03  0.10566000000E+00 0.  1.
         13    1    1    2    0    0 -0.22339718443E+03  0.24941657471E+03  0.24448342572E+03  0.41459267525E+03  0.10566000000E+00 0. -1.
         -4    1    1    2    0  502  0.51572589720E+03 -0.34290538585E+03 -0.15528082693E+03  0.63848996852E+03  0.00000000000E+00 0. -1.
</event>
<event>
 5    1  0.4866530E-005  0.5254628E+03  0.7818608E-02  0.9423844E-01
         21   -1    0    0  501  502  0.00000000000E+00  0.00000000000E+00  0.51220735190E+03  0.51220735190E+03  0.00000000000E+00 0. -1.
          4   -1    0    0  502    0 -0.00000000000E+00 -0.00000000000E+00 -0.20505279114E+04  0.20505279114E+04  0.00000000000E+00 0.  1.
        -13    1    1    2    0    0  0.28160558914E+02 -0.49291928011E+03 -0.51654312659E+03  0.71454828149E+03  0.10566000000E+00 0.  1.
         13    1    1    2    0    0 -0.53291801324E+03  0.38192921712E+03 -0.11426798499E+04  0.13174174685E+04  0.10566000000E+00 0. -1.
          4    1    1    2  501    0  0.50475745432E+03  0.11099006299E+03  0.12090241704E+03  0.53076951328E+03  0.00000000000E+00 0.  1.
</event>
<event>
 5    1  0.4866530E-005  0.6599298E+02  0.7818608E-02  0.1237650E+00
         -4   -1    0    0    0  501 -0.00000000000E+00  0.00000000000E+00  0.39165001331E+03  0.39165001331E+03  0.00000000000E+00 0. -1.
         21   -1    0    0  501  502  0.00000000000E+00 -0.00000000000E+00 -0.22895659904E+02  0.22895659904E+02  0.00000000000E+00 0. -1.
        -13    1    1    2    0    0 -0.38175417768E+02  0.49800617983E+02  0.26438432097E+03  0.27172880674E+03  0.10566000000E+00 0.  1.
         13    1    1    2    0    0  0.48921195135E+02 -0.60353794702E+02  0.10092865419E+03  0.12736745373E+03  0.10566000000E+00 0. -1.
         -4    1    1    2    0  502 -0.10745777367E+02  0.10553176719E+02  0.34413782498E+01  0.15449412750E+02  0.00000000000E+00 0. -1.
</event>
<event>
 5    1  0.4866530E-005  0.1726768E+03  0.7818608E-02  0.1080673E+00
         21   -1    0    0  501  502  0.00000000000E+00  0.00000000000E+00  0.81985142396E+02  0.81985142396E+02  0.00000000000E+00 0. -1.
          4   -1    0    0  502    0 -0.00000000000E+00 -0.00000000000E+00 -0.96040628964E+03  0.96040628964E+03  0.00000000000E+00 0.  1.
        -13    1    1    2    0    0  0.15769479303E+03 -0.73267415012E+02 -0.84173747282E+03  0.85951017805E+03  0.10566000000E+00 0.  1.
         13    1    1    2    0    0 -0.14489523475E+03  0.75236228950E+02 -0.24483803590E+02  0.16508963324E+03  0.10566000000E+00 0. -1.
          4    1    1    2  501    0 -0.12799558279E+02 -0.19688139382E+01 -0.12199870831E+02  0.17791620746E+02  0.00000000000E+00 0.  1.
</event>
<event>
 5    1  0.4866530E-005  0.4882099E+03  0.7818608E-02  0.9717116E-01
          4   -1    0    0  502    0 -0.00000000000E+00  0.00000000000E+00  0.12129734978E+04  0.12129734978E+04  0.00000000000E+00 0.  1.
         21   -1    0    0  501  502  0.00000000000E+00 -0.00000000000E+00 -0.34992613808E+03  0.34992613808E+03  0.00000000000E+00 0. -1.
        -13    1    1    2    0    0  0.27054701156E+03  0.27180226322E+03  0.37636912101E+03  0.53733218978E+03  0.10566000000E+00 0.  1.
         13    1    1    2    0    0  0.12283687302E+02  0.22895910104E+03  0.37525402402E+03  0.43975988065E+03  0.10566000000E+00 0. -1.
          4    1    1    2  501    0 -0.28283069886E+03 -0.50076136426E+03  0.11142421474E+03  0.58580756549E+03  0.00000000000E+00 0.  1.
</event>
<event>
 5    1  0.4866530E-005  0.2678210E+03  0.7818608E-02  0.1033580E+00
         -4   -1    0    0    0  501 -0.00000000000E+00  0.00000000000E+00  0.18359915419E+03  0.18359915419E+03  0.00000000000E+00 0. -1.
         21   -1    0    0  501  502  0.00000000000E+00 -0.00000000000E+00 -0.21742770835E+04  0.21742770835E+04  0.00000000000E+00 0. -1.
        -13    1    1    2    0    0  0.39197323505E+02 -0.18012419285E+03 -0.72047514520E+02  0.19791920203E+03  0.10566000000E+00 0.  1.
         13    1    1    2    0    0  0.16192688304E+03  0.34576358108E+03 -0.21835011986E+03  0.43982900707E+03  0.10566000000E+00 0. -1.
         -4    1    1    2    0  502 -0.20112420654E+03 -0.16563938823E+03 -0.17002802949E+04  0.17201280285E+04  0.00000000000E+00 0. -1.
</event>
<event>
 5    1  0.4866530E-005  0.6636536E+02  0.7818608E-02  0.1236600E+00
         -4   -1    0    0    0  501 -0.00000000000E+00  0.00000000000E+00  0.33997400122E+02  0.33997400122E+02  0.00000000000E+00 0. -1.
         21   -1    0    0  501  502  0.00000000000E+00 -0.00000000000E+00 -0.32227654737E+03  0.32227654737E+03  0.00000000000E+00 0. -1.
        -13    1    1    2    0    0 -0.53815674051E+02  0.74675959015E+02 -0.12764323628E+03  0.15737036748E+03  0.10566000000E+00 0.  1.
         13    1    1    2    0    0  0.42311185686E+02 -0.39180682805E+02 -0.34128997388E+02  0.67008670827E+02  0.10566000000E+00 0. -1.
         -4    1    1    2    0  502  0.11504488365E+02 -0.35495276210E+02 -0.12650691358E+03  0.13189490919E+03  0.00000000000E+00 0. -1.
</event>
<event>
 5    1  0.4866530E-005  0.5011695E+03  0.7818608E-02  0.9772445E-01
         21   -1    0    0  501  502  0.00000000000E+00  0.00000000000E+00  0.15093072171E+03  0.15093072171E+03  0.00000000000E+00 0. -1.
         -4   -1    0    0    0  501 -0.00000000000E+00 -0.00000000000E+00 -0.23917310590E+04  0.23917310590E+04  0.00000000000E+00 0. -1.
        -13    1    1    2    0    0  0.17058271458E+03 -0.39547089221E+02 -0.44000210139E+03  0.47356551307E+03  0.10566000000E+00 0.  1.
         13    1    1    2    0    0  0.33535033017E+03 -0.24436559924E+03 -0.97751523046E+03  0.10619371107E+04  0.10566000000E+00 0. -1.
         -4    1    1    2    0  502 -0.50593304474E+03  0.28391268846E+03 -0.82328300541E+03  0.10071591569E+04  0.00000000000E+00 0. -1.
</event>
<event>
 5    1  0.4866530E-005  0.8394038E+02  0.7818608E-02  0.1194265E+00
         -4   -1    0    0    0  501 -0.00000000000E+00  0.00000000000E+00  0.74879606910E+03  0.74879606910E+03  0.00000000000E+00 0. -1.
         21   -1    0    0  501  502  0.00000000000E+00 -0.00000000000E+00 -0.13506459089E+02  0.13506459089E+02  0.00000000000E+00 0.  1.
        -13    1    1    2    0    0  0.87472805415E+01 -0.88086903505E+02  0.29718179260E+03  0.31008522458E+03  0.10566000000E+00 0.  1.
         13    1    1    2    0    0  0.16185766735E+02  0.80712779978E+02  0.37564404314E+03  0.38455817533E+03  0.10566000000E+00 0. -1.
         -4    1    1    2    0  502 -0.24933047276E+02  0.73741235263E+01  0.62463774261E+02  0.67659128277E+02  0.00000000000E+00 0. -1.
</event>
<event>
 5    1  0.4866530E-005  0.5044207E+03  0.7818608E-02  0.9468335E-01
         -4   -1    0    0    0  501 -0.00000000000E+00  0.00000000000E+00  0.33067768364E+04  0.33067768364E+04  0.00000000000E+00 0. -1.
         21   -1    0    0  501  502  0.00000000000E+00 -0.00000000000E+00 -0.22103769780E+03  0.22103769780E+03  0.00000000000E+00 0.  1.
        -13    1    1    2    0    0  0.33126177122E+03 -0.36349908084E+03  0.16196270485E+04  0.16926481413E+04  0.10566000000E+00 0.  1.
         13    1    1    2    0    0 -0.64749536892E+03  0.64000791056E+02  0.10336646407E+04  0.12213963135E+04  0.10566000000E+00 0. -1.
         -4    1    1    2    0  502  0.31623359769E+03  0.29949828978E+03  0.43244744942E+03  0.61377007943E+03  0.00000000000E+00 0. -1.
</event>
<event>
 5    1  0.4866530E-005  0.4149370E+03  0.7818608E-02  0.9969027E-01
         21   -1    0    0  501  502  0.00000000000E+00  0.00000000000E+00  0.12160355389E+04  0.12160355389E+04  0.00000000000E+00 0.  1.
          4   -1    0    0  502    0 -0.00000000000E+00 -0.00000000000E+00 -0.27075300917E+03  0.27075300917E+03  0.00000000000E+00 0.  1.
        -13    1    1    2    0    0  0.34947237523E+03 -0.33273082679E+03  0.13353815649E+03  0.50067274197E+03  0.10566000000E+00 0.  1.
         13    1    1    2    0    0  0.92676026134E+01  0.15894464564E+03  0.19464214156E+03  0.25146543156E+03  0.10566000000E+00 0. -1.
          4    1    1    2  501    0 -0.35873997784E+03  0.17378618115E+03  0.61710223167E+03  0.73465037453E+03  0.00000000000E+00 0.  1.
</event>
<event>
 5    1  0.4866530E-005  0.1514869E+03  0.7818608E-02  0.1099654E+00
         21   -1    0    0  501  502  0.00000000000E+00  0.00000000000E+00  0.44395402701E+02  0.44395402701E+02  0.00000000000E+00 0.  1.
         -4   -1    0    0    0  501 -0.00000000000E+00 -0.00000000000E+00 -0.63351471812E+03  0.63351471812E+03  0.00000000000E+00 0. -1.
        -13    1    1    2    0    0 -0.10635759735E+03 -0.93863816271E+02 -0.20230673417E+03  0.24708375174E+03  0.10566000000E+00 0.  1.
         13    1    1    2    0    0  0.11140135689E+03  0.11276122965E+03 -0.37695036728E+03  0.40892168906E+03  0.10566000000E+00 0. -1.
         -4    1    1    2    0  502 -0.50437595394E+01 -0.18897413377E+02 -0.98622139705E+01  0.21904680025E+02  0.00000000000E+00 0. -1.
</event>
<event>
 5    1  0.4866530E-005  0.4887883E+03  0.7818608E-02  0.9679198E-01
         21   -1    0    0  501  502  0.00000000000E+00  0.00000000000E+00  0.21057066323E+03  0.21057066323E+03  0.00000000000E+00 0.  1.
          4   -1    0    0  502    0 -0.00000000000E+00 -0.00000000000E+00 -0.22708192295E+04  0.22708192295E+04  0.00000000000E+00 0.  1.
        -13    1    1    2    0    0 -0.26878153360E+03 -0.43651878692E+03 -0.75737966168E+03  0.91455788621E+03  0.10566000000E+00 0.  1.
         13    1    1    2    0    0 -0.17048497610E+03  0.19728456399E+03 -0.86034451624E+03  0.89898777747E+03  0.10566000000E+00 0. -1.
          4    1    1    2  501    0  0.43926650970E+03  0.23923422294E+03 -0.44252438836E+03  0.66784422904E+03  0.00000000000E+00 0.  1.
</event>
<event>
 5    1  0.4866530E-005  0.5226752E+03  0.7818608E-02  0.1024382E+00
         -4   -1    0    0    0  501 -0.00000000000E+00  0.00000000000E+00  0.20584536848E+03  0.20584536848E+03  0.00000000000E+00 0. -1.
         21   -1    0    0  501  502  0.00000000000E+00 -0.00000000000E+00 -0.15747301305E+04  0.15747301305E+04  0.00000000000E+00 0. -1.
        -13    1    1    2    0    0  0.54441825716E+01  0.32519574455E+02  0.41028497592E+01  0.33226591561E+02  0.10566000000E+00 0.  1.
         13    1    1    2    0    0 -0.40859661702E+03  0.30980790446E+03 -0.44364382707E+03  0.67805013794E+03  0.10566000000E+00 0. -1.
         -4    1    1    2    0  502  0.40315243444E+03 -0.34232747891E+03 -0.92934378474E+03  0.10692987695E+04  0.00000000000E+00 0. -1.
</event>
<event>
 5    1  0.4866530E-005  0.3031433E+03  0.7818608E-02  0.1014883E+00
          4   -1    0    0  502    0 -0.00000000000E+00  0.00000000000E+00  0.12538188678E+04  0.12538188678E+04  0.00000000000E+00 0.  1.
         21   -1    0    0  501  502  0.00000000000E+00 -0.00000000000E+00 -0.54420176418E+03  0.54420176418E+03  0.00000000000E+00 0.  1.
        -13    1    1    2    0    0 -0.12991605471E+03  0.19535735396E+02  0.46366692371E+03  0.48191996590E+03  0.10566000000E+00 0.  1.
         13    1    1    2    0    0 -0.10703822564E+03  0.20135519480E+03  0.71250647274E+03  0.74810866930E+03  0.10566000000E+00 0. -1.
          4    1    1    2  501    0  0.23695428035E+03 -0.22089093020E+03 -0.46655629283E+03  0.56799199678E+03  0.00000000000E+00 0.  1.
</event>
<event>
 5    1  0.4866530E-005  0.4884671E+03  0.7818608E-02  0.1002712E+00
         -4   -1    0    0    0  501 -0.00000000000E+00  0.00000000000E+00  0.39758967336E+03  0.39758967336E+03  0.00000000000E+00 0. -1.
         21   -1    0    0  501  502  0.00000000000E+00 -0.00000000000E+00 -0.84339346799E+03  0.84339346799E+03  0.00000000000E+00 0. -1.
        -13    1    1    2    0    0  0.74100638093E+02  0.31884318120E+02  0.57153917958E+02  0.98864026874E+02  0.10566000000E+00 0.  1.
         13    1    1    2    0    0  0.68015193802E+02 -0.49055480831E+03 -0.43108860887E+03  0.65658775987E+03  0.10566000000E+00 0. -1.
         -4    1    1    2    0  502 -0.14211583189E+03  0.45867049019E+03 -0.71869103716E+02  0.48553135461E+03  0.00000000000E+00 0. -1.
</event>
<event>
 5    1  0.4866530E-005  0.1405874E+03  0.7818608E-02  0.1110784E+00
         21   -1    0    0  501  502  0.00000000000E+00  0.00000000000E+00  0.18034776400E+02  0.18034776400E+02  0.00000000000E+00 0.  1.
         -4   -1    0    0    0  501 -0.00000000000E+00 -0.00000000000E+00 -0.15257398989E+04  0.15257398989E+04  0.00000000000E+00 0. -1.
        -13    1    1    2    0    0 -0.13171417549E+03  0.54570870672E+02 -0.82795053585E+03  0.84013612286E+03  0.10566000000E+00 0.  1.
         13    1    1    2    0    0  0.13904811562E+03 -0.19969577274E+02 -0.60269535500E+03  0.61884963002E+03  0.10566000000E+00 0. -1.
         -4    1    1    2    0  502 -0.73339401257E+01 -0.34601293398E+02 -0.77059231625E+02  0.84788922397E+02  0.00000000000E+00 0. -1.
</event>
<event>
 5    1  0.4866530E-005  0.3181972E+03  0.7818608E-02  0.1000064E+00
         21   -1    0    0  501  502  0.00000000000E+00  0.00000000000E+00  0.24840132461E+04  0.24840132461E+04  0.00000000000E+00 0. -1.
         -4   -1    0    0    0  501 -0.00000000000E+00 -0.00000000000E+00 -0.23435013534E+03  0.23435013534E+03  0.00000000000E+00 0. -1.
        -13    1    1    2    0    0 -0.21856216769E+03  0.15870828980E+03  0.36592332522E+02  0.27257430613E+03  0.10566000000E+00 0.  1.
         13    1    1    2    0    0  0.36603299690E+03 -0.36752362906E+03  0.52338945120E+03  0.73687875633E+03  0.10566000000E+00 0. -1.
         -4    1    1    2    0  502 -0.14747082921E+03  0.20881533926E+03  0.16896813271E+04  0.17089103190E+04  0.00000000000E+00 0. -1.
</event>
<event>
 5    1  0.4866530E-005  0.2635036E+03  0.7818608E-02  0.1023623E+00
         21   -1    0    0  501  502  0.00000000000E+00  0.00000000000E+00  0.35914710790E+03  0.35914710790E+03  0.00000000000E+00 0.  1.
          4   -1    0    0  502    0 -0.00000000000E+00 -0.00000000000E+00 -0.18714340840E+04  0.18714340840E+04  0.00000000000E+00 0.  1.
        -13    1    1    2    0    0 -0.19646253352E+03  0.15543673987E+03 -0.13773557376E+04  0.13999524800E+04  0.10566000000E+00 0.  1.
         13    1    1    2    0    0  0.29269797710E+03 -0.16272570367E+03 -0.41565409176E+03  0.53377907002E+03  0.10566000000E+00 0. -1.
          4    1    1    2  501    0 -0.96235443574E+02  0.72889638008E+01  0.28072285322E+03  0.29684964193E+03  0.00000000000E+00 0.  1.
</event>
<event>
 5    1  0.4866530E-005  0.8080266E+02  0.7818608E-02  0.1200932E+00
         21   -1    0    0  501  502  0.00000000000E+00  0.00000000000E+00  0.41566326984E+03  0.41566326984E+03  0.00000000000E+00 0.  1.
         -4   -1    0    0    0  501 -0.00000000000E+00 -0.00000000000E+00 -0.34624677812E+03  0.34624677812E+03  0.00000000000E+00 0. -1.
        -13    1    1    2    0    0  0.87486265186E+02 -0.67412294858E+02  0.28222554324E+03  0.30306687796E+03  0.10566000000E+00 0.  1.
         13    1    1    2    0    0 -0.71254517813E+02  0.37111934262E+02 -0.32848550578E+03  0.33816747426E+03  0.10566000000E+00 0. -1.
         -4    1    1    2    0  502 -0.16231747374E+02  0.30300360596E+02  0.11567645426E+03  0.12067569575E+03  0.00000000000E+00 0. -1.
</event>
<event>
 5    1  0.4866530E-005  0.1215384E+03  0.7818608E-02  0.1133146E+00
         -4   -1    0    0    0  501 -0.00000000000E+00  0.00000000000E+00  0.83917443794E+02  0.83917443794E+02  0.00000000000E+00 0. -1.
         21   -1    0    0  501  502  0.00000000000E+00 -0.00000000000E+00 -0.35434845679E+03  0.35434845679E+03  0.00000000000E+00 0. -1.
        -13    1    1    2    0    0  0.22377165601E+02  0.96133267614E+02 -0.14699324687E+03  0.17705752871E+03  0.10566000000E+00 0.  1.
         13    1    1    2    0    0 -0.40003377380E+02 -0.12437949397E+03  0.27691228191E+01  0.13068361767E+03  0.10566000000E+00 0. -1.
         -4    1    1    2    0  502  0.17626211779E+02  0.28246226352E+02 -0.12620688894E+03  0.13052475421E+03  0.00000000000E+00 0. -1.
</event>
<event>
 5    1  0.4866530E-005  0.4982063E+03  0.7818608E-02  0.9698690E-01
         21   -1    0    0  501  502  0.00000000000E+00  0.00000000000E+00  0.23373806320E+03  0.23373806320E+03  0.00000000000E+00 0.  1.
          4   -1    0    0  502    0 -0.00000000000E+00 -0.00000000000E+00 -0.17968379489E+04  0.17968379489E+04  0.00000000000E+00 0.  1.
        -13    1    1    2    0    0  0.27963862118E+03 -0.53965935170E+03 -0.46486341438E+03  0.76519800021E+03  0.10566000000E+00 0.  1.
         13    1    1    2    0    0 -0.55189389294E+02  0.22331858596E+03 -0.52566468365E+03  0.57379476324E+03  0.10566000000E+00 0. -1.
          4    1    1    2  501    0 -0.22444923189E+03  0.31634076574E+03 -0.57257178766E+03  0.69158324863E+03  0.00000000000E+00 0.  1.
</event>
<event>
 5    1  0.4866530E-005  0.5077241E+02  0.7818608E-02  0.1288675E+00
         21   -1    0    0  501  502  0.00000000000E+00  0.00000000000E+00  0.68886416353E+03  0.68886416353E+03  0.00000000000E+00 0. -1.
         -4   -1    0    0    0  501 -0.00000000000E+00 -0.00000000000E+00 -0.22603661679E+03  0.22603661679E+03  0.00000000000E+00 0. -1.
        -13    1    1    2    0    0  0.10059977600E+02  0.49752495831E+02 -0.15375154355E+03  0.16191374957E+03  0.10566000000E+00 0.  1.
         13    1    1    2    0    0 -0.38921089377E+02 -0.41674602725E+02 -0.55892812079E+02  0.79847613094E+02  0.10566000000E+00 0. -1.
         -4    1    1    2    0  502  0.28861111777E+02 -0.80778931057E+01  0.67247190236E+03  0.67313941765E+03  0.00000000000E+00 0. -1.
</event>
<event>
 5    1  0.4866530E-005  0.1736230E+03  0.7818608E-02  0.1079895E+00
          4   -1    0    0  502    0 -0.00000000000E+00  0.00000000000E+00  0.10438063407E+03  0.10438063407E+03  0.00000000000E+00 0.  1.
         21   -1    0    0  501  502  0.00000000000E+00 -0.00000000000E+00 -0.81167659851E+03  0.81167659851E+03  0.00000000000E+00 0. -1.
        -13    1    1    2    0    0 -0.12869200765E+03 -0.12359498977E+03 -0.17038902941E+02  0.17924198645E+03  0.10566000000E+00 0.  1.
         13    1    1    2    0    0  0.50869152137E+02  0.15439836323E+03 -0.54962213859E+03  0.57315881883E+03  0.10566000000E+00 0. -1.
          4    1    1    2  501    0  0.77822855509E+02 -0.30803373461E+02 -0.14063492291E+03  0.16365642730E+03  0.00000000000E+00 0.  1.
</event>
<event>
 5    1  0.4866530E-005  0.1962617E+03  0.7818608E-02  0.1062729E+00
         21   -1    0    0  501  502  0.00000000000E+00  0.00000000000E+00  0.40698949238E+03  0.40698949238E+03  0.00000000000E+00 0. -1.
          4   -1    0    0  502    0 -0.00000000000E+00 -0.00000000000E+00 -0.28500946793E+03  0.28500946793E+03  0.00000000000E+00 0.  1.
        -13    1    1    2    0    0  0.13994131569E+03 -0.13897279595E+03 -0.21660322663E+03  0.29294023077E+03  0.10566000000E+00 0.  1.
         13    1    1    2    0    0 -0.13890511373E+03  0.12570466111E+03  0.33711177005E+03  0.38566909277E+03  0.10566000000E+00 0. -1.
          4    1    1    2  501    0 -0.10362019550E+01  0.13268134843E+02  0.14714810359E+01  0.13389636782E+02  0.00000000000E+00 0.  1.
</event>
<event>
 5    1  0.4866530E-005  0.1470590E+03  0.7818608E-02  0.1104049E+00
         -4   -1    0    0    0  501 -0.00000000000E+00  0.00000000000E+00  0.12856792946E+04  0.12856792946E+04  0.00000000000E+00 0. -1.
         21   -1    0    0  501  502  0.00000000000E+00 -0.00000000000E+00 -0.44186191819E+02  0.44186191819E+02  0.00000000000E+00 0.  1.
        -13    1    1    2    0    0 -0.14714783060E+03 -0.51660760976E+02  0.24693956890E+03  0.29206245929E+03  0.10566000000E+00 0.  1.
         13    1    1    2    0    0  0.81905703459E+02  0.12829538793E+03  0.83784351037E+03  0.85155740256E+03  0.10566000000E+00 0. -1.
         -4    1    1    2    0  502  0.65242127138E+02 -0.76634626954E+02  0.15671002351E+03  0.18624562457E+03  0.00000000000E+00 0. -1.
</event>
<event>
 5    1  0.4866530E-005  0.3301098E+03  0.7818608E-02  0.1018239E+00
          4   -1    0    0  502    0 -0.00000000000E+00  0.00000000000E+00  0.30716654889E+04  0.30716654889E+04  0.00000000000E+00 0.  1.
         21   -1    0    0  501  502  0.00000000000E+00 -0.00000000000E+00 -0.65766362589E+02  0.65766362589E+02  0.00000000000E+00 0.  1.
        -13    1    1    2    0    0  0.35803014520E+03  0.76568576500E+02  0.11411243931E+04  0.11984211378E+04  0.10566000000E+00 0.  1.
         13    1    1    2    0    0 -0.12069078539E+03  0.10314049202E+03  0.24385844881E+03  0.29098312837E+03  0.10566000000E+00 0. -1.
          4    1    1    2  501    0 -0.23733935982E+03 -0.17970906852E+03  0.16209162844E+04  0.16480275853E+04  0.00000000000E+00 0.  1.
</event>
<event>
 5    1  0.4866530E-005  0.3742817E+03  0.7818608E-02  0.9806408E-01
          4   -1    0    0  502    0 -0.00000000000E+00  0.00000000000E+00  0.33215201204E+03  0.33215201204E+03  0.00000000000E+00 0.  1.
         21   -1    0    0  501  502  0.00000000000E+00 -0.00000000000E+00 -0.50417911172E+03  0.50417911172E+03  0.00000000000E+00 0. -1.
        -13    1    1    2    0    0  0.22549085580E+03  0.29877062232E+03  0.65546895436E+02  0.38000844396E+03  0.10566000000E+00 0.  1.
         13    1    1    2    0    0 -0.23748236173E+03 -0.28947504003E+03 -0.22791388457E+03  0.43833596804E+03  0.10566000000E+00 0. -1.
          4    1    1    2  501    0  0.11991505924E+02 -0.92955822897E+01 -0.96601105540E+01  0.17986711771E+02  0.00000000000E+00 0.  1.
</event>
<event>
 5    1  0.4866530E-005  0.6758917E+02  0.7818608E-02  0.1233199E+00
         21   -1    0    0  501  502  0.00000000000E+00  0.00000000000E+00  0.23002227910E+03  0.23002227910E+03  0.00000000000E+00 0. -1.
          4   -1    0    0  502    0 -0.00000000000E+00 -0.00000000000E+00 -0.17631288310E+03  0.17631288310E+03  0.00000000000E+00 0.  1.
        -13    1    1    2    0    0 -0.55359062485E+02 -0.37636289684E+02 -0.15143886348E+03  0.16557432360E+03  0.10566000000E+00 0.  1.
         13    1    1    2    0    0  0.47458279928E+02  0.74419902977E+02  0.13877253539E+03  0.16446409346E+03  0.10566000000E+00 0. -1.
          4    1    1    2  501    0  0.79007825572E+01 -0.36783613293E+02  0.66375724087E+02  0.76296745147E+02  0.00000000000E+00 0.  1.
</event>
<event>
 5    1  0.4866530E-005  0.4053401E+03  0.7818608E-02  0.9821532E-01
         -4   -1    0    0    0  501 -0.00000000000E+00  0.00000000000E+00  0.44928628031E+03  0.44928628031E+03  0.00000000000E+00 0. -1.
         21   -1    0    0  501  502  0.00000000000E+00 -0.00000000000E+00 -0.92809975268E+03  0.92809975268E+03  0.00000000000E+00 0. -1.
        -13    1    1    2    0    0 -0.16345533756E+03 -0.22719263141E+03  0.81203700894E+02  0.29142441789E+03  0.10566000000E+00 0.  1.
         13    1    1    2    0    0  0.30546957088E+03  0.51756082843E+03 -0.30327921504E+03  0.67317097627E+03  0.10566000000E+00 0. -1.
         -4    1    1    2    0  502 -0.14201423332E+03 -0.29036819702E+03 -0.25673795822E+03  0.41279063882E+03  0.00000000000E+00 0. -1.
</event>
<event>
 5    1  0.4866530E-005  0.2488260E+03  0.7818608E-02  0.1031003E+00
         21   -1    0    0  501  502  0.00000000000E+00  0.00000000000E+00  0.16263070074E+03  0.16263070074E+03  0.00000000000E+00 0.  1.
         -4   -1    0    0    0  501 -0.00000000000E+00 -0.00000000000E+00 -0.13406727253E+04  0.13406727253E+04  0.00000000000E+00 0. -1.
        -13    1    1    2    0    0  0.46082899471E+02 -0.19064084359E+03  0.46042582141E+02  0.20146338477E+03  0.10566000000E+00 0.  1.
         13    1    1    2    0    0 -0.14087274407E+03  0.21377369769E+03 -0.11531001834E+04  0.11811792277E+04  0.10566000000E+00 0. -1.
         -4    1    1    2    0  502  0.94789844597E+02 -0.23132854102E+02 -0.70984423301E+02  0.12066081356E+03  0.00000000000E+00 0. -1.
</event>
<event>
 5    1  0.4866530E-005  0.5001792E+03  0.7818608E-02  0.9770113E-01
         -4   -1    0    0    0  501 -0.00000000000E+00  0.00000000000E+00  0.83576913597E+03  0.83576913597E+03  0.00000000000E+00 0. -1.
         21   -1    0    0  501  502  0.00000000000E+00 -0.00000000000E+00 -0.62812959878E+03  0.62812959878E+03  0.00000000000E+00 0. -1.
        -13    1    1    2    0    0  0.13668716994E+03 -0.11333969045E+03  0.38710674391E+03  0.42588837763E+03  0.10566000000E+00 0.  1.
         13    1    1    2    0    0  0.12559435848E+03  0.52080620917E+03 -0.61331210048E+02  0.53923517956E+03  0.10566000000E+00 0. -1.
         -4    1    1    2    0  502 -0.26228152842E+03 -0.40746651872E+03 -0.11813599667E+03  0.49877517755E+03  0.00000000000E+00 0. -1.
</event>
<event>
 5    1  0.4866530E-005  0.4246158E+03  0.7818608E-02  0.9937380E-01
          4   -1    0    0  502    0 -0.00000000000E+00  0.00000000000E+00  0.98309771996E+03  0.98309771996E+03  0.00000000000E+00 0.  1.
         21   -1    0    0  501  502  0.00000000000E+00 -0.00000000000E+00 -0.35085145595E+03  0.35085145595E+03  0.00000000000E+00 0.  1.
        -13    1    1    2    0    0 -0.36984073365E+03  0.14441591047E+03  0.54927260565E+03  0.67774518069E+03  0.10566000000E+00 0.  1.
         13    1    1    2    0    0  0.48964427711E+02  0.15754275200E+03  0.13414118540E+03  0.21262902594E+03  0.10566000000E+00 0. -1.
          4    1    1    2  501    0  0.32087630594E+03 -0.30195866247E+03 -0.51167527036E+02  0.44357496929E+03  0.00000000000E+00 0.  1.
</event>
<event>
 5    1  0.4866530E-005  0.4162483E+03  0.7818608E-02  0.9683257E-01
         21   -1    0    0  501  502  0.00000000000E+00  0.00000000000E+00  0.43634713966E+03  0.43634713966E+03  0.00000000000E+00 0. -1.
         -4   -1    0    0    0  501 -0.00000000000E+00 -0.00000000000E+00 -0.16762383719E+04  0.16762383719E+04  0.00000000000E+00 0. -1.
        -13    1    1    2    0    0  0.32223292574E+02 -0.38259787569E+03 -0.92251563370E+03  0.99922699155E+03  0.10566000000E+00 0.  1.
         13    1    1    2    0    0 -0.32224454156E+03  0.48337174373E+03 -0.49099793475E+03  0.76063708185E+03  0.10566000000E+00 0. -1.
         -4    1    1    2    0  502  0.29002124899E+03 -0.10077386804E+03  0.17362233618E+03  0.35272143820E+03  0.00000000000E+00 0. -1.
</event>
<event>
 5    1  0.4866530E-005  0.1778052E+03  0.7818608E-02  0.1092354E+00
         21   -1    0    0  501  502  0.00000000000E+00  0.00000000000E+00  0.36348135139E+03  0.36348135139E+03  0.00000000000E+00 0. -1.
         -4   -1    0    0    0  501 -0.00000000000E+00 -0.00000000000E+00 -0.87624461995E+03  0.87624461995E+03  0.00000000000E+00 0. -1.
        -13    1    1    2    0    0 -0.11402101429E+03 -0.85968292773E+01 -0.21200484400E+02  0.11629346016E+03  0.10566000000E+00 0.  1.
         13    1    1    2    0    0  0.11008711443E+03 -0.16948699916E+03 -0.76823724181E+03  0.79437616185E+03  0.10566000000E+00 0. -1.
         -4    1    1    2    0  502  0.39338998607E+01  0.17808382843E+03  0.27667445765E+03  0.32905634933E+03  0.00000000000E+00 0. -1.
</event>
<event>
 5    1  0.4866530E-005  0.2133855E+02  0.7818608E-02  0.1537759E+00
         -4   -1    0    0    0  501 -0.00000000000E+00  0.00000000000E+00  0.20859787749E+03  0.20859787749E+03  0.00000000000E+00 0. -1.
         21   -1    0    0  501  502  0.00000000000E+00 -0.00000000000E+00 -0.37540888938E+01  0.37540888938E+01  0.00000000000E+00 0. -1.
        -13    1    1    2    0    0  0.56843651834E+00 -0.11089505648E+02  0.33798860527E+02  0.35576317861E+02  0.10566000000E+00 0.  1.
         13    1    1    2    0    0 -0.21252345601E+02  0.10632052774E+02  0.99583184295E+02  0.10237931675E+03  0.10566000000E+00 0. -1.
         -4    1    1    2    0  502  0.20683909082E+02  0.45745287410E+00  0.71461743774E+02  0.74396331773E+02  0.00000000000E+00 0. -1.
</event>
<event>
 5    1  0.4866530E-005  0.1786649E+03  0.7818608E-02  0.1075836E+00
         -4   -1    0    0    0  501 -0.00000000000E+00  0.00000000000E+00  0.45701858632E+03  0.45701858632E+03  0.00000000000E+00 0. -1.
         21   -1    0    0  501  502  0.00000000000E+00 -0.00000000000E+00 -0.33326591209E+03  0.33326591209E+03  0.00000000000E+00 0. -1.
        -13    1    1    2    0    0  0.34979895162E+02  0.12166263737E+03  0.59568021331E+02  0.13990622119E+03  0.10566000000E+00 0.  1.
         13    1    1    2    0    0 -0.11009190041E+03 -0.20233368404E+03  0.30694636564E+03  0.38376454862E+03  0.10566000000E+00 0. -1.
         -4    1    1    2    0  502  0.75112005244E+02  0.80671046670E+02 -0.24276171274E+03  0.26661372860E+03  0.00000000000E+00 0. -1.
</event>
<event>
 5    1  0.4866530E-005  0.1433226E+03  0.7818608E-02  0.1121010E+00
         21   -1    0    0  501  502  0.00000000000E+00  0.00000000000E+00  0.12414150964E+04  0.12414150964E+04  0.00000000000E+00 0.  1.
          4   -1    0    0  502    0 -0.00000000000E+00 -0.00000000000E+00 -0.61538715952E+03  0.61538715952E+03  0.00000000000E+00 0.  1.
        -13    1    1    2    0    0  0.66594216887E+01 -0.97524799844E+02 -0.48098463926E+03  0.49081734775E+03  0.10566000000E+00 0.  1.
         13    1    1    2    0    0 -0.14017183731E+03  0.14963803886E+03 -0.40970957723E+02  0.20908925651E+03  0.10566000000E+00 0. -1.
          4    1    1    2  501    0  0.13351241562E+03 -0.52113239014E+02  0.11479835338E+04  0.11568956516E+04  0.00000000000E+00 0.  1.
</event>
<event>
 5    1  0.4866530E-005  0.8740372E+02  0.7818608E-02  0.1187267E+00
          4   -1    0    0  502    0 -0.00000000000E+00  0.00000000000E+00  0.21229193963E+03  0.21229193963E+03  0.00000000000E+00 0.  1.
         21   -1    0    0  501  502  0.00000000000E+00 -0.00000000000E+00 -0.12010500653E+03  0.12010500653E+03  0.00000000000E+00 0.  1.
        -13    1    1    2    0    0  0.97117253904E+02 -0.16979195094E+00  0.66593711324E+02  0.11775620318E+03  0.10566000000E+00 0.  1.
         13    1    1    2    0    0 -0.77681752766E+02 -0.32818385345E+02  0.10009060669E+03  0.13088025764E+03  0.10566000000E+00 0. -1.
          4    1    1    2  501    0 -0.19435501138E+02  0.32988177295E+02 -0.74497384907E+02  0.83760485336E+02  0.00000000000E+00 0.  1.
</event>
<event>
 5    1  0.4866530E-005  0.4806586E+03  0.7818608E-02  0.9599666E-01
         21   -1    0    0  501  502  0.00000000000E+00  0.00000000000E+00  0.37283058552E+03  0.37283058552E+03  0.00000000000E+00 0. -1.
         -4   -1    0    0    0  501 -0.00000000000E+00 -0.00000000000E+00 -0.13649756215E+04  0.13649756215E+04  0.00000000000E+00 0. -1.
        -13    1    1    2    0    0  0.98675520261E+02  0.34933199113E+03 -0.17401482383E+03  0.40255542277E+03  0.10566000000E+00 0.  1.
         13    1    1    2    0    0 -0.16953652336E+03  0.25131828024E+03 -0.63445206916E+03  0.70315926358E+03  0.10566000000E+00 0. -1.
         -4    1    1    2    0  502  0.70861003094E+02 -0.60065027137E+03 -0.18367814295E+03  0.63209152063E+03  0.00000000000E+00 0. -1.
</event>
<event>
 5    1  0.4866530E-005  0.1629013E+03  0.7818608E-02  0.1089041E+00
          4   -1    0    0  502    0 -0.00000000000E+00  0.00000000000E+00  0.34834092227E+03  0.34834092227E+03  0.00000000000E+00 0.  1.
         21   -1    0    0  501  502  0.00000000000E+00 -0.00000000000E+00 -0.18020035662E+03  0.18020035662E+03  0.00000000000E+00 0. -1.
        -13    1    1    2    0    0 -0.93834327444E+02  0.12671616444E+03  0.20771462429E+03  0.26078198489E+03  0.10566000000E+00 0.  1.
         13    1    1    2    0    0  0.10487528689E+03 -0.14191331642E+03  0.44194554104E+02  0.18191037616E+03  0.10566000000E+00 0. -1.
          4    1    1    2  501    0 -0.11040959446E+02  0.15197151981E+02 -0.83768612746E+02  0.85848917845E+02  0.00000000000E+00 0.  1.
</event>
<event>
 5    1  0.4866530E-005  0.6315779E+03  0.7818608E-02  0.9228622E-01
         21   -1    0    0  501  502  0.00000000000E+00  0.00000000000E+00  0.32121802937E+03  0.32121802937E+03  0.00000000000E+00 0.  1.
          4   -1    0    0  502    0 -0.00000000000E+00 -0.00000000000E+00 -0.28610489044E+04  0.28610489044E+04  0.00000000000E+00 0.  1.
        -13    1    1    2    0    0  0.33144079206E+02  0.79969839200E+03 -0.84239149748E+03  0.11619980612E+04  0.10566000000E+00 0.  1.
         13    1    1    2    0    0 -0.28049718722E+03 -0.51998527349E+03 -0.14669717398E+04  0.15814769848E+04  0.10566000000E+00 0. -1.
          4    1    1    2  501    0  0.24735310802E+03 -0.27971311851E+03 -0.23046763766E+03  0.43879188771E+03  0.00000000000E+00 0.  1.
</event>
<event>
 5    1  0.4866530E-005  0.1048848E+03  0.7818608E-02  0.1184309E+00
         21   -1    0    0  501  502  0.00000000000E+00  0.00000000000E+00  0.25610627089E+03  0.25610627089E+03  0.00000000000E+00 0. -1.
         -4   -1    0    0    0  501 -0.00000000000E+00 -0.00000000000E+00 -0.97653380169E+02  0.97653380169E+02  0.00000000000E+00 0. -1.
        -13    1    1    2    0    0 -0.53542211842E+02  0.83632753688E+01  0.25251642787E+02  0.59786030570E+02  0.10566000000E+00 0.  1.
         13    1    1    2    0    0  0.12547343088E+03 -0.70308713719E+02  0.18389602525E+02  0.14500029561E+03  0.10566000000E+00 0. -1.
         -4    1    1    2    0  502 -0.71931219038E+02  0.61945438350E+02  0.11481164541E+03  0.14897332488E+03  0.00000000000E+00 0. -1.
</event>
<event>
 5    1  0.4866530E-005  0.9886762E+02  0.7818608E-02  0.1166443E+00
         21   -1    0    0  501  502  0.00000000000E+00  0.00000000000E+00  0.25003010585E+02  0.25003010585E+02  0.00000000000E+00 0. -1.
         -4   -1    0    0    0  501 -0.00000000000E+00 -0.00000000000E+00 -0.84271648100E+03  0.84271648100E+03  0.00000000000E+00 0. -1.
        -13    1    1    2    0    0 -0.50100212951E+02  0.60206158645E+02 -0.23303435632E+03  0.24584514489E+03  0.10566000000E+00 0.  1.
         13    1    1    2    0    0  0.41068768909E+02 -0.12195684500E+03 -0.50231704108E+03  0.51853884787E+03  0.10566000000E+00 0. -1.
         -4    1    1    2    0  502  0.90314440424E+01  0.61750686354E+02 -0.82362073005E+02  0.10333549882E+03  0.00000000000E+00 0. -1.
</event>
<event>
 5    1  0.4866530E-005  0.1184191E+03  0.7818608E-02  0.1137233E+00
         21   -1    0    0  501  502  0.00000000000E+00  0.00000000000E+00  0.13864153339E+03  0.13864153339E+03  0.00000000000E+00 0. -1.
          4   -1    0    0  502    0 -0.00000000000E+00 -0.00000000000E+00 -0.21975948844E+03  0.21975948844E+03  0.00000000000E+00 0.  1.
        -13    1    1    2    0    0  0.91894542803E+02  0.58517450370E+02 -0.84458709755E+02  0.13784840881E+03  0.10566000000E+00 0.  1.
         13    1    1    2    0    0 -0.13469779974E+03 -0.36493165213E+02 -0.50426927360E+02  0.14838508864E+03  0.10566000000E+00 0. -1.
          4    1    1    2  501    0  0.42803256938E+02 -0.22024285157E+02  0.53767682060E+02  0.72167524382E+02  0.00000000000E+00 0.  1.
</event>
<event>
 5    1  0.4866530E-005  0.3783456E+03  0.7818608E-02  0.9793755E-01
          4   -1    0    0  502    0 -0.00000000000E+00  0.00000000000E+00  0.57047390659E+03  0.57047390659E+03  0.00000000000E+00 0.  1.
         21   -1    0    0  501  502  0.00000000000E+00 -0.00000000000E+00 -0.92946247204E+03  0.92946247204E+03  0.00000000000E+00 0.  1.
        -13    1    1    2    0    0  0.17816928874E+03  0.36191631415E+03  0.30017613031E+03  0.50282545109E+03  0.10566000000E+00 0.  1.
         13    1    1    2    0    0  0.10052689974E+03 -0.36985504579E+03 -0.14041784900E+03  0.40818573707E+03  0.10566000000E+00 0. -1.
          4    1    1    2  501    0 -0.27869618847E+03  0.79387316399E+01 -0.51874684677E+03  0.58892519046E+03  0.00000000000E+00 0.  1.
</event>
<event>
 5    1  0.4866530E-005  0.4794806E+03  0.7818608E-02  0.9713155E-01
          4   -1    0    0  502    0 -0.00000000000E+00  0.00000000000E+00  0.13884703408E+04  0.13884703408E+04  0.00000000000E+00 0.  1.
         21   -1    0    0  501  502  0.00000000000E+00 -0.00000000000E+00 -0.35496508989E+03  0.35496508989E+03  0.00000000000E+00 0.  1.
        -13    1    1    2    0    0  0.51261208041E+03 -0.33277929277E+03  0.44419336131E+03  0.75552693934E+03  0.10566000000E+00 0.  1.
         13    1    1    2    0    0 -0.97438947634E+02  0.22521787710E+03  0.48950267072E+03  0.54756763645E+03  0.10566000000E+00 0. -1.
          4    1    1    2  501    0 -0.41517313277E+03  0.10756141567E+03  0.99809218875E+02  0.44034085489E+03  0.00000000000E+00 0.  1.
</event>
<event>
 5    1  0.4866530E-005  0.3570342E+03  0.7818608E-02  0.1005948E+00
          4   -1    0    0  502    0 -0.00000000000E+00  0.00000000000E+00  0.39453498664E+03  0.39453498664E+03  0.00000000000E+00 0.  1.
         21   -1    0    0  501  502  0.00000000000E+00 -0.00000000000E+00 -0.90051505992E+03  0.90051505992E+03  0.00000000000E+00 0.  1.
        -13    1    1    2    0    0 -0.48028418073E+03 -0.10579071832E+03  0.59476507593E+02  0.49538069851E+03  0.10566000000E+00 0.  1.
         13    1    1    2    0    0  0.18082767635E+03 -0.43387468997E+02 -0.63628665644E+02  0.19654449688E+03  0.10566000000E+00 0. -1.
          4    1    1    2  501    0  0.29945650438E+03  0.14917818732E+03 -0.50182791523E+03  0.60312485116E+03  0.00000000000E+00 0.  1.
</event>
<event>
 5    1  0.4866530E-005  0.2113112E+03  0.7818608E-02  0.1053755E+00
         21   -1    0    0  501  502  0.00000000000E+00  0.00000000000E+00  0.25071407804E+03  0.25071407804E+03  0.00000000000E+00 0. -1.
         -4   -1    0    0    0  501 -0.00000000000E+00 -0.00000000000E+00 -0.15897671093E+04  0.15897671093E+04  0.00000000000E+00 0. -1.
        -13    1    1    2    0    0 -0.11214412219E+03 -0.17100521077E+03 -0.74440353549E+03  0.77198168441E+03  0.10566000000E+00 0.  1.
         13    1    1    2    0    0 -0.18621216670E+03 -0.74253719029E+02  0.13586298526E+03  0.24217214485E+03  0.10566000000E+00 0. -1.
         -4    1    1    2    0  502  0.29835628889E+03  0.24525892980E+03 -0.73051248098E+03  0.82632735803E+03  0.00000000000E+00 0. -1.
</event>
<event>
 5    1  0.4866530E-005  0.4900378E+03  0.7818608E-02  0.9787399E-01
          4   -1    0    0  502    0 -0.00000000000E+00  0.00000000000E+00  0.38547474306E+03  0.38547474306E+03  0.00000000000E+00 0.  1.
         21   -1    0    0  501  502  0.00000000000E+00 -0.00000000000E+00 -0.12007884407E+04  0.12007884407E+04  0.00000000000E+00 0.  1.
        -13    1    1    2    0    0 -0.22014686110E+03 -0.46297979096E+03 -0.35294471169E+03  0.62240252888E+03  0.10566000000E+00 0.  1.
         13    1    1    2    0    0 -0.12895644534E+03  0.12262827996E+03  0.11215063533E+03  0.21034551578E+03  0.10566000000E+00 0. -1.
          4    1    1    2  501    0  0.34910330644E+03  0.34035151100E+03 -0.57451962126E+03  0.75351513908E+03  0.00000000000E+00 0.  1.
</event>
<event>
 5    1  0.4866530E-005  0.4816458E+03  0.7818608E-02  0.9711829E-01
         21   -1    0    0  501  502  0.00000000000E+00  0.00000000000E+00  0.14029912980E+03  0.14029912980E+03  0.00000000000E+00 0. -1.
         -4   -1    0    0    0  501 -0.00000000000E+00 -0.00000000000E+00 -0.32647665887E+04  0.32647665887E+04  0.00000000000E+00 0. -1.
        -13    1    1    2    0    0 -0.18817615071E+03 -0.15409012001E+03 -0.12707681288E+04  0.12938337131E+04  0.10566000000E+00 0.  1.
         13    1    1    2    0    0  0.34993356997E+03 -0.33387600503E+03 -0.73217240779E+03  0.87749822565E+03  0.10566000000E+00 0. -1.
         -4    1    1    2    0  502 -0.16175741926E+03  0.48796612504E+03 -0.11215269223E+04  0.12337337798E+04  0.00000000000E+00 0. -1.
</event>
<event>
 5    1  0.4866530E-005  0.5014650E+03  0.7818608E-02  0.9684803E-01
         21   -1    0    0  501  502  0.00000000000E+00  0.00000000000E+00  0.20385070957E+03  0.20385070957E+03  0.00000000000E+00 0. -1.
         -4   -1    0    0    0  501 -0.00000000000E+00 -0.00000000000E+00 -0.21925513106E+04  0.21925513106E+04  0.00000000000E+00 0. -1.
        -13    1    1    2    0    0 -0.23343177924E+03  0.39669242594E+02 -0.72802288175E+03  0.76555951557E+03  0.10566000000E+00 0.  1.
         13    1    1    2    0    0 -0.15826204209E+03 -0.43382679406E+03 -0.72109344205E+03  0.85628752446E+03  0.10566000000E+00 0. -1.
         -4    1    1    2    0  502  0.39169382134E+03  0.39415755147E+03 -0.53958427727E+03  0.77455498018E+03  0.00000000000E+00 0. -1.
</event>
<event>
 5    1  0.4866530E-005  0.8600061E+03  0.7818608E-02  0.8918577E-01
         21   -1    0    0  501  502  0.00000000000E+00  0.00000000000E+00  0.92904706703E+03  0.92904706703E+03  0.00000000000E+00 0. -1.
          4   -1    0    0  502    0 -0.00000000000E+00 -0.00000000000E+00 -0.11773751418E+04  0.11773751418E+04  0.00000000000E+00 0.  1.
        -13    1    1    2    0    0 -0.22840976939E+03 -0.92547011060E+03 -0.17652911369E+03  0.96944751664E+03  0.10566000000E+00 0.  1.
         13    1    1    2    0    0 -0.74862854395E+02  0.79657169544E+03 -0.99686641136E+02  0.80626816292E+03  0.10566000000E+00 0. -1.
          4    1    1    2  501    0  0.30327262379E+03  0.12889841516E+03  0.27887680099E+02  0.33070652922E+03  0.00000000000E+00 0.  1.
</event>
<event>
 5    1  0.4866530E-005  0.4879935E+03  0.7818608E-02  0.9701489E-01
          4   -1    0    0  502    0 -0.00000000000E+00  0.00000000000E+00  0.17264528013E+04  0.17264528013E+04  0.00000000000E+00 0.  1.
         21   -1    0    0  501  502  0.00000000000E+00 -0.00000000000E+00 -0.27604431097E+03  0.27604431097E+03  0.00000000000E+00 0.  1.
        -13    1    1    2    0    0  0.58930951234E+02  0.43663953105E+03  0.34463979800E+03  0.55937781384E+03  0.10566000000E+00 0.  1.
         13    1    1    2    0    0  0.23752309819E+03  0.48430010331E+02  0.71051724139E+03  0.75073127652E+03  0.10566000000E+00 0. -1.
          4    1    1    2  501    0 -0.29645404942E+03 -0.48506954138E+03  0.39525145091E+03  0.69238802188E+03  0.00000000000E+00 0.  1.
</event>
<event>
 5    1  0.4866530E-005  0.3833832E+03  0.7818608E-02  0.9778301E-01
         -4   -1    0    0    0  501 -0.00000000000E+00  0.00000000000E+00  0.11584600763E+04  0.11584600763E+04  0.00000000000E+00 0. -1.
         21   -1    0    0  501  502  0.00000000000E+00 -0.00000000000E+00 -0.42107752365E+03  0.42107752365E+03  0.00000000000E+00 0. -1.
        -13    1    1    2    0    0 -0.31192281643E+03  0.12281802958E+03  0.30748667542E+03  0.45489359033E+03  0.10566000000E+00 0.  1.
         13    1    1    2    0    0  0.56986259031E+03 -0.15542702972E+03 -0.35291432762E+02  0.59173172113E+03  0.10566000000E+00 0. -1.
         -4    1    1    2    0  502 -0.25793977388E+03  0.32609000136E+02  0.46518731003E+03  0.53291228852E+03  0.00000000000E+00 0. -1.
</event>
<event>
 5    1  0.4866530E-005  0.2353969E+03  0.7818608E-02  0.1038251E+00
         -4   -1    0    0    0  501 -0.00000000000E+00  0.00000000000E+00  0.18848263214E+04  0.18848263214E+04  0.00000000000E+00 0. -1.
         21   -1    0    0  501  502  0.00000000000E+00 -0.00000000000E+00 -0.16764624428E+03  0.16764624428E+03  0.00000000000E+00 0. -1.
        -13    1    1    2    0    0  0.45738505055E+02  0.26068828414E+03  0.73539685255E+03  0.78157465045E+03  0.10566000000E+00 0.  1.
         13    1    1    2    0    0  0.58068074616E+01 -0.22285464466E+03  0.11075754004E+04  0.11297881175E+04  0.10566000000E+00 0. -1.
         -4    1    1    2    0  502 -0.51545312517E+02 -0.37833639478E+02 -0.12579217583E+03  0.14110979774E+03  0.00000000000E+00 0. -1.
</event>
<event>
 5    1  0.4866530E-005  0.2762694E+03  0.7818608E-02  0.1017612E+00
         -4   -1    0    0    0  501 -0.00000000000E+00  0.00000000000E+00  0.72325404282E+03  0.72325404282E+03  0.00000000000E+00 0. -1.
         21   -1    0    0  501  502  0.00000000000E+00 -0.00000000000E+00 -0.15344827873E+03  0.15344827873E+03  0.00000000000E+00 0.  1.
        -13    1    1    2    0    0  0.24939265829E+03  0.91711366434E+02  0.27229542268E+03  0.38046350826E+03  0.10566000000E+00 0.  1.
         13    1    1    2    0    0 -0.26512939113E+03 -0.10862002461E+03  0.34197181285E+03  0.44613522135E+03  0.10566000000E+00 0. -1.
         -4    1    1    2    0  502  0.15736732841E+02  0.16908658174E+02 -0.44461471445E+02  0.50103591935E+02  0.00000000000E+00 0. -1.
</event>
<event>
 5    1  0.4866530E-005  0.8763120E+02  0.7818608E-02  0.1214528E+00
          4   -1    0    0  502    0 -0.00000000000E+00  0.00000000000E+00  0.17176429206E+02  0.17176429206E+02  0.00000000000E+00 0.  1.
         21   -1    0    0  501  502  0.00000000000E+00 -0.00000000000E+00 -0.75729640927E+03  0.75729640927E+03  0.00000000000E+00 0.  1.
        -13    1    1    2    0    0 -0.87771003602E+02  0.10487982194E+02 -0.28172587299E+03  0.29526805706E+03  0.10566000000E+00 0.  1.
         13    1    1    2    0    0  0.13005758555E+02  0.44814949651E+02 -0.15750539353E+03  0.16427260764E+03  0.10566000000E+00 0. -1.
          4    1    1    2  501    0  0.74765245047E+02 -0.55302931845E+02 -0.30088871355E+03  0.31493217377E+03  0.00000000000E+00 0.  1.
</event>
<event>
 5    1  0.4866530E-005  0.1478048E+03  0.7818608E-02  0.1103297E+00
         21   -1    0    0  501  502  0.00000000000E+00  0.00000000000E+00  0.12946688784E+04  0.12946688784E+04  0.00000000000E+00 0. -1.
         -4   -1    0    0    0  501 -0.00000000000E+00 -0.00000000000E+00 -0.26235284907E+03  0.26235284907E+03  0.00000000000E+00 0. -1.
        -13    1    1    2    0    0 -0.13596652114E+03  0.17839043859E+02 -0.15383068036E+02  0.13799194289E+03  0.10566000000E+00 0.  1.
         13    1    1    2    0    0  0.15289325030E+03 -0.12255367187E+02 -0.15390926324E+03  0.21728923693E+03  0.10566000000E+00 0. -1.
         -4    1    1    2    0  502 -0.16926729160E+02 -0.55836766719E+01  0.12016083606E+04  0.12017405477E+04  0.00000000000E+00 0. -1.
</event>
<event>
 5    1  0.4866530E-005  0.4846669E+03  0.7818608E-02  0.9815087E-01
         -4   -1    0    0    0  501 -0.00000000000E+00  0.00000000000E+00  0.28184880578E+03  0.28184880578E+03  0.00000000000E+00 0. -1.
         21   -1    0    0  501  502  0.00000000000E+00 -0.00000000000E+00 -0.13945019549E+04  0.13945019549E+04  0.00000000000E+00 0. -1.
        -13    1    1    2    0    0  0.15770319491E+03  0.55995781261E+02 -0.41719358128E+03  0.44950675260E+03  0.10566000000E+00 0.  1.
         13    1    1    2    0    0 -0.51398263632E+03  0.21287869180E+03 -0.30864498338E+03  0.63620533226E+03  0.10566000000E+00 0. -1.
         -4    1    1    2    0  502  0.35627944141E+03 -0.26887447306E+03 -0.38681458447E+03  0.59063867584E+03  0.00000000000E+00 0. -1.
</event>
<event>
 5    1  0.4866530E-005  0.4733914E+03  0.7818608E-02  0.9546546E-01
          4   -1    0    0  502    0 -0.00000000000E+00  0.00000000000E+00  0.25416951957E+04  0.25416951957E+04  0.00000000000E+00 0.  1.
         21   -1    0    0  501  502  0.00000000000E+00 -0.00000000000E+00 -0.38407318846E+03  0.38407318846E+03  0.00000000000E+00 0.  1.
        -13    1    1    2    0    0 -0.34996189608E+02  0.43424649783E+03  0.12310867943E+04  0.13058979518E+04  0.10566000000E+00 0.  1.
         13    1    1    2    0    0  0.51459432363E+03 -0.46350251749E+03  0.90407488098E+03  0.11388561381E+04  0.10566000000E+00 0. -1.
          4    1    1    2  501    0 -0.47959813402E+03  0.29256019658E+02  0.22460331964E+02  0.48101429433E+03  0.00000000000E+00 0.  1.
</event>
<event>
 5    1  0.4866530E-005  0.1025636E+03  0.7818608E-02  0.1160382E+00
          4   -1    0    0  502    0 -0.00000000000E+00  0.00000000000E+00  0.20880349839E+02  0.20880349839E+02  0.00000000000E+00 0.  1.
         21   -1    0    0  501  502  0.00000000000E+00 -0.00000000000E+00 -0.87261913676E+03  0.87261913676E+03  0.00000000000E+00 0. -1.
        -13    1    1    2    0    0 -0.73758056245E+02 -0.63757515173E+02 -0.19439678794E+03  0.21747504208E+03  0.10566000000E+00 0.  1.
         13    1    1    2    0    0  0.90594554114E+02  0.64470486539E+02 -0.32962003981E+03  0.34786951387E+03  0.10566000000E+00 0. -1.
          4    1    1    2  501    0 -0.16836497869E+02 -0.71297136598E+00 -0.32772195917E+03  0.32815493065E+03  0.00000000000E+00 0.  1.
</event>
<event>
 5    1  0.4866530E-005  0.3264224E+03  0.7818608E-02  0.1034320E+00
          4   -1    0    0  502    0 -0.00000000000E+00  0.00000000000E+00  0.29996536044E+04  0.29996536044E+04  0.00000000000E+00 0.  1.
         21   -1    0    0  501  502  0.00000000000E+00 -0.00000000000E+00 -0.57719488007E+02  0.57719488007E+02  0.00000000000E+00 0.  1.
        -13    1    1    2    0    0  0.32666367129E+03 -0.16583644710E+03  0.18579610456E+04  0.18937344427E+04  0.10566000000E+00 0.  1.
         13    1    1    2    0    0 -0.90675709746E+02 -0.41039280393E+02  0.38117024855E+03  0.39395060150E+03  0.10566000000E+00 0. -1.
          4    1    1    2  501    0 -0.23598796155E+03  0.20687572749E+03  0.70280282228E+03  0.76968804826E+03  0.00000000000E+00 0.  1.
</event>
<event>
 5    1  0.4866530E-005  0.4496676E+03  0.7818608E-02  0.9691761E-01
         -4   -1    0    0    0  501 -0.00000000000E+00  0.00000000000E+00  0.19979918305E+04  0.19979918305E+04  0.00000000000E+00 0. -1.
         21   -1    0    0  501  502  0.00000000000E+00 -0.00000000000E+00 -0.32591445608E+03  0.32591445608E+03  0.00000000000E+00 0. -1.
        -13    1    1    2    0    0 -0.32024923835E+03 -0.12916829029E+02  0.11303829665E+04  0.11749434375E+04  0.10566000000E+00 0.  1.
         13    1    1    2    0    0  0.66103176798E+03 -0.60027579780E+02  0.37928084141E+03  0.76447385595E+03  0.10566000000E+00 0. -1.
         -4    1    1    2    0  502 -0.34078252963E+03  0.72944408809E+02  0.16241356654E+03  0.38448899318E+03  0.00000000000E+00 0. -1.
</event>
<event>
 5    1  0.4866530E-005  0.4554413E+03  0.7818608E-02  0.1027584E+00
         -4   -1    0    0    0  501 -0.00000000000E+00  0.00000000000E+00  0.20163812253E+04  0.20163812253E+04  0.00000000000E+00 0. -1.
         21   -1    0    0  501  502  0.00000000000E+00 -0.00000000000E+00 -0.13586110421E+03  0.13586110421E+03  0.00000000000E+00 0. -1.
        -13    1    1    2    0    0 -0.28764292822E+02 -0.34743893574E+02  0.14019585775E+03  0.14727325750E+03  0.10566000000E+00 0.  1.
         13    1    1    2    0    0 -0.10716870012E+03  0.46162786297E+03  0.12694462055E+04  0.13550199607E+04  0.10566000000E+00 0. -1.
         -4    1    1    2    0  502  0.13593299294E+03 -0.42688396939E+03  0.47087805784E+03  0.64994911128E+03  0.00000000000E+00 0. -1.
</event>
<event>
 5    1  0.4866530E-005  0.4618727E+03  0.7818608E-02  0.9706446E-01
          4   -1    0    0  502    0 -0.00000000000E+00  0.00000000000E+00  0.24206695258E+04  0.24206695258E+04  0.00000000000E+00 0.  1.
         21   -1    0    0  501  502  0.00000000000E+00 -0.00000000000E+00 -0.18358280295E+03  0.18358280295E+03  0.00000000000E+00 0.  1.
        -13    1    1    2    0    0  0.40518683209E+03  0.70923384829E+02  0.90405773609E+03  0.99324060366E+03  0.10566000000E+00 0.  1.
         13    1    1    2    0    0  0.74438763649E+02 -0.27098046145E+03  0.87250604632E+03  0.91664516147E+03  0.10566000000E+00 0. -1.
          4    1    1    2  501    0 -0.47962559574E+03  0.20005707662E+03  0.46052294048E+03  0.69436656365E+03  0.00000000000E+00 0.  1.
</event>
<event>
 5    1  0.4866530E-005  0.7508250E+02  0.7818608E-02  0.1213991E+00
         -4   -1    0    0    0  501 -0.00000000000E+00  0.00000000000E+00  0.60027448181E+02  0.60027448181E+02  0.00000000000E+00 0. -1.
         21   -1    0    0  501  502  0.00000000000E+00 -0.00000000000E+00 -0.22034314411E+03  0.22034314411E+03  0.00000000000E+00 0. -1.
        -13    1    1    2    0    0 -0.55936404090E+02  0.15432698873E+02 -0.68251245697E+02  0.89584000805E+02  0.10566000000E+00 0.  1.
         13    1    1    2    0    0  0.78272360018E+02 -0.27259672045E+02  0.11954588608E+02  0.83741121414E+02  0.10566000000E+00 0. -1.
         -4    1    1    2    0  502 -0.22335955928E+02  0.11826973172E+02 -0.10401903884E+03  0.10704547008E+03  0.00000000000E+00 0. -1.
</event>
<event>
 5    1  0.4866530E-005  0.3137086E+03  0.7818608E-02  0.1001802E+00
         -4   -1    0    0    0  501 -0.00000000000E+00  0.00000000000E+00  0.17203358964E+03  0.17203358964E+03  0.00000000000E+00 0. -1.
         21   -1    0    0  501  502  0.00000000000E+00 -0.00000000000E+00 -0.99965551303E+03  0.99965551303E+03  0.00000000000E+00 0. -1.
        -13    1    1    2    0    0 -0.19752492819E+03  0.23138313148E+03 -0.25286837636E+03  0.39559660984E+03  0.10566000000E+00 0.  1.
         13    1    1    2    0    0  0.21620420668E+03 -0.23766226885E+03 -0.15650751305E+03  0.35738246435E+03  0.10566000000E+00 0. -1.
         -4    1    1    2    0  502 -0.18679278488E+02  0.62791373719E+01 -0.41824603398E+03  0.41871002849E+03  0.00000000000E+00 0. -1.
</event>
<event>
 5    1  0.4866530E-005  0.2780444E+03  0.7818608E-02  0.1016803E+00
         -4   -1    0    0    0  501 -0.00000000000E+00  0.00000000000E+00  0.17887208592E+04  0.17887208592E+04  0.00000000000E+00 0. -1.
         21   -1    0    0  501  502  0.00000000000E+00 -0.00000000000E+00 -0.80979519566E+02  0.80979519566E+02  0.00000000000E+00 0. -1.
        -13    1    1    2    0    0 -0.25654027467E+03  0.75543755659E+02  0.67441082211E+03  0.72549964831E+03  0.10566000000E+00 0.  1.
         13    1    1    2    0    0  0.26700596977E+03 -0.10335180671E+03  0.10637923986E+04  0.11016478849E+04  0.10566000000E+00 0. -1.
         -4    1    1    2    0  502 -0.10465695095E+02  0.27808051049E+02 -0.30461881000E+02  0.42552845628E+02  0.00000000000E+00 0. -1.
</event>
<event>
 5    1  0.4866530E-005  0.5039525E+03  0.7818608E-02  0.9596450E-01
         21   -1    0    0  501  502  0.00000000000E+00  0.00000000000E+00  0.53358717811E+03  0.53358717811E+03  0.00000000000E+00 0. -1.
         -4   -1    0    0    0  501 -0.00000000000E+00 -0.00000000000E+00 -0.12917224423E+04  0.12917224423E+04  0.00000000000E+00 0. -1.
        -13    1    1    2    0    0 -0.18303696154E+03  0.26075053398E+03 -0.69218035368E+03  0.76197573678E+03  0.10566000000E+00 0.  1.
         13    1    1    2    0    0  0.47623848414E+02 -0.64378320854E+03  0.28731339762E+02  0.64618136122E+03  0.10566000000E+00 0. -1.
         -4    1    1    2    0  502  0.13541311313E+03  0.38303267456E+03 -0.94686250307E+02  0.41715252245E+03  0.00000000000E+00 0. -1.
</event>
<event>
 5    1  0.4866530E-005  0.5029973E+03  0.7818608E-02  0.9599936E-01
         21   -1    0    0  501  502  0.00000000000E+00  0.00000000000E+00  0.30277214528E+03  0.30277214528E+03  0.00000000000E+00 0.  1.
          4   -1    0    0  502    0 -0.00000000000E+00 -0.00000000000E+00 -0.20987492258E+04  0.20987492258E+04  0.00000000000E+00 0.  1.
        -13    1    1    2    0    0  0.43195628306E+03 -0.34253081208E+03 -0.30659921162E+03  0.63080636920E+03  0.10566000000E+00 0.  1.
         13    1    1    2    0    0  0.65708556336E+02  0.30955223292E+03 -0.10801779446E+04  0.11255774529E+04  0.10566000000E+00 0. -1.
          4    1    1    2  501    0 -0.49766483939E+03  0.32978579153E+02 -0.40919992424E+03  0.64513754894E+03  0.00000000000E+00 0.  1.
</event>
<event>
 5    1  0.4866530E-005  0.5473365E+03  0.7818608E-02  0.9379847E-01
          4   -1    0    0  502    0 -0.00000000000E+00  0.00000000000E+00  0.46013047191E+03  0.46013047191E+03  0.00000000000E+00 0.  1.
         21   -1    0    0  501  502  0.00000000000E+00 -0.00000000000E+00 -0.20239497865E+04  0.20239497865E+04  0.00000000000E+00 0. -1.
        -13    1    1    2    0    0 -0.56325150850E+03  0.45557919993E+02 -0.25494901105E+03  0.61994096114E+03  0.10566000000E+00 0.  1.
         13    1    1    2    0    0  0.52292567646E+03  0.18843447401E+03 -0.22772783952E+02  0.55630695209E+03  0.10566000000E+00 0. -1.
          4    1    1    2  501    0  0.40325832042E+02 -0.23399239400E+03 -0.12860975196E+04  0.13078323451E+04  0.00000000000E+00 0.  1.
</event>
<event>
 5    1  0.4866530E-005  0.8737388E+02  0.7818608E-02  0.1193222E+00
         21   -1    0    0  501  502  0.00000000000E+00  0.00000000000E+00  0.74453626713E+03  0.74453626713E+03  0.00000000000E+00 0. -1.
         -4   -1    0    0    0  501 -0.00000000000E+00 -0.00000000000E+00 -0.29030131566E+03  0.29030131566E+03  0.00000000000E+00 0. -1.
        -13    1    1    2    0    0  0.76171089720E+02  0.31247424576E+01  0.14705529308E+03  0.16564138768E+03  0.10566000000E+00 0.  1.
         13    1    1    2    0    0 -0.12885510001E+03  0.65927736278E+02 -0.25883497345E+03  0.29655633167E+03  0.10566000000E+00 0. -1.
         -4    1    1    2    0  502  0.52684010291E+02 -0.69052478736E+02  0.56601463183E+03  0.57263986344E+03  0.00000000000E+00 0. -1.
</event>
<event>
 5    1  0.4866530E-005  0.4016773E+03  0.7818608E-02  0.9724214E-01
         -4   -1    0    0    0  501 -0.00000000000E+00  0.00000000000E+00  0.63922669556E+03  0.63922669556E+03  0.00000000000E+00 0. -1.
         21   -1    0    0  501  502  0.00000000000E+00 -0.00000000000E+00 -0.87832241686E+03  0.87832241686E+03  0.00000000000E+00 0. -1.
        -13    1    1    2    0    0 -0.20401176091E+03  0.32036526209E+03  0.18121263661E+03  0.42082387120E+03  0.10566000000E+00 0.  1.
         13    1    1    2    0    0  0.17661678879E+03 -0.51547564361E+03 -0.61366892256E+03  0.82066935298E+03  0.10566000000E+00 0. -1.
         -4    1    1    2    0  502  0.27394972111E+02  0.19511038152E+03  0.19336056464E+03  0.27605588824E+03  0.00000000000E+00 0. -1.
</event>
<event>
 5    1  0.4866530E-005  0.3218210E+03  0.7818608E-02  0.1006415E+00
         -4   -1    0    0    0  501 -0.00000000000E+00  0.00000000000E+00  0.79802975756E+03  0.79802975756E+03  0.00000000000E+00 0. -1.
         21   -1    0    0  501  502  0.00000000000E+00 -0.00000000000E+00 -0.59806879432E+03  0.59806879432E+03  0.00000000000E+00 0. -1.
        -13    1    1    2    0    0 -0.56762342920E+02 -0.24359504041E+03  0.25570242724E+03  0.35769295456E+03  0.10566000000E+00 0.  1.
         13    1    1    2    0    0 -0.45373593455E+02 -0.28942930035E+03 -0.32077754989E+03  0.43442643861E+03  0.10566000000E+00 0. -1.
         -4    1    1    2    0  502  0.10213593638E+03  0.53302434076E+03  0.26503608588E+03  0.60397915871E+03  0.00000000000E+00 0. -1.
</event>
<event>
 5    1  0.4866530E-005  0.4298713E+03  0.7818608E-02  0.9646541E-01
          4   -1    0    0  502    0 -0.00000000000E+00  0.00000000000E+00  0.26577576552E+04  0.26577576552E+04  0.00000000000E+00 0.  1.
         21   -1    0    0  501  502  0.00000000000E+00 -0.00000000000E+00 -0.22763273234E+03  0.22763273234E+03  0.00000000000E+00 0.  1.
        -13    1    1    2    0    0 -0.64266690116E+03 -0.13956367415E+03  0.11055967870E+04  0.12864070241E+04  0.10566000000E+00 0.  1.
         13    1    1    2    0    0  0.35884817138E+03  0.61503127171E+02  0.12405621438E+04  0.12928840198E+04  0.10566000000E+00 0. -1.
          4    1    1    2  501    0  0.28381872978E+03  0.78060546982E+02  0.83965992006E+02  0.30609934365E+03  0.00000000000E+00 0.  1.
</event>
<event>
 5    1  0.4866530E-005  0.4104185E+02  0.7818608E-02  0.1333280E+00
         -4   -1    0    0    0  501 -0.00000000000E+00  0.00000000000E+00  0.55334588811E+02  0.55334588811E+02  0.00000000000E+00 0. -1.
         21   -1    0    0  501  502  0.00000000000E+00 -0.00000000000E+00 -0.61630956070E+02  0.61630956070E+02  0.00000000000E+00 0. -1.
        -13    1    1    2    0    0  0.18633530094E+02  0.23816908998E+02 -0.13389785279E+02  0.33071908197E+02  0.10566000000E+00 0.  1.
         13    1    1    2    0    0 -0.11775409684E+02 -0.48727686260E+02  0.21231203338E+02  0.54441003303E+02  0.10566000000E+00 0. -1.
         -4    1    1    2    0  502 -0.68581204095E+01  0.24910777262E+02 -0.14137785318E+02  0.29452633380E+02  0.00000000000E+00 0. -1.
</event>
<event>
 5    1  0.4866530E-005  0.7797117E+02  0.7818608E-02  0.1207241E+00
          4   -1    0    0  502    0 -0.00000000000E+00  0.00000000000E+00  0.98513602138E+02  0.98513602138E+02  0.00000000000E+00 0.  1.
         21   -1    0    0  501  502  0.00000000000E+00 -0.00000000000E+00 -0.13272162855E+03  0.13272162855E+03  0.00000000000E+00 0. -1.
        -13    1    1    2    0    0  0.26737353207E+02 -0.70376718342E+02  0.50689831905E+02  0.90759235143E+02  0.10566000000E+00 0.  1.
         13    1    1    2    0    0 -0.38208677109E+02  0.79318900175E+02 -0.46825162416E+02  0.99719596523E+02  0.10566000000E+00 0. -1.
          4    1    1    2  501    0  0.11471323903E+02 -0.89421818329E+01 -0.38072695898E+02  0.40756399019E+02  0.00000000000E+00 0.  1.
</event>
<event>
 5    1  0.4866530E-005  0.2287163E+03  0.7818608E-02  0.1042053E+00
          4   -1    0    0  502    0 -0.00000000000E+00  0.00000000000E+00  0.23992233082E+03  0.23992233082E+03  0.00000000000E+00 0.  1.
         21   -1    0    0  501  502  0.00000000000E+00 -0.00000000000E+00 -0.44006222799E+03  0.44006222799E+03  0.00000000000E+00 0. -1.
        -13    1    1    2    0    0  0.11355901713E+03  0.20192111661E+03  0.91705547363E+02  0.24915398107E+03  0.10566000000E+00 0.  1.
         13    1    1    2    0    0 -0.12803853004E+03 -0.18226240340E+03 -0.11196048762E+03  0.24929623106E+03  0.10566000000E+00 0. -1.
          4    1    1    2  501    0  0.14479512912E+02 -0.19658713215E+02 -0.17988495691E+03  0.18153434667E+03  0.00000000000E+00 0.  1.
</event>
<event>
 5    1  0.4866530E-005  0.6076098E+03  0.7818608E-02  0.9268996E-01
          4   -1    0    0  502    0 -0.00000000000E+00  0.00000000000E+00  0.28571100531E+04  0.28571100531E+04  0.00000000000E+00 0.  1.
         21   -1    0    0  501  502  0.00000000000E+00 -0.00000000000E+00 -0.22039868585E+03  0.22039868585E+03  0.00000000000E+00 0. -1.
        -13    1    1    2    0    0 -0.64810803029E+03 -0.30984878523E+03  0.15912815847E+04  0.17459173467E+04  0.10566000000E+00 0.  1.
         13    1    1    2    0    0  0.35569150770E+03  0.37192206331E+03  0.76305954964E+03  0.92038163676E+03  0.10566000000E+00 0. -1.
          4    1    1    2  501    0  0.29241652259E+03 -0.62073278085E+02  0.28237023287E+03  0.41120975541E+03  0.00000000000E+00 0.  1.
</event>
<event>
 5    1  0.4866530E-005  0.4055997E+03  0.7818608E-02  0.1011449E+00
         21   -1    0    0  501  502  0.00000000000E+00  0.00000000000E+00  0.72217012484E+03  0.72217012484E+03  0.00000000000E+00 0. -1.
         -4   -1    0    0    0  501 -0.00000000000E+00 -0.00000000000E+00 -0.93829478482E+03  0.93829478482E+03  0.00000000000E+00 0. -1.
        -13    1    1    2    0    0 -0.94865877282E+01 -0.10581803057E+03 -0.58138737390E+03  0.59101500881E+03  0.10566000000E+00 0.  1.
         13    1    1    2    0    0 -0.25666744795E+03  0.39158391902E+03 -0.82393027251E+02  0.47539958622E+03  0.10566000000E+00 0. -1.
         -4    1    1    2    0  502  0.26615403568E+03 -0.28576588845E+03  0.44765574118E+03  0.59405031464E+03  0.00000000000E+00 0. -1.
</event>
<event>
 5    1  0.4866530E-005  0.3129602E+02  0.7818608E-02  0.1394794E+00
         -4   -1    0    0    0  501 -0.00000000000E+00  0.00000000000E+00  0.58478595523E+02  0.58478595523E+02  0.00000000000E+00 0. -1.
         21   -1    0    0  501  502  0.00000000000E+00 -0.00000000000E+00 -0.62576620542E+02  0.62576620542E+02  0.00000000000E+00 0. -1.
        -13    1    1    2    0    0  0.36869948433E+01  0.21141128944E+02 -0.96951582586E+01  0.23548853936E+02  0.10566000000E+00 0.  1.
         13    1    1    2    0    0  0.49739515791E+01 -0.34965852081E+02  0.43623606266E+02  0.56128256643E+02  0.10566000000E+00 0. -1.
         -4    1    1    2    0  502 -0.86609464225E+01  0.13824723137E+02 -0.38026473027E+02  0.41378105486E+02  0.00000000000E+00 0. -1.
</event>
<event>
 5    1  0.4866530E-005  0.1540190E+03  0.7818608E-02  0.1115816E+00
         21   -1    0    0  501  502  0.00000000000E+00  0.00000000000E+00  0.49567712984E+03  0.49567712984E+03  0.00000000000E+00 0.  1.
          4   -1    0    0  502    0 -0.00000000000E+00 -0.00000000000E+00 -0.10590980364E+03  0.10590980364E+03  0.00000000000E+00 0.  1.
        -13    1    1    2    0    0 -0.12564225240E+03  0.16794374277E+03  0.27045697665E+03  0.34225438450E+03  0.10566000000E+00 0.  1.
         13    1    1    2    0    0  0.49200551610E+02 -0.79629939592E+02  0.17606253609E+01  0.93620150202E+02  0.10566000000E+00 0. -1.
          4    1    1    2  501    0  0.76441700790E+02 -0.88313803179E+02  0.11754972419E+03  0.16571239878E+03  0.00000000000E+00 0.  1.
</event>
<event>
 5    1  0.4866530E-005  0.1068088E+04  0.7818608E-02  0.8713121E-01
          4   -1    0    0  502    0 -0.00000000000E+00  0.00000000000E+00  0.23387844473E+04  0.23387844473E+04  0.00000000000E+00 0.  1.
         21   -1    0    0  501  502  0.00000000000E+00 -0.00000000000E+00 -0.82892829008E+03  0.82892829008E+03  0.00000000000E+00 0.  1.
        -13    1    1    2    0    0  0.47539602005E+03  0.84492238310E+03 -0.21174395083E+03  0.99233599210E+03  0.10566000000E+00 0.  1.
         13    1    1    2    0    0 -0.48788646716E+03 -0.99039563519E+03  0.11864796470E+04  0.16206945064E+04  0.10566000000E+00 0. -1.
          4    1    1    2  501    0  0.12490447115E+02  0.14547325208E+03  0.53512046107E+03  0.55468223894E+03  0.00000000000E+00 0.  1.
</event>
<event>
 5    1  0.4866530E-005  0.4327869E+03  0.7818608E-02  0.1007538E+00
          4   -1    0    0  502    0 -0.00000000000E+00  0.00000000000E+00  0.25182322593E+04  0.25182322593E+04  0.00000000000E+00 0.  1.
         21   -1    0    0  501  502  0.00000000000E+00 -0.00000000000E+00 -0.12730503042E+03  0.12730503042E+03  0.00000000000E+00 0.  1.
        -13    1    1    2    0    0 -0.32945195291E+03 -0.24441453396E+03  0.43396056073E+03  0.59715896805E+03  0.10566000000E+00 0.  1.
         13    1    1    2    0    0 -0.94999664411E+02 -0.28479056541E+02  0.37419723679E+03  0.38711700568E+03  0.10566000000E+00 0. -1.
          4    1    1    2  501    0  0.42445161732E+03  0.27289359050E+03  0.15827694314E+04  0.16612613160E+04  0.00000000000E+00 0.  1.
</event>
<event>
 5    1  0.4866530E-005  0.3400478E+03  0.7818608E-02  0.9925220E-01
         21   -1    0    0  501  502  0.00000000000E+00  0.00000000000E+00  0.17251862381E+03  0.17251862381E+03  0.00000000000E+00 0. -1.
         -4   -1    0    0    0  501 -0.00000000000E+00 -0.00000000000E+00 -0.31328816599E+04  0.31328816599E+04  0.00000000000E+00 0. -1.
        -13    1    1    2    0    0 -0.32064438621E+03 -0.95136259008E+02 -0.12563223121E+04  0.13000805718E+04  0.10566000000E+00 0.  1.
         13    1    1    2    0    0  0.19778356576E+03 -0.28991198120E+03 -0.12057709291E+03  0.37108778237E+03  0.10566000000E+00 0. -1.
         -4    1    1    2    0  502  0.12286082045E+03  0.38504824020E+03 -0.15834636311E+04  0.16342319295E+04  0.00000000000E+00 0. -1.
</event>
<event>
 5    1  0.4866530E-005  0.2657540E+03  0.7818608E-02  0.1074869E+00
         21   -1    0    0  501  502  0.00000000000E+00  0.00000000000E+00  0.28399581369E+03  0.28399581369E+03  0.00000000000E+00 0.  1.
          4   -1    0    0  502    0 -0.00000000000E+00 -0.00000000000E+00 -0.10441067564E+04  0.10441067564E+04  0.00000000000E+00 0.  1.
        -13    1    1    2    0    0  0.22847107356E+03 -0.14365244648E+03  0.19554655861E+03  0.33327694877E+03  0.10566000000E+00 0.  1.
         13    1    1    2    0    0 -0.39392343741E+02  0.39517548278E+02 -0.13106578404E+03  0.14244874263E+03  0.10566000000E+00 0. -1.
          4    1    1    2  501    0 -0.18907872982E+03  0.10413489820E+03 -0.82459171733E+03  0.85237687872E+03  0.00000000000E+00 0.  1.
</event>
<event>
 5    1  0.4866530E-005  0.1667927E+03  0.7818608E-02  0.1088612E+00
         21   -1    0    0  501  502  0.00000000000E+00  0.00000000000E+00  0.20668453126E+03  0.20668453126E+03  0.00000000000E+00 0.  1.
          4   -1    0    0  502    0 -0.00000000000E+00 -0.00000000000E+00 -0.18001466966E+04  0.18001466966E+04  0.00000000000E+00 0.  1.
        -13    1    1    2    0    0 -0.20667935361E+03  0.15101298662E+03 -0.11593126736E+04  0.11872350920E+04  0.10566000000E+00 0.  1.
         13    1    1    2    0    0  0.41341072942E+02 -0.14790698725E+03 -0.57945406076E+03  0.59946024129E+03  0.10566000000E+00 0. -1.
          4    1    1    2  501    0  0.16533828067E+03 -0.31059993696E+01  0.14530456904E+03  0.22013589455E+03  0.00000000000E+00 0.  1.
</event>
<event>
 5    1  0.4866530E-005  0.4351733E+03  0.7818608E-02  0.9771366E-01
         21   -1    0    0  501  502  0.00000000000E+00  0.00000000000E+00  0.36943540127E+04  0.36943540127E+04  0.00000000000E+00 0.  1.
          4   -1    0    0  502    0 -0.00000000000E+00 -0.00000000000E+00 -0.11673533069E+03  0.11673533069E+03  0.00000000000E+00 0.  1.
        -13    1    1    2    0    0 -0.25918268076E+03 -0.42459367176E+03  0.77379374748E+03  0.91989794157E+03  0.10566000000E+00 0.  1.
         13    1    1    2    0    0 -0.13046751142E+03  0.23462498849E+03  0.93721660863E+03  0.97490801587E+03  0.10566000000E+00 0. -1.
          4    1    1    2  501    0  0.38965019218E+03  0.18996868326E+03  0.18666083259E+04  0.19162833859E+04  0.00000000000E+00 0.  1.
</event>
<event>
 5    1  0.4866530E-005  0.4792173E+03  0.7818608E-02  0.9814281E-01
         21   -1    0    0  501  502  0.00000000000E+00  0.00000000000E+00  0.36267146019E+03  0.36267146019E+03  0.00000000000E+00 0. -1.
         -4   -1    0    0    0  501 -0.00000000000E+00 -0.00000000000E+00 -0.15614776336E+04  0.15614776336E+04  0.00000000000E+00 0. -1.
        -13    1    1    2    0    0 -0.16817506520E+03  0.43056589580E+02 -0.82328105660E+03  0.84138482978E+03  0.10566000000E+00 0.  1.
         13    1    1    2    0    0  0.37408323235E+03 -0.42643374870E+03 -0.29788788077E+03  0.64071928910E+03  0.10566000000E+00 0. -1.
         -4    1    1    2    0  502 -0.20590816715E+03  0.38337715912E+03 -0.77637236058E+02  0.44204497492E+03  0.00000000000E+00 0. -1.
</event>
<event>
 5    1  0.4866530E-005  0.4909159E+03  0.7818608E-02  0.9825411E-01
         21   -1    0    0  501  502  0.00000000000E+00  0.00000000000E+00  0.84363298371E+03  0.84363298371E+03  0.00000000000E+00 0.  1.
          4   -1    0    0  502    0 -0.00000000000E+00 -0.00000000000E+00 -0.40496102294E+03  0.40496102294E+03  0.00000000000E+00 0.  1.
        -13    1    1    2    0    0  0.33646513345E+03  0.36695509729E+03  0.29799792479E+03  0.58023064707E+03  0.10566000000E+00 0.  1.
         13    1    1    2    0    0  0.94673159963E+02 -0.12333894536E+03  0.59844641477E+02  0.16660400637E+03  0.10566000000E+00 0. -1.
          4    1    1    2  501    0 -0.43113829341E+03 -0.24361615193E+03  0.80829394497E+02  0.50175935322E+03  0.00000000000E+00 0.  1.
</event>
<event>
 5    1  0.4866530E-005  0.4745062E+03  0.7818608E-02  0.9760621E-01
         21   -1    0    0  501  502  0.00000000000E+00  0.00000000000E+00  0.37202245165E+03  0.37202245165E+03  0.00000000000E+00 0.  1.
          4   -1    0    0  502    0 -0.00000000000E+00 -0.00000000000E+00 -0.10410678760E+04  0.10410678760E+04  0.00000000000E+00 0.  1.
        -13    1    1    2    0    0  0.12987673014E+03 -0.42314741792E+03 -0.12243762394E+03  0.45925231109E+03  0.10566000000E+00 0.  1.
         13    1    1    2    0    0 -0.16602324974E+03 -0.13640464678E+03 -0.10003389435E+03  0.23701632497E+03  0.10566000000E+00 0. -1.
          4    1    1    2  501    0  0.36146519602E+02  0.55955206470E+03 -0.44657390608E+03  0.71682169163E+03  0.00000000000E+00 0.  1.
</event>
<event>
 5    1  0.4866530E-005  0.7315062E+02  0.7818608E-02  0.1218696E+00
         -4   -1    0    0    0  501 -0.00000000000E+00  0.00000000000E+00  0.90033284450E+02  0.90033284450E+02  0.00000000000E+00 0. -1.
         21   -1    0    0  501  502  0.00000000000E+00 -0.00000000000E+00 -0.23340660613E+03  0.23340660613E+03  0.00000000000E+00 0.  1.
        -13    1    1    2    0    0  0.52956659494E+02  0.32521994435E+02 -0.14992269847E+03  0.16229268186E+03  0.10566000000E+00 0.  1.
         13    1    1    2    0    0 -0.56458659463E+02 -0.48463720501E+02  0.66022474370E+02  0.99475075869E+02  0.10566000000E+00 0. -1.
         -4    1    1    2    0  502  0.35019999687E+01  0.15941726066E+02 -0.59473097580E+02  0.61672132844E+02  0.00000000000E+00 0. -1.
</event>
<event>
 5    1  0.4866530E-005  0.2337282E+03  0.7818608E-02  0.1039188E+00
         21   -1    0    0  501  502  0.00000000000E+00  0.00000000000E+00  0.36718322359E+03  0.36718322359E+03  0.00000000000E+00 0. -1.
         -4   -1    0    0    0  501 -0.00000000000E+00 -0.00000000000E+00 -0.20736575212E+03  0.20736575212E+03  0.00000000000E+00 0. -1.
        -13    1    1    2    0    0  0.20181056958E+03 -0.94863976956E+02  0.98804289894E+02  0.24390362642E+03  0.10566000000E+00 0.  1.
         13    1    1    2    0    0 -0.21378493028E+03  0.11030761637E+03 -0.25536295788E+02  0.24191709367E+03  0.10566000000E+00 0. -1.
         -4    1    1    2    0  502  0.11974360698E+02 -0.15443639411E+02  0.86549477364E+02  0.88728255615E+02  0.00000000000E+00 0. -1.
</event>
<event>
 5    1  0.4866530E-005  0.4808466E+03  0.7818608E-02  0.9533902E-01
         21   -1    0    0  501  502  0.00000000000E+00  0.00000000000E+00  0.29278077535E+03  0.29278077535E+03  0.00000000000E+00 0.  1.
          4   -1    0    0  502    0 -0.00000000000E+00 -0.00000000000E+00 -0.32438385176E+04  0.32438385176E+04  0.00000000000E+00 0.  1.
        -13    1    1    2    0    0  0.18518417075E+03 -0.26420913510E+03 -0.41582325625E+03  0.52631609872E+03  0.10566000000E+00 0.  1.
         13    1    1    2    0    0 -0.20633487718E+03 -0.44687494907E+03 -0.21412464671E+04  0.21970907459E+04  0.10566000000E+00 0. -1.
          4    1    1    2  501    0  0.21150706430E+02  0.71108408417E+03 -0.39398801895E+03  0.81321244839E+03  0.00000000000E+00 0.  1.
</event>
<event>
 5    1  0.4866530E-005  0.4808666E+03  0.7818608E-02  0.9605691E-01
          4   -1    0    0  502    0 -0.00000000000E+00  0.00000000000E+00  0.11465957050E+04  0.11465957050E+04  0.00000000000E+00 0.  1.
         21   -1    0    0  501  502  0.00000000000E+00 -0.00000000000E+00 -0.47994589594E+03  0.47994589594E+03  0.00000000000E+00 0.  1.
        -13    1    1    2    0    0 -0.48447751880E+02  0.46980195099E+03  0.14577962608E+03  0.49428005054E+03  0.10566000000E+00 0.  1.
         13    1    1    2    0    0 -0.34404397057E+03 -0.86888886452E+02  0.45940695000E+03  0.58049176493E+03  0.10566000000E+00 0. -1.
          4    1    1    2  501    0  0.39249172245E+03 -0.38291306454E+03  0.61463233007E+02  0.55176978551E+03  0.00000000000E+00 0.  1.
</event>
<event>
 5    1  0.4866530E-005  0.4247469E+03  0.7818608E-02  0.9660180E-01
         21   -1    0    0  501  502  0.00000000000E+00  0.00000000000E+00  0.64188697261E+03  0.64188697261E+03  0.00000000000E+00 0. -1.
          4   -1    0    0  502    0 -0.00000000000E+00 -0.00000000000E+00 -0.51085367918E+03  0.51085367918E+03  0.00000000000E+00 0.  1.
        -13    1    1    2    0    0  0.17477100152E+02  0.41882766472E+03 -0.70669372187E+02  0.42510731951E+03  0.10566000000E+00 0.  1.
         13    1    1    2    0    0 -0.10732690946E+02 -0.43016324893E+03 -0.86686979363E+02  0.43894220000E+03  0.10566000000E+00 0. -1.
          4    1    1    2  501    0 -0.67444092060E+01  0.11335584204E+02  0.28838964499E+03  0.28869113229E+03  0.00000000000E+00 0.  1.
</event>
<event>
 5    1  0.4866530E-005  0.1738060E+02  0.7818608E-02  0.1576198E+00
          4   -1    0    0  502    0 -0.00000000000E+00  0.00000000000E+00  0.73127522736E+01  0.73127522736E+01  0.00000000000E+00 0.  1.
         21   -1    0    0  501  502  0.00000000000E+00 -0.00000000000E+00 -0.14447887054E+03  0.14447887054E+03  0.00000000000E+00 0.  1.
        -13    1    1    2    0    0 -0.22378717353E+02 -0.93745327058E+01 -0.22189565336E+02  0.32879732779E+02  0.10566000000E+00 0.  1.
         13    1    1    2    0    0  0.11910738860E+02 -0.27235551377E+01 -0.72501126671E+02  0.73523519947E+02  0.10566000000E+00 0. -1.
          4    1    1    2  501    0  0.10467978493E+02  0.12098087844E+02 -0.42475426255E+02  0.45388370083E+02  0.00000000000E+00 0.  1.
</event>
<event>
 5    1  0.4866530E-005  0.2857950E+03  0.7818608E-02  0.1024706E+00
          4   -1    0    0  502    0 -0.00000000000E+00  0.00000000000E+00  0.46136413195E+03  0.46136413195E+03  0.00000000000E+00 0.  1.
         21   -1    0    0  501  502  0.00000000000E+00 -0.00000000000E+00 -0.38401589588E+03  0.38401589588E+03  0.00000000000E+00 0.  1.
        -13    1    1    2    0    0  0.23391279386E+03  0.11865918836E+03  0.15159810624E+03  0.30294751211E+03  0.10566000000E+00 0.  1.
         13    1    1    2    0    0  0.77202372151E+02 -0.18412757838E+03  0.41798630285E+02  0.20398604865E+03  0.10566000000E+00 0. -1.
          4    1    1    2  501    0 -0.31111516601E+03  0.65468390013E+02 -0.11604850046E+03  0.33844646707E+03  0.00000000000E+00 0.  1.
</event>
<event>
 5    1  0.4866530E-005  0.4712900E+03  0.7818608E-02  0.9799380E-01
         21   -1    0    0  501  502  0.00000000000E+00  0.00000000000E+00  0.13319217523E+03  0.13319217523E+03  0.00000000000E+00 0.  1.
          4   -1    0    0  502    0 -0.00000000000E+00 -0.00000000000E+00 -0.28377465373E+04  0.28377465373E+04  0.00000000000E+00 0.  1.
        -13    1    1    2    0    0  0.50702834810E+02  0.60020110682E+03 -0.15236199797E+04  0.16383619868E+04  0.10566000000E+00 0.  1.
         13    1    1    2    0    0  0.14601611125E+01 -0.19201345189E+03 -0.51643117493E+03  0.55097410772E+03  0.10566000000E+00 0. -1.
          4    1    1    2  501    0 -0.52162995923E+02 -0.40818765493E+03 -0.66450320742E+03  0.78160261799E+03  0.00000000000E+00 0.  1.
</event>
<event>
 5    1  0.4866530E-005  0.4595233E+03  0.7818608E-02  0.9774101E-01
          4   -1    0    0  502    0 -0.00000000000E+00  0.00000000000E+00  0.17881861632E+04  0.17881861632E+04  0.00000000000E+00 0.  1.
         21   -1    0    0  501  502  0.00000000000E+00 -0.00000000000E+00 -0.23937389920E+03  0.23937389920E+03  0.00000000000E+00 0.  1.
        -13    1    1    2    0    0  0.35895851865E+03  0.47255720213E+03  0.83792827800E+03  0.10267839781E+04  0.10566000000E+00 0.  1.
         13    1    1    2    0    0 -0.28238460920E+02 -0.22410193325E+03  0.47160471539E+03  0.52290544643E+03  0.10566000000E+00 0. -1.
          4    1    1    2  501    0 -0.33072005773E+03 -0.24845526888E+03  0.23927927061E+03  0.47787063790E+03  0.00000000000E+00 0.  1.
</event>
<event>
 5    1  0.4866530E-005  0.5763326E+02  0.7818608E-02  0.1319439E+00
         21   -1    0    0  501  502  0.00000000000E+00  0.00000000000E+00  0.58712564242E+02  0.58712564242E+02  0.00000000000E+00 0. -1.
         -4   -1    0    0    0  501 -0.00000000000E+00 -0.00000000000E+00 -0.12120973444E+03  0.12120973444E+03  0.00000000000E+00 0. -1.
        -13    1    1    2    0    0  0.19104351764E+02  0.17291940046E+01 -0.32910442472E+02  0.38092975153E+02  0.10566000000E+00 0.  1.
         13    1    1    2    0    0 -0.55777037991E+02  0.39140700762E+02 -0.48625845611E+02  0.83711148890E+02  0.10566000000E+00 0. -1.
         -4    1    1    2    0  502  0.36672686227E+02 -0.40869894766E+02  0.19039117886E+02  0.58118174637E+02  0.00000000000E+00 0. -1.
</event>
<event>
 5    1  0.4866530E-005  0.4139266E+03  0.7818608E-02  0.9744015E-01
         21   -1    0    0  501  502  0.00000000000E+00  0.00000000000E+00  0.26241799449E+03  0.26241799449E+03  0.00000000000E+00 0. -1.
         -4   -1    0    0    0  501 -0.00000000000E+00 -0.00000000000E+00 -0.18385454868E+04  0.18385454868E+04  0.00000000000E+00 0. -1.
        -13    1    1    2    0    0 -0.13319635639E+03 -0.31582371598E+03 -0.36838162270E+03  0.50318080253E+03  0.10566000000E+00 0.  1.
         13    1    1    2    0    0 -0.19823287782E+03 -0.39749083418E+02 -0.10750721947E+04  0.10939179579E+04  0.10566000000E+00 0. -1.
         -4    1    1    2    0  502  0.33142923421E+03  0.35557279940E+03 -0.13267367487E+03  0.50386472090E+03  0.00000000000E+00 0. -1.
</event>
<event>
 5    1  0.4866530E-005  0.2200051E+03  0.7818608E-02  0.1069627E+00
         -4   -1    0    0    0  501 -0.00000000000E+00  0.00000000000E+00  0.15016364372E+04  0.15016364372E+04  0.00000000000E+00 0. -1.
         21   -1    0    0  501  502  0.00000000000E+00 -0.00000000000E+00 -0.61479602279E+02  0.61479602279E+02  0.00000000000E+00 0.  1.
        -13    1    1    2    0    0 -0.33973971845E+02  0.10902476988E+03  0.11645565507E+03  0.16310291834E+03  0.10566000000E+00 0.  1.
         13    1    1    2    0    0  0.23537478891E+03 -0.61376480261E+02  0.60385482606E+03  0.65100616411E+03  0.10566000000E+00 0. -1.
         -4    1    1    2    0  502 -0.20140081707E+03 -0.47648289616E+02  0.71984635382E+03  0.74900695706E+03  0.00000000000E+00 0. -1.
</event>
<event>
 5    1  0.4866530E-005  0.3723391E+03  0.7818608E-02  0.9812517E-01
         -4   -1    0    0    0  501 -0.00000000000E+00  0.00000000000E+00  0.11255786226E+04  0.11255786226E+04  0.00000000000E+00 0. -1.
         21   -1    0    0  501  502  0.00000000000E+00 -0.00000000000E+00 -0.49048717407E+03  0.49048717407E+03  0.00000000000E+00 0. -1.
        -13    1    1    2    0    0 -0.17645988367E+03  0.32541463072E+03  0.79220877418E+03  0.87442982879E+03  0.10566000000E+00 0.  1.
         13    1    1    2    0    0  0.18676315900E+03 -0.32960420375E+03  0.16935763467E+03  0.41497159936E+03  0.10566000000E+00 0. -1.
         -4    1    1    2    0  502 -0.10303275335E+02  0.41895730347E+01 -0.32647496027E+03  0.32666436856E+03  0.00000000000E+00 0. -1.
</event>
<event>
 5    1  0.4866530E-005  0.9945564E+02  0.7818608E-02  0.1165459E+00
         -4   -1    0    0    0  501 -0.00000000000E+00  0.00000000000E+00  0.34073604073E+03  0.34073604073E+03  0.00000000000E+00 0. -1.
         21   -1    0    0  501  502  0.00000000000E+00 -0.00000000000E+00 -0.11323718939E+03  0.11323718939E+03  0.00000000000E+00 0. -1.
        -13    1    1    2    0    0 -0.40105716230E+02  0.79584895091E+02  0.62180929903E+00  0.89121388072E+02  0.10566000000E+00 0.  1.
         13    1    1    2    0    0  0.39886583179E+02 -0.93361862832E+02  0.28634392772E+03  0.30380953417E+03  0.10566000000E+00 0. -1.
         -4    1    1    2    0  502  0.21913305055E+00  0.13776967741E+02 -0.59466885671E+02  0.61042307876E+02  0.00000000000E+00 0. -1.
</event>
<event>
 5    1  0.4866530E-005  0.3302800E+03  0.7818608E-02  0.1003223E+00
          4   -1    0    0  502    0 -0.00000000000E+00  0.00000000000E+00  0.26416343832E+04  0.26416343832E+04  0.00000000000E+00 0.  1.
         21   -1    0    0  501  502  0.00000000000E+00 -0.00000000000E+00 -0.20527512496E+03  0.20527512496E+03  0.00000000000E+00 0.  1.
        -13    1    1    2    0    0  0.22658624655E+03 -0.11975083845E+03  0.12417958490E+03  0.28478442883E+03  0.10566000000E+00 0.  1.
         13    1    1    2    0    0  0.29819447664E+03 -0.22685604253E+03  0.39503600369E+03  0.54446034318E+03  0.10566000000E+00 0. -1.
          4    1    1    2  501    0 -0.52478072319E+03  0.34660688098E+03  0.19171436697E+04  0.20176647361E+04  0.00000000000E+00 0.  1.
</event>
<event>
 5    1  0.4866530E-005  0.2339207E+02  0.7818608E-02  0.1488556E+00
         21   -1    0    0  501  502  0.00000000000E+00  0.00000000000E+00  0.33546071904E+03  0.33546071904E+03  0.00000000000E+00 0. -1.
          4   -1    0    0  502    0 -0.00000000000E+00 -0.00000000000E+00 -0.63420631230E+02  0.63420631230E+02  0.00000000000E+00 0.  1.
        -13    1    1    2    0    0 -0.13140047236E+02 -0.14805876786E+02 -0.57225570570E+02  0.60552885314E+02  0.10566000000E+00 0.  1.
         13    1    1    2    0    0  0.33820844665E+02  0.32774408472E+02  0.25166348517E+03  0.25603228765E+03  0.10566000000E+00 0. -1.
          4    1    1    2  501    0 -0.20680797429E+02 -0.17968531686E+02  0.77602173203E+02  0.82296177305E+02  0.00000000000E+00 0.  1.
</event>
<event>
 5    1  0.4866530E-005  0.3963645E+03  0.7818608E-02  0.1011696E+00
         -4   -1    0    0    0  501 -0.00000000000E+00  0.00000000000E+00  0.70825001179E+03  0.70825001179E+03  0.00000000000E+00 0. -1.
         21   -1    0    0  501  502  0.00000000000E+00 -0.00000000000E+00 -0.48837206761E+03  0.48837206761E+03  0.00000000000E+00 0. -1.
        -13    1    1    2    0    0 -0.89902001438E+02 -0.68369457592E+02  0.15578528686E+03  0.19242094314E+03  0.10566000000E+00 0.  1.
         13    1    1    2    0    0  0.40368588121E+03 -0.76816930129E+02 -0.29489459346E+03  0.50579241182E+03  0.10566000000E+00 0. -1.
         -4    1    1    2    0  502 -0.31378387977E+03  0.14518638772E+03  0.35898725077E+03  0.49840872444E+03  0.00000000000E+00 0. -1.
</event>
<event>
 5    1  0.4866530E-005  0.4893603E+03  0.7818608E-02  0.9501602E-01
         21   -1    0    0  501  502  0.00000000000E+00  0.00000000000E+00  0.51921040358E+03  0.51921040358E+03  0.00000000000E+00 0.  1.
         -4   -1    0    0    0  501 -0.00000000000E+00 -0.00000000000E+00 -0.97109347681E+03  0.97109347681E+03  0.00000000000E+00 0. -1.
        -13    1    1    2    0    0  0.46378581075E+03  0.48113873548E+02 -0.59726457539E+03  0.75771842215E+03  0.10566000000E+00 0.  1.
         13    1    1    2    0    0 -0.57860210394E+03 -0.93747877482E+02  0.76470961778E+02  0.59111494515E+03  0.10566000000E+00 0. -1.
         -4    1    1    2    0  502  0.11481629320E+03  0.45634003935E+02  0.68910540389E+02  0.14147051310E+03  0.00000000000E+00 0. -1.
</event>
<event>
 5    1  0.4866530E-005  0.4021942E+03  0.7818608E-02  0.1009004E+00
         21   -1    0    0  501  502  0.00000000000E+00  0.00000000000E+00  0.14088931686E+04  0.14088931686E+04  0.00000000000E+00 0. -1.
         -4   -1    0    0    0  501 -0.00000000000E+00 -0.00000000000E+00 -0.22257066021E+03  0.22257066021E+03  0.00000000000E+00 0. -1.
        -13    1    1    2    0    0  0.45720894691E+02 -0.10863854714E+03 -0.39152192929E+01  0.11793249867E+03  0.10566000000E+00 0.  1.
         13    1    1    2    0    0 -0.12299805387E+03  0.47363845279E+03  0.37345901956E+03  0.61557579198E+03  0.10566000000E+00 0. -1.
         -4    1    1    2    0  502  0.77277159180E+02 -0.36499990565E+03  0.81677870815E+03  0.89795553818E+03  0.00000000000E+00 0. -1.
</event>
<event>
 5    1  0.4866530E-005  0.4926931E+03  0.7818608E-02  0.1002568E+00
         -4   -1    0    0    0  501 -0.00000000000E+00  0.00000000000E+00  0.26202304550E+03  0.26202304550E+03  0.00000000000E+00 0. -1.
         21   -1    0    0  501  502  0.00000000000E+00 -0.00000000000E+00 -0.13426594829E+04  0.13426594829E+04  0.00000000000E+00 0. -1.
        -13    1    1    2    0    0 -0.24283994624E+01  0.78942771672E+02  0.47877799763E+02  0.92358828475E+02  0.10566000000E+00 0.  1.
         13    1    1    2    0    0  0.49355500382E+03 -0.21037206832E+02 -0.70723308683E+03  0.86268056437E+03  0.10566000000E+00 0. -1.
         -4    1    1    2    0  502 -0.49112660436E+03 -0.57905564840E+02 -0.42128115031E+03  0.64964313554E+03  0.00000000000E+00 0. -1.
</event>
<event>
 5    1  0.4866530E-005  0.7417284E+02  0.7818608E-02  0.1216186E+00
         21   -1    0    0  501  502  0.00000000000E+00  0.00000000000E+00  0.67946188355E+03  0.67946188355E+03  0.00000000000E+00 0.  1.
          4   -1    0    0  502    0 -0.00000000000E+00 -0.00000000000E+00 -0.15197870536E+02  0.15197870536E+02  0.00000000000E+00 0.  1.
        -13    1    1    2    0    0  0.82055819726E+02  0.61786612653E+01  0.13062515658E+03  0.15438353572E+03  0.10566000000E+00 0.  1.
         13    1    1    2    0    0 -0.54627857913E+02 -0.11822514840E+02  0.32582700462E+03  0.33058618062E+03  0.10566000000E+00 0. -1.
          4    1    1    2  501    0 -0.27427961813E+02  0.56438535749E+01  0.20781185183E+03  0.20969003775E+03  0.00000000000E+00 0.  1.
</event>
<event>
 5    1  0.4866530E-005  0.5748438E+03  0.7818608E-02  0.9404387E-01
         21   -1    0    0  501  502  0.00000000000E+00  0.00000000000E+00  0.49580445980E+03  0.49580445980E+03  0.00000000000E+00 0. -1.
          4   -1    0    0  502    0 -0.00000000000E+00 -0.00000000000E+00 -0.17658246482E+04  0.17658246482E+04  0.00000000000E+00 0.  1.
        -13    1    1    2    0    0 -0.48046738808E+03 -0.18916692913E+03 -0.51503332643E+03  0.72930952043E+03  0.10566000000E+00 0.  1.
         13    1    1    2    0    0  0.45970238338E+03 -0.47864914499E+03 -0.33838582760E+03  0.74494044377E+03  0.10566000000E+00 0. -1.
          4    1    1    2  501    0  0.20765004701E+02  0.66781607412E+03 -0.41660103440E+03  0.78737914383E+03  0.00000000000E+00 0.  1.
</event>
<event>
 5    1  0.4866530E-005  0.1698006E+03  0.7818608E-02  0.1092144E+00
          4   -1    0    0  502    0 -0.00000000000E+00  0.00000000000E+00  0.78496200885E+03  0.78496200885E+03  0.00000000000E+00 0.  1.
         21   -1    0    0  501  502  0.00000000000E+00 -0.00000000000E+00 -0.52193546088E+03  0.52193546088E+03  0.00000000000E+00 0.  1.
        -13    1    1    2    0    0 -0.88382055126E+02  0.14632439026E+03 -0.47464505130E+03  0.50448999073E+03  0.10566000000E+00 0.  1.
         13    1    1    2    0    0 -0.87011552266E+02 -0.99325302058E+02  0.26550718263E+03  0.29653094450E+03  0.10566000000E+00 0. -1.
          4    1    1    2  501    0  0.17539360739E+03 -0.46999088201E+02  0.47216441665E+03  0.50587653450E+03  0.00000000000E+00 0.  1.
</event>
<event>
 5    1  0.4866530E-005  0.4122086E+02  0.7818608E-02  0.1332337E+00
         21   -1    0    0  501  502  0.00000000000E+00  0.00000000000E+00  0.10013067144E+03  0.10013067144E+03  0.00000000000E+00 0.  1.
         -4   -1    0    0    0  501 -0.00000000000E+00 -0.00000000000E+00 -0.28083624614E+02  0.28083624614E+02  0.00000000000E+00 0. -1.
        -13    1    1    2    0    0  0.36271279432E+02  0.71171872252E+01  0.30498331771E+02  0.47920971093E+02  0.10566000000E+00 0.  1.
         13    1    1    2    0    0 -0.41074709027E+02 -0.16937748168E+02  0.81766064665E+01  0.45176178369E+02  0.10566000000E+00 0. -1.
         -4    1    1    2    0  502  0.48034295951E+01  0.98205609432E+01  0.33372108592E+02  0.35117146595E+02  0.00000000000E+00 0. -1.
</event>
<event>
 5    1  0.4866530E-005  0.4240070E+03  0.7818608E-02  0.1013885E+00
         -4   -1    0    0    0  501 -0.00000000000E+00  0.00000000000E+00  0.10360078595E+04  0.10360078595E+04  0.00000000000E+00 0. -1.
         21   -1    0    0  501  502  0.00000000000E+00 -0.00000000000E+00 -0.28656454950E+03  0.28656454950E+03  0.00000000000E+00 0. -1.
        -13    1    1    2    0    0  0.59696411892E+02 -0.61947280224E+02  0.76291761642E+02  0.11498509111E+03  0.10566000000E+00 0.  1.
         13    1    1    2    0    0 -0.80619811021E+02 -0.37521897922E+03  0.66740607375E+03  0.76988292275E+03  0.10566000000E+00 0. -1.
         -4    1    1    2    0  502  0.20923399130E+02  0.43716625945E+03  0.57454745941E+01  0.43770439512E+03  0.00000000000E+00 0. -1.
</event>
<event>
 5    1  0.4866530E-005  0.2945960E+03  0.7818608E-02  0.1009561E+00
          4   -1    0    0  502    0 -0.00000000000E+00  0.00000000000E+00  0.15166360929E+04  0.15166360929E+04  0.00000000000E+00 0.  1.
         21   -1    0    0  501  502  0.00000000000E+00 -0.00000000000E+00 -0.10339179547E+03  0.10339179547E+03  0.00000000000E+00 0. -1.
        -13    1    1    2    0    0  0.29788832249E+03  0.22836737604E+02  0.10260634062E+04  0.10686744565E+04  0.10566000000E+00 0.  1.
         13    1    1    2    0    0 -0.28598432224E+03 -0.10597684379E+02  0.42355402119E+03  0.51117253791E+03  0.10566000000E+00 0. -1.
          4    1    1    2  501    0 -0.11904000252E+02 -0.12239053226E+02 -0.36373130034E+02  0.40180893896E+02  0.00000000000E+00 0.  1.
</event>
<event>
 5    1  0.4866530E-005  0.2672248E+03  0.7818608E-02  0.1021834E+00
         21   -1    0    0  501  502  0.00000000000E+00  0.00000000000E+00  0.30638870666E+03  0.30638870666E+03  0.00000000000E+00 0.  1.
          4   -1    0    0  502    0 -0.00000000000E+00 -0.00000000000E+00 -0.16441809683E+04  0.16441809683E+04  0.00000000000E+00 0.  1.
        -13    1    1    2    0    0 -0.23414911964E+03 -0.15691535186E+03 -0.14495435272E+04  0.14766938364E+04  0.10566000000E+00 0.  1.
         13    1    1    2    0    0  0.20049274495E+03  0.54101186944E+02 -0.10420162084E+03  0.23234084479E+03  0.10566000000E+00 0. -1.
          4    1    1    2  501    0  0.33656374690E+02  0.10281416492E+03  0.21595288644E+03  0.24153499379E+03  0.00000000000E+00 0.  1.
</event>
<event>
 5    1  0.4866530E-005  0.3171468E+03  0.7818608E-02  0.1000468E+00
         21   -1    0    0  501  502  0.00000000000E+00  0.00000000000E+00  0.55294058430E+02  0.55294058430E+02  0.00000000000E+00 0.  1.
         -4   -1    0    0    0  501 -0.00000000000E+00 -0.00000000000E+00 -0.20769480006E+04  0.20769480006E+04  0.00000000000E+00 0. -1.
        -13    1    1    2    0    0  0.28933083803E+03  0.11458845231E+03 -0.74292656436E+03  0.80547050749E+03  0.10566000000E+00 0.  1.
         13    1    1    2    0    0 -0.30282678550E+03 -0.10661646697E+03 -0.12674055670E+04  0.13074356640E+04  0.10566000000E+00 0. -1.
         -4    1    1    2    0  502  0.13495947464E+02 -0.79719853342E+01 -0.11321810856E+02  0.19335887597E+02  0.00000000000E+00 0. -1.
</event>
<event>
 5    1  0.4866530E-005  0.5191737E+02  0.7818608E-02  0.1284173E+00
          4   -1    0    0  502    0 -0.00000000000E+00  0.00000000000E+00  0.50371521120E+02  0.50371521120E+02  0.00000000000E+00 0.  1.
         21   -1    0    0  501  502  0.00000000000E+00 -0.00000000000E+00 -0.76487056247E+02  0.76487056247E+02  0.00000000000E+00 0.  1.
        -13    1    1    2    0    0  0.16817760060E+02  0.55110371635E+02 -0.16589219091E+01  0.57643328331E+02  0.10566000000E+00 0.  1.
         13    1    1    2    0    0 -0.64134257311E+01 -0.46501621145E+02 -0.74982859621E+01  0.47537019839E+02  0.10566000000E+00 0. -1.
          4    1    1    2  501    0 -0.10404334328E+02 -0.86087504898E+01 -0.16958327255E+02  0.21678229197E+02  0.00000000000E+00 0.  1.
</event>
<event>
 5    1  0.4866530E-005  0.1405722E+03  0.7818608E-02  0.1110801E+00
         21   -1    0    0  501  502  0.00000000000E+00  0.00000000000E+00  0.12760778841E+03  0.12760778841E+03  0.00000000000E+00 0.  1.
         -4   -1    0    0    0  501 -0.00000000000E+00 -0.00000000000E+00 -0.81416963625E+03  0.81416963625E+03  0.00000000000E+00 0. -1.
        -13    1    1    2    0    0  0.67855518497E+02  0.12074568775E+03 -0.12616123408E+02  0.13907936667E+03  0.10566000000E+00 0.  1.
         13    1    1    2    0    0 -0.52732837053E+02 -0.13066240892E+03 -0.73016803999E+03  0.74363888749E+03  0.10566000000E+00 0. -1.
         -4    1    1    2    0  502 -0.15122681444E+02  0.99167211700E+01  0.56222315556E+02  0.59059170493E+02  0.00000000000E+00 0. -1.
</event>
<event>
 5    1  0.4866530E-005  0.1916226E+03  0.7818608E-02  0.1066036E+00
         -4   -1    0    0    0  501 -0.00000000000E+00  0.00000000000E+00  0.99438234988E+03  0.99438234988E+03  0.00000000000E+00 0. -1.
         21   -1    0    0  501  502  0.00000000000E+00 -0.00000000000E+00 -0.87052508693E+02  0.87052508693E+02  0.00000000000E+00 0. -1.
        -13    1    1    2    0    0 -0.12533449466E+02 -0.16988478430E+03  0.36171033226E+03  0.39981533603E+03  0.10566000000E+00 0.  1.
         13    1    1    2    0    0 -0.89688974205E+02  0.24999311115E+03  0.27987497681E+03  0.38583763622E+03  0.10566000000E+00 0. -1.
         -4    1    1    2    0  502  0.10222242367E+03 -0.80108326848E+02  0.26574453211E+03  0.29578188632E+03  0.00000000000E+00 0. -1.
</event>
<event>
 5    1  0.4866530E-005  0.4890798E+03  0.7818608E-02  0.9774737E-01
         21   -1    0    0  501  502  0.00000000000E+00  0.00000000000E+00  0.13647262770E+04  0.13647262770E+04  0.00000000000E+00 0. -1.
         -4   -1    0    0    0  501 -0.00000000000E+00 -0.00000000000E+00 -0.60632016315E+03  0.60632016315E+03  0.00000000000E+00 0. -1.
        -13    1    1    2    0    0  0.18679819978E+03  0.72665562541E+01 -0.38661232295E+03  0.42943622309E+03  0.10566000000E+00 0.  1.
         13    1    1    2    0    0 -0.32042294386E+03  0.44079318630E+03  0.46509213473E+03  0.71643576194E+03  0.10566000000E+00 0. -1.
         -4    1    1    2    0  502  0.13362474408E+03 -0.44805974256E+03  0.67992630206E+03  0.82517445511E+03  0.00000000000E+00 0. -1.
</event>
<event>
 5    1  0.4866530E-005  0.1360098E+03  0.7818608E-02  0.1115792E+00
         21   -1    0    0  501  502  0.00000000000E+00  0.00000000000E+00  0.55981581284E+03  0.55981581284E+03  0.00000000000E+00 0.  1.
         -4   -1    0    0    0  501 -0.00000000000E+00 -0.00000000000E+00 -0.59345859374E+02  0.59345859374E+02  0.00000000000E+00 0. -1.
        -13    1    1    2    0    0  0.95390459103E+01 -0.10960563275E+03  0.25428790441E+03  0.27706811008E+03  0.10566000000E+00 0.  1.
         13    1    1    2    0    0 -0.46830135821E+02  0.14181479023E+03  0.81374609784E+02  0.17007743716E+03  0.10566000000E+00 0. -1.
         -4    1    1    2    0  502  0.37291089911E+02 -0.32209157488E+02  0.16480743927E+03  0.17201612498E+03  0.00000000000E+00 0. -1.
</event>
<event>
 5    1  0.4866530E-005  0.4465247E+03  0.7818608E-02  0.9694487E-01
          4   -1    0    0  502    0 -0.00000000000E+00  0.00000000000E+00  0.22010292332E+03  0.22010292332E+03  0.00000000000E+00 0.  1.
         21   -1    0    0  501  502  0.00000000000E+00 -0.00000000000E+00 -0.21606290967E+04  0.21606290967E+04  0.00000000000E+00 0.  1.
        -13    1    1    2    0    0 -0.27644401607E+03 -0.59599722489E+03 -0.80593957905E+03  0.10397945001E+04  0.10566000000E+00 0.  1.
         13    1    1    2    0    0  0.23456539356E+03  0.22383737024E+03 -0.38762319345E+03  0.50534725035E+03  0.10566000000E+00 0. -1.
          4    1    1    2  501    0  0.41878622512E+02  0.37215985465E+03 -0.74696340092E+03  0.83559026966E+03  0.00000000000E+00 0.  1.
</event>
<event>
 5    1  0.4866530E-005  0.4853576E+03  0.7818608E-02  0.9741585E-01
         -4   -1    0    0    0  501 -0.00000000000E+00  0.00000000000E+00  0.18816085698E+04  0.18816085698E+04  0.00000000000E+00 0. -1.
         21   -1    0    0  501  502  0.00000000000E+00 -0.00000000000E+00 -0.26446351159E+03  0.26446351159E+03  0.00000000000E+00 0. -1.
        -13    1    1    2    0    0 -0.14011780629E+03 -0.16227606193E+03  0.83978496577E+03  0.86672101614E+03  0.10566000000E+00 0.  1.
         13    1    1    2    0    0  0.51056961983E+03 -0.10407617856E+03  0.23788556148E+03  0.57280253068E+03  0.10566000000E+00 0. -1.
         -4    1    1    2    0  502 -0.37045181354E+03  0.26635224049E+03  0.53947453099E+03  0.70654853461E+03  0.00000000000E+00 0. -1.
</event>
<event>
 5    1  0.4866530E-005  0.5839800E+02  0.7818608E-02  0.1294933E+00
          4   -1    0    0  502    0 -0.00000000000E+00  0.00000000000E+00  0.10131655441E+03  0.10131655441E+03  0.00000000000E+00 0.  1.
         21   -1    0    0  501  502  0.00000000000E+00 -0.00000000000E+00 -0.20643145915E+03  0.20643145915E+03  0.00000000000E+00 0.  1.
        -13    1    1    2    0    0  0.84589535831E+02  0.43527835991E+01  0.71271256858E+02  0.11069751359E+03  0.10566000000E+00 0.  1.
         13    1    1    2    0    0 -0.28033962489E+02 -0.92045582057E+01 -0.43659612328E+02  0.52695349484E+02  0.10566000000E+00 0. -1.
          4    1    1    2  501    0 -0.56555573343E+02  0.48517746066E+01 -0.13272654926E+03  0.14435515049E+03  0.00000000000E+00 0.  1.
</event>
<event>
 5    1  0.4866530E-005  0.5291159E+03  0.7818608E-02  0.9446117E-01
         21   -1    0    0  501  502  0.00000000000E+00  0.00000000000E+00  0.67260294307E+03  0.67260294307E+03  0.00000000000E+00 0.  1.
         -4   -1    0    0    0  501 -0.00000000000E+00 -0.00000000000E+00 -0.12151380220E+04  0.12151380220E+04  0.00000000000E+00 0. -1.
        -13    1    1    2    0    0  0.12865787659E+03  0.54395177585E+03 -0.48168060633E+03  0.73787031472E+03  0.10566000000E+00 0.  1.
         13    1    1    2    0    0  0.41925503628E+03 -0.11614667757E+03 -0.12259627626E+03  0.45198970594E+03  0.10566000000E+00 0. -1.
         -4    1    1    2    0  502 -0.54791291287E+03 -0.42780509829E+03  0.61741803701E+02  0.69788094438E+03  0.00000000000E+00 0. -1.
</event>
<event>
 5    1  0.4866530E-005  0.4803518E+03  0.7818608E-02  0.1054367E+00
         21   -1    0    0  501  502  0.00000000000E+00  0.00000000000E+00  0.24143782968E+04  0.24143782968E+04  0.00000000000E+00 0.  1.
          4   -1    0    0  502    0 -0.00000000000E+00 -0.00000000000E+00 -0.13277924236E+03  0.13277924236E+03  0.00000000000E+00 0.  1.
        -13    1    1    2    0    0  0.35989044600E+03  0.33302156359E+03  0.78676619927E+03  0.92705207967E+03  0.10566000000E+00 0.  1.
         13    1    1    2    0    0 -0.16480409641E+02 -0.45518228227E+01 -0.23546815377E+02  0.29099599162E+02  0.10566000000E+00 0. -1.
          4    1    1    2  501    0 -0.34341003636E+03 -0.32846974077E+03  0.15183796705E+04  0.15910058603E+04  0.00000000000E+00 0.  1.
</event>
<event>
 5    1  0.4866530E-005  0.4071917E+03  0.7818608E-02  0.1028942E+00
         21   -1    0    0  501  502  0.00000000000E+00  0.00000000000E+00  0.60598930917E+03  0.60598930917E+03  0.00000000000E+00 0. -1.
         -4   -1    0    0    0  501 -0.00000000000E+00 -0.00000000000E+00 -0.63890882756E+03  0.63890882756E+03  0.00000000000E+00 0. -1.
        -13    1    1    2    0    0 -0.18360849598E+02  0.57660452976E+02 -0.18086117751E+03  0.19071608566E+03  0.10566000000E+00 0.  1.
         13    1    1    2    0    0  0.11674961193E+03 -0.44106547247E+03 -0.22643449789E+03  0.50935431272E+03  0.10566000000E+00 0. -1.
         -4    1    1    2    0  502 -0.98388762329E+02  0.38340501949E+03  0.37437615702E+03  0.54482773835E+03  0.00000000000E+00 0. -1.
</event>
<event>
 5    1  0.4866530E-005  0.1824689E+03  0.7818608E-02  0.1074816E+00
          4   -1    0    0  502    0 -0.00000000000E+00  0.00000000000E+00  0.11281021243E+04  0.11281021243E+04  0.00000000000E+00 0.  1.
         21   -1    0    0  501  502  0.00000000000E+00 -0.00000000000E+00 -0.79471304347E+02  0.79471304347E+02  0.00000000000E+00 0.  1.
        -13    1    1    2    0    0  0.51709584117E+02  0.19045347759E+03  0.29813268174E+03  0.35753253740E+03  0.10566000000E+00 0.  1.
         13    1    1    2    0    0 -0.17114197546E+03 -0.22702551347E+02  0.47983904765E+03  0.50995147261E+03  0.10566000000E+00 0. -1.
          4    1    1    2  501    0  0.11943239135E+03 -0.16775092624E+03  0.27065909053E+03  0.34008941860E+03  0.00000000000E+00 0.  1.
</event>
<event>
 5    1  0.4866530E-005  0.5840477E+02  0.7818608E-02  0.1285830E+00
         21   -1    0    0  501  502  0.00000000000E+00  0.00000000000E+00  0.78143874496E+03  0.78143874496E+03  0.00000000000E+00 0.  1.
         -4   -1    0    0    0  501 -0.00000000000E+00 -0.00000000000E+00 -0.43637255483E+02  0.43637255483E+02  0.00000000000E+00 0. -1.
        -13    1    1    2    0    0  0.82689858545E+02 -0.43745602128E+02  0.41815751012E+03  0.42849387959E+03  0.10566000000E+00 0.  1.
         13    1    1    2    0    0 -0.75535136837E+01  0.44284302702E+02 -0.19674909760E+02  0.49043534465E+02  0.10566000000E+00 0. -1.
         -4    1    1    2    0  502 -0.75136344861E+02 -0.53870057382E+00  0.33931888912E+03  0.34753858639E+03  0.00000000000E+00 0. -1.
</event>
<event>
 5    1  0.4866530E-005  0.1436896E+03  0.7818608E-02  0.1107507E+00
         -4   -1    0    0    0  501 -0.00000000000E+00  0.00000000000E+00  0.20226138968E+03  0.20226138968E+03  0.00000000000E+00 0. -1.
         21   -1    0    0  501  502  0.00000000000E+00 -0.00000000000E+00 -0.23155628614E+03  0.23155628614E+03  0.00000000000E+00 0. -1.
        -13    1    1    2    0    0 -0.12237527244E+03  0.49291475676E+02  0.41573971878E+02  0.13832484658E+03  0.10566000000E+00 0.  1.
         13    1    1    2    0    0  0.15391788323E+03 -0.37275240678E+02  0.53083338382E+02  0.16702697484E+03  0.10566000000E+00 0. -1.
         -4    1    1    2    0  502 -0.31542610794E+02 -0.12016234997E+02 -0.12395220671E+03  0.12846585441E+03  0.00000000000E+00 0. -1.
</event>
<event>
 5    1  0.4866530E-005  0.3495894E+03  0.7818608E-02  0.1000400E+00
         21   -1    0    0  501  502  0.00000000000E+00  0.00000000000E+00  0.26562664752E+03  0.26562664752E+03  0.00000000000E+00 0. -1.
         -4   -1    0    0    0  501 -0.00000000000E+00 -0.00000000000E+00 -0.24723879897E+04  0.24723879897E+04  0.00000000000E+00 0. -1.
        -13    1    1    2    0    0  0.26479046830E+03 -0.33153498342E+03 -0.10989515817E+04  0.11780169894E+04  0.10566000000E+00 0.  1.
         13    1    1    2    0    0  0.26454525590E+03  0.30220433942E+02  0.31471976902E+02  0.26811930840E+03  0.10566000000E+00 0. -1.
         -4    1    1    2    0  502 -0.52933572419E+03  0.30131454948E+03 -0.11392817374E+04  0.12918783394E+04  0.00000000000E+00 0. -1.
</event>
<event>
 5    1  0.4866530E-005  0.4772661E+03  0.7818608E-02  0.9787631E-01
         -4   -1    0    0    0  501 -0.00000000000E+00  0.00000000000E+00  0.30983208145E+04  0.30983208145E+04  0.00000000000E+00 0. -1.
         21   -1    0    0  501  502  0.00000000000E+00 -0.00000000000E+00 -0.13699380445E+03  0.13699380445E+03  0.00000000000E+00 0. -1.
        -13    1    1    2    0    0  0.18932566316E+03  0.34662687691E+02  0.10723707593E+04  0.10895066614E+04  0.10566000000E+00 0.  1.
         13    1    1    2    0    0 -0.53038269085E+03  0.10023607795E+03  0.60636667789E+03  0.81180886254E+03  0.10566000000E+00 0. -1.
         -4    1    1    2    0  502  0.34105702769E+03 -0.13489876565E+03  0.12825895729E+04  0.13339990950E+04  0.00000000000E+00 0. -1.
</event>
<event>
 5    1  0.4866530E-005  0.5182981E+03  0.7818608E-02  0.9463973E-01
          4   -1    0    0  502    0 -0.00000000000E+00  0.00000000000E+00  0.13331547170E+04  0.13331547170E+04  0.00000000000E+00 0.  1.
         21   -1    0    0  501  502  0.00000000000E+00 -0.00000000000E+00 -0.53428104575E+03  0.53428104575E+03  0.00000000000E+00 0. -1.
        -13    1    1    2    0    0  0.20639770205E+03  0.39026988191E+03  0.23158397932E+03  0.49853961004E+03  0.10566000000E+00 0.  1.
         13    1    1    2    0    0 -0.48768138757E+03  0.23845873907E+03  0.35305070352E+03  0.64756506734E+03  0.10566000000E+00 0. -1.
          4    1    1    2  501    0  0.28128368552E+03 -0.62872862098E+03  0.21423898843E+03  0.72133108539E+03  0.00000000000E+00 0.  1.
</event>
<event>
 5    1  0.4866530E-005  0.5858582E+02  0.7818608E-02  0.1260306E+00
         21   -1    0    0  501  502  0.00000000000E+00  0.00000000000E+00  0.84088650124E+02  0.84088650124E+02  0.00000000000E+00 0.  1.
         -4   -1    0    0    0  501 -0.00000000000E+00 -0.00000000000E+00 -0.79893662063E+02  0.79893662063E+02  0.00000000000E+00 0. -1.
        -13    1    1    2    0    0 -0.13256014088E+02 -0.59077990304E+02  0.99573279669E+01  0.61360332399E+02  0.10566000000E+00 0.  1.
         13    1    1    2    0    0 -0.92527947025E+01  0.58301037035E+02 -0.32721321615E+02  0.67493119512E+02  0.10566000000E+00 0. -1.
         -4    1    1    2    0  502  0.22508808790E+02  0.77695326844E+00  0.26958981709E+02  0.35128860277E+02  0.00000000000E+00 0. -1.
</event>
<event>
 5    1  0.4866530E-005  0.4083569E+03  0.7818608E-02  0.9994259E-01
         21   -1    0    0  501  502  0.00000000000E+00  0.00000000000E+00  0.90078653349E+03  0.90078653349E+03  0.00000000000E+00 0. -1.
         -4   -1    0    0    0  501 -0.00000000000E+00 -0.00000000000E+00 -0.36337335259E+03  0.36337335259E+03  0.00000000000E+00 0. -1.
        -13    1    1    2    0    0  0.13782817427E+03 -0.68090963770E+02  0.73421841614E+02  0.17036361982E+03  0.10566000000E+00 0.  1.
         13    1    1    2    0    0  0.20151737597E+03  0.35101776985E+03  0.50829939723E+03  0.64976227650E+03  0.10566000000E+00 0. -1.
         -4    1    1    2    0  502 -0.33934555024E+03 -0.28292680608E+03 -0.44308057945E+02  0.44403398976E+03  0.00000000000E+00 0. -1.
</event>
<event>
 5    1  0.4866530E-005  0.4985051E+03  0.7818608E-02  0.9481255E-01
          4   -1    0    0  502    0 -0.00000000000E+00  0.00000000000E+00  0.10936053906E+04  0.10936053906E+04  0.00000000000E+00 0.  1.
         21   -1    0    0  501  502  0.00000000000E+00 -0.00000000000E+00 -0.81137573335E+03  0.81137573335E+03  0.00000000000E+00 0.  1.
        -13    1    1    2    0    0  0.37250567423E+03 -0.34169035925E+03  0.27204215005E+03  0.57403808367E+03  0.10566000000E+00 0.  1.
         13    1    1    2    0    0 -0.51111357809E+03  0.11112331779E+03  0.53062698482E+03  0.74508421648E+03  0.10566000000E+00 0. -1.
          4    1    1    2  501    0  0.13860790385E+03  0.23056704146E+03 -0.52043947759E+03  0.58585882382E+03  0.00000000000E+00 0.  1.
</event>
<event>
 5    1  0.4866530E-005  0.3634913E+03  0.7818608E-02  0.9929134E-01
         21   -1    0    0  501  502  0.00000000000E+00  0.00000000000E+00  0.32531107145E+03  0.32531107145E+03  0.00000000000E+00 0. -1.
         -4   -1    0    0    0  501 -0.00000000000E+00 -0.00000000000E+00 -0.23367959913E+04  0.23367959913E+04  0.00000000000E+00 0. -1.
        -13    1    1    2    0    0 -0.25194944505E+03 -0.33794656585E+03 -0.13274845713E+04  0.13928035405E+04  0.10566000000E+00 0.  1.
         13    1    1    2    0    0 -0.28260755773E+03  0.46524005889E+01  0.65593712313E+02  0.29015723803E+03  0.10566000000E+00 0. -1.
         -4    1    1    2    0  502  0.53455700278E+03  0.33329416526E+03 -0.74959406084E+03  0.97914628421E+03  0.00000000000E+00 0. -1.
</event>
<event>
 5    1  0.4866530E-005  0.5004973E+02  0.7818608E-02  0.1323592E+00
         21   -1    0    0  501  502  0.00000000000E+00  0.00000000000E+00  0.11393761293E+03  0.11393761293E+03  0.00000000000E+00 0. -1.
         -4   -1    0    0    0  501 -0.00000000000E+00 -0.00000000000E+00 -0.44897291477E+02  0.44897291477E+02  0.00000000000E+00 0. -1.
        -13    1    1    2    0    0 -0.19731778744E+02  0.18566563262E+02  0.75649593562E+01  0.28130057552E+02  0.10566000000E+00 0.  1.
         13    1    1    2    0    0  0.20966765138E+02 -0.52675996984E+02  0.74977013685E+02  0.93999625764E+02  0.10566000000E+00 0. -1.
         -4    1    1    2    0  502 -0.12349863943E+01  0.34109433721E+02 -0.13501651584E+02  0.36705221096E+02  0.00000000000E+00 0. -1.
</event>
<event>
 5    1  0.4866530E-005  0.2279353E+03  0.7818608E-02  0.1065624E+00
         -4   -1    0    0    0  501 -0.00000000000E+00  0.00000000000E+00  0.62071414966E+03  0.62071414966E+03  0.00000000000E+00 0. -1.
         21   -1    0    0  501  502  0.00000000000E+00 -0.00000000000E+00 -0.50211321950E+03  0.50211321950E+03  0.00000000000E+00 0. -1.
        -13    1    1    2    0    0  0.80288393973E+02  0.82633796140E+02 -0.10204306595E+02  0.11566637155E+03  0.10566000000E+00 0.  1.
         13    1    1    2    0    0  0.19212807447E+03  0.11069211780E+03 -0.35540691213E+03  0.41890336152E+03  0.10566000000E+00 0. -1.
         -4    1    1    2    0  502 -0.27241646845E+03 -0.19332591394E+03  0.48421214888E+03  0.58825763608E+03  0.00000000000E+00 0. -1.
</event>
<event>
 5    1  0.4866530E-005  0.1317707E+03  0.7818608E-02  0.1120624E+00
          4   -1    0    0  502    0 -0.00000000000E+00  0.00000000000E+00  0.70557589146E+02  0.70557589146E+02  0.00000000000E+00 0.  1.
         21   -1    0    0  501  502  0.00000000000E+00 -0.00000000000E+00 -0.63441316963E+03  0.63441316963E+03  0.00000000000E+00 0.  1.
        -13    1    1    2    0    0  0.10331432570E+03  0.72277854372E+02 -0.72578186228E+02  0.14548382181E+03  0.10566000000E+00 0.  1.
         13    1    1    2    0    0 -0.11342307261E+03 -0.80699419889E+02 -0.10852231855E+03  0.17650579186E+03  0.10566000000E+00 0. -1.
          4    1    1    2  501    0  0.10108746909E+02  0.84215655169E+01 -0.38275507571E+03  0.38298114511E+03  0.00000000000E+00 0.  1.
</event>
<event>
 5    1  0.4866530E-005  0.4442631E+03  0.7818608E-02  0.9891508E-01
         -4   -1    0    0    0  501 -0.00000000000E+00  0.00000000000E+00  0.18491066606E+04  0.18491066606E+04  0.00000000000E+00 0. -1.
         21   -1    0    0  501  502  0.00000000000E+00 -0.00000000000E+00 -0.22745237006E+03  0.22745237006E+03  0.00000000000E+00 0. -1.
        -13    1    1    2    0    0 -0.14939091260E+03 -0.76540079308E+02  0.37798185737E+02  0.17206028745E+03  0.10566000000E+00 0.  1.
         13    1    1    2    0    0  0.29834104282E+03  0.46255511419E+03  0.12732509470E+04  0.13871310669E+04  0.10566000000E+00 0. -1.
         -4    1    1    2    0  502 -0.14895013022E+03 -0.38601503489E+03  0.31060515779E+03  0.51736767632E+03  0.00000000000E+00 0. -1.
</event>
<event>
 5    1  0.4866530E-005  0.5037852E+03  0.7818608E-02  0.9785020E-01
         -4   -1    0    0    0  501 -0.00000000000E+00  0.00000000000E+00  0.62458217112E+03  0.62458217112E+03  0.00000000000E+00 0. -1.
         21   -1    0    0  501  502  0.00000000000E+00 -0.00000000000E+00 -0.69827907520E+03  0.69827907520E+03  0.00000000000E+00 0. -1.
        -13    1    1    2    0    0  0.14199006752E+01 -0.16511272850E+03  0.20557737791E+03  0.26367840015E+03  0.10566000000E+00 0.  1.
         13    1    1    2    0    0  0.25149024218E+03 -0.35664934538E+03 -0.65937559230E+02  0.44135458574E+03  0.10566000000E+00 0. -1.
         -4    1    1    2    0  502 -0.25291014285E+03  0.52176207389E+03 -0.21333672276E+03  0.61782826043E+03  0.00000000000E+00 0. -1.
</event>
<event>
 5    1  0.4866530E-005  0.7165709E+02  0.7818608E-02  0.1222445E+00
          4   -1    0    0  502    0 -0.00000000000E+00  0.00000000000E+00  0.22125761558E+03  0.22125761558E+03  0.00000000000E+00 0.  1.
         21   -1    0    0  501  502  0.00000000000E+00 -0.00000000000E+00 -0.10403300331E+03  0.10403300331E+03  0.00000000000E+00 0. -1.
        -13    1    1    2    0    0  0.33573115986E+00 -0.56400077225E+02  0.69321383330E+02  0.89367481654E+02  0.10566000000E+00 0.  1.
         13    1    1    2    0    0  0.38828270266E+02  0.11248355428E+03  0.95507846289E+02  0.15258422075E+03  0.10566000000E+00 0. -1.
          4    1    1    2  501    0 -0.39164001426E+02 -0.56083477059E+02 -0.47604617354E+02  0.83338916480E+02  0.00000000000E+00 0.  1.
</event>
<event>
 5    1  0.4866530E-005  0.4705798E+03  0.7818608E-02  0.9660181E-01
          4   -1    0    0  502    0 -0.00000000000E+00  0.00000000000E+00  0.17542741623E+04  0.17542741623E+04  0.00000000000E+00 0.  1.
         21   -1    0    0  501  502  0.00000000000E+00 -0.00000000000E+00 -0.62077768583E+03  0.62077768583E+03  0.00000000000E+00 0.  1.
        -13    1    1    2    0    0  0.39273946082E+03  0.51961533384E+03 -0.13517219878E+03  0.66521869617E+03  0.10566000000E+00 0.  1.
         13    1    1    2    0    0 -0.25336239290E+03 -0.18264775836E+03  0.13064128754E+04  0.13432301806E+04  0.10566000000E+00 0. -1.
          4    1    1    2  501    0 -0.13937706792E+03 -0.33696757548E+03 -0.37744200172E+02  0.36660297139E+03  0.00000000000E+00 0.  1.
</event>
<event>
 5    1  0.4866530E-005  0.3218788E+03  0.7818608E-02  0.9986623E-01
         -4   -1    0    0    0  501 -0.00000000000E+00  0.00000000000E+00  0.22706931488E+04  0.22706931488E+04  0.00000000000E+00 0. -1.
         21   -1    0    0  501  502  0.00000000000E+00 -0.00000000000E+00 -0.73644620085E+02  0.73644620085E+02  0.00000000000E+00 0.  1.
        -13    1    1    2    0    0 -0.34627737754E+03 -0.47374188740E+02  0.62585707002E+03  0.71683290885E+03  0.10566000000E+00 0.  1.
         13    1    1    2    0    0  0.29310793798E+03  0.11245133221E+03  0.14222979276E+04  0.14565332030E+04  0.10566000000E+00 0. -1.
         -4    1    1    2    0  502  0.53169439562E+02 -0.65077143475E+02  0.14889353109E+03  0.17097165702E+03  0.00000000000E+00 0. -1.
</event>
<event>
 5    1  0.4866530E-005  0.2351031E+03  0.7818608E-02  0.1038415E+00
          4   -1    0    0  502    0 -0.00000000000E+00  0.00000000000E+00  0.16687550357E+04  0.16687550357E+04  0.00000000000E+00 0.  1.
         21   -1    0    0  501  502  0.00000000000E+00 -0.00000000000E+00 -0.55214813068E+02  0.55214813068E+02  0.00000000000E+00 0. -1.
        -13    1    1    2    0    0 -0.87330163633E+02 -0.23757125389E+03  0.10232325384E+04  0.10540737626E+04  0.10566000000E+00 0.  1.
         13    1    1    2    0    0  0.26961052020E+00  0.20592292149E+03  0.29034823486E+03  0.35595846799E+03  0.10566000000E+00 0. -1.
          4    1    1    2  501    0  0.87060553113E+02  0.31648332399E+02  0.29995944931E+03  0.31393761814E+03  0.00000000000E+00 0.  1.
</event>
<event>
 5    1  0.4866530E-005  0.3770607E+02  0.7818608E-02  0.1351922E+00
         21   -1    0    0  501  502  0.00000000000E+00  0.00000000000E+00  0.15310083353E+02  0.15310083353E+02  0.00000000000E+00 0.  1.
         -4   -1    0    0    0  501 -0.00000000000E+00 -0.00000000000E+00 -0.22516162104E+03  0.22516162104E+03  0.00000000000E+00 0. -1.
        -13    1    1    2    0    0 -0.77527405231E+01  0.31053056344E+02 -0.78131395371E+02  0.84432952102E+02  0.10566000000E+00 0.  1.
         13    1    1    2    0    0  0.15966892406E+02 -0.41244703875E+02 -0.13540104309E+03  0.14244128926E+03  0.10566000000E+00 0. -1.
         -4    1    1    2    0  502 -0.82141518829E+01  0.10191647531E+02  0.36809007724E+01  0.13597463037E+02  0.00000000000E+00 0. -1.
</event>
<event>
 5    1  0.4866530E-005  0.4833341E+03  0.7818608E-02  0.9520408E-01
         -4   -1    0    0    0  501 -0.00000000000E+00  0.00000000000E+00  0.24145483860E+04  0.24145483860E+04  0.00000000000E+00 0. -1.
         21   -1    0    0  501  502  0.00000000000E+00 -0.00000000000E+00 -0.41345994092E+03  0.41345994092E+03  0.00000000000E+00 0. -1.
        -13    1    1    2    0    0 -0.39131909817E+03  0.26823066614E+03  0.15621352791E+04  0.16325884259E+04  0.10566000000E+00 0.  1.
         13    1    1    2    0    0 -0.13807631683E+03 -0.45974743042E+03  0.41068232658E+03  0.63173788360E+03  0.10566000000E+00 0. -1.
         -4    1    1    2    0  502  0.52939541501E+03  0.19151676427E+03  0.28270839380E+02  0.56368201744E+03  0.00000000000E+00 0. -1.
</event>
<event>
 5    1  0.4866530E-005  0.4554498E+03  0.7818608E-02  0.9845790E-01
         21   -1    0    0  501  502  0.00000000000E+00  0.00000000000E+00  0.58170031450E+03  0.58170031450E+03  0.00000000000E+00 0. -1.
         -4   -1    0    0    0  501 -0.00000000000E+00 -0.00000000000E+00 -0.62177776005E+03  0.62177776005E+03  0.00000000000E+00 0. -1.
        -13    1    1    2    0    0  0.18164138256E+03 -0.51518088750E+01 -0.68603604628E+02  0.19423336151E+03  0.10566000000E+00 0.  1.
         13    1    1    2    0    0 -0.53163369017E+03 -0.20517765692E+03 -0.10538939562E+03  0.57951633911E+03  0.10566000000E+00 0. -1.
         -4    1    1    2    0  502  0.34999230761E+03  0.21032946579E+03  0.13391555469E+03  0.42972837392E+03  0.00000000000E+00 0. -1.
</event>
<event>
 5    1  0.4866530E-005  0.2188228E+02  0.7818608E-02  0.1485241E+00
          4   -1    0    0  502    0 -0.00000000000E+00  0.00000000000E+00  0.66886377753E+02  0.66886377753E+02  0.00000000000E+00 0.  1.
         21   -1    0    0  501  502  0.00000000000E+00 -0.00000000000E+00 -0.28342860548E+03  0.28342860548E+03  0.00000000000E+00 0.  1.
        -13    1    1    2    0    0  0.37920141506E+01 -0.21432119086E+02  0.63130863319E+02  0.66777482487E+02  0.10566000000E+00 0.  1.
         13    1    1    2    0    0 -0.64793500586E+00  0.31094499740E+02 -0.13623781588E+03  0.13974276860E+03  0.10566000000E+00 0. -1.
          4    1    1    2  501    0 -0.31440791448E+01 -0.96623806534E+01 -0.14343527516E+03  0.14379473215E+03  0.00000000000E+00 0.  1.
</event>
<event>
 5    1  0.4866530E-005  0.4953165E+03  0.7818608E-02  0.9724227E-01
         -4   -1    0    0    0  501 -0.00000000000E+00  0.00000000000E+00  0.16371248260E+04  0.16371248260E+04  0.00000000000E+00 0. -1.
         21   -1    0    0  501  502  0.00000000000E+00 -0.00000000000E+00 -0.23502964083E+03  0.23502964083E+03  0.00000000000E+00 0. -1.
        -13    1    1    2    0    0 -0.21372989053E+03 -0.14350616886E+02  0.29389759988E+03  0.36367872730E+03  0.10566000000E+00 0.  1.
         13    1    1    2    0    0 -0.29991823408E+03 -0.29710879958E+03  0.48198838940E+03  0.64073192881E+03  0.10566000000E+00 0. -1.
         -4    1    1    2    0  502  0.51364812461E+03  0.31145941646E+03  0.62620919590E+03  0.86774381073E+03  0.00000000000E+00 0. -1.
</event>
<event>
 5    1  0.4866530E-005  0.4449474E+03  0.7818608E-02  0.9734727E-01
         21   -1    0    0  501  502  0.00000000000E+00  0.00000000000E+00  0.21911871122E+03  0.21911871122E+03  0.00000000000E+00 0.  1.
          4   -1    0    0  502    0 -0.00000000000E+00 -0.00000000000E+00 -0.22355692702E+04  0.22355692702E+04  0.00000000000E+00 0.  1.
        -13    1    1    2    0    0 -0.96850808962E+02  0.39476195288E+03 -0.96162926405E+03  0.10440057142E+04  0.10566000000E+00 0.  1.
         13    1    1    2    0    0  0.28033251235E+03  0.51112781371E+02 -0.83216851444E+03  0.87960404813E+03  0.10566000000E+00 0. -1.
          4    1    1    2  501    0 -0.18348170339E+03 -0.44587473425E+03 -0.22265278047E+03  0.53107821907E+03  0.00000000000E+00 0.  1.
</event>
<event>
 5    1  0.4866530E-005  0.3601862E+03  0.7818608E-02  0.9998173E-01
         21   -1    0    0  501  502  0.00000000000E+00  0.00000000000E+00  0.21771613887E+03  0.21771613887E+03  0.00000000000E+00 0. -1.
         -4   -1    0    0    0  501 -0.00000000000E+00 -0.00000000000E+00 -0.20972274226E+04  0.20972274226E+04  0.00000000000E+00 0. -1.
        -13    1    1    2    0    0  0.21983323180E+03 -0.24263470945E+02 -0.77293284417E+03  0.80395308233E+03  0.10566000000E+00 0.  1.
         13    1    1    2    0    0 -0.48568509580E+03  0.22121293928E+03 -0.10464922365E+04  0.11747217496E+04  0.10566000000E+00 0. -1.
         -4    1    1    2    0  502  0.26585186401E+03 -0.19694946833E+03 -0.60086203074E+02  0.33626872955E+03  0.00000000000E+00 0. -1.
</event>
<event>
 5    1  0.4866530E-005  0.2969604E+02  0.7818608E-02  0.1442856E+00
         21   -1    0    0  501  502  0.00000000000E+00  0.00000000000E+00  0.55609601150E+02  0.55609601150E+02  0.00000000000E+00 0. -1.
         -4   -1    0    0    0  501 -0.00000000000E+00 -0.00000000000E+00 -0.13731015388E+03  0.13731015388E+03  0.00000000000E+00 0. -1.
        -13    1    1    2    0    0 -0.22590787974E+01 -0.16590432523E+02  0.27592521804E+02  0.32275444410E+02  0.10566000000E+00 0.  1.
         13    1    1    2    0    0 -0.22874921067E+02  0.31495601672E+02 -0.12253013649E+03  0.12856469364E+03  0.10566000000E+00 0. -1.
         -4    1    1    2    0  502  0.25133999865E+02 -0.14905169149E+02  0.13237061954E+02  0.32079616982E+02  0.00000000000E+00 0. -1.
</event>
<event>
 5    1  0.4866530E-005  0.4110714E+03  0.7818608E-02  0.9697604E-01
         -4   -1    0    0    0  501 -0.00000000000E+00  0.00000000000E+00  0.61395372354E+03  0.61395372354E+03  0.00000000000E+00 0. -1.
         21   -1    0    0  501  502  0.00000000000E+00 -0.00000000000E+00 -0.38922191273E+03  0.38922191273E+03  0.00000000000E+00 0.  1.
        -13    1    1    2    0    0 -0.40797698910E+03  0.13037155607E+03 -0.68066067281E+02  0.43367610834E+03  0.10566000000E+00 0.  1.
         13    1    1    2    0    0  0.40091257077E+03 -0.60766508447E+02  0.29172844304E+03  0.49952873150E+03  0.10566000000E+00 0. -1.
         -4    1    1    2    0  502  0.70644183240E+01 -0.69605047626E+02  0.10694350428E+01  0.69970796427E+02  0.00000000000E+00 0. -1.
</event>
<event>
 5    1  0.4866530E-005  0.4853467E+03  0.7818608E-02  0.1000499E+00
         -4   -1    0    0    0  501 -0.00000000000E+00  0.00000000000E+00  0.11436200681E+04  0.11436200681E+04  0.00000000000E+00 0. -1.
         21   -1    0    0  501  502  0.00000000000E+00 -0.00000000000E+00 -0.32388225907E+03  0.32388225907E+03  0.00000000000E+00 0. -1.
        -13    1    1    2    0    0 -0.87499938865E+02  0.12583267747E+02  0.35598376191E+03  0.36679562134E+03  0.10566000000E+00 0.  1.
         13    1    1    2    0    0  0.44992978312E+03  0.24564602807E+03  0.91922696026E+02  0.52079609643E+03  0.10566000000E+00 0. -1.
         -4    1    1    2    0  502 -0.36242984425E+03 -0.25822929582E+03  0.37183135105E+03  0.57991060936E+03  0.00000000000E+00 0. -1.
</event>
<event>
 5    1  0.4866530E-005  0.4429097E+03  0.7818608E-02  0.9612731E-01
         21   -1    0    0  501  502  0.00000000000E+00  0.00000000000E+00  0.41094683656E+03  0.41094683656E+03  0.00000000000E+00 0. -1.
          4   -1    0    0  502    0 -0.00000000000E+00 -0.00000000000E+00 -0.16085761833E+04  0.16085761833E+04  0.00000000000E+00 0.  1.
        -13    1    1    2    0    0 -0.34054727299E+03  0.29028732003E+03 -0.13422401878E+04  0.14148667451E+04  0.10566000000E+00 0.  1.
         13    1    1    2    0    0  0.33194135072E+03 -0.25588999641E+03 -0.35935111313E+02  0.42066149571E+03  0.10566000000E+00 0. -1.
          4    1    1    2  501    0  0.86059222698E+01 -0.34397323626E+02  0.18054595245E+03  0.18399477905E+03  0.00000000000E+00 0.  1.
</event>
<event>
 5    1  0.4866530E-005  0.4544930E+03  0.7818608E-02  0.1004208E+00
         21   -1    0    0  501  502  0.00000000000E+00  0.00000000000E+00  0.44068078110E+03  0.44068078110E+03  0.00000000000E+00 0. -1.
         -4   -1    0    0    0  501 -0.00000000000E+00 -0.00000000000E+00 -0.74787954783E+03  0.74787954783E+03  0.00000000000E+00 0. -1.
        -13    1    1    2    0    0  0.49474914605E+02 -0.81552093306E+02  0.17838094161E+02  0.97039784960E+02  0.10566000000E+00 0.  1.
         13    1    1    2    0    0  0.40702336782E+03 -0.38059222135E+02 -0.44533924722E+03  0.60451929880E+03  0.10566000000E+00 0. -1.
         -4    1    1    2    0  502 -0.45649828243E+03  0.11961131544E+03  0.12030238633E+03  0.48700124517E+03  0.00000000000E+00 0. -1.
</event>
<event>
 5    1  0.4866530E-005  0.3764520E+03  0.7818608E-02  0.1021925E+00
         -4   -1    0    0    0  501 -0.00000000000E+00  0.00000000000E+00  0.46769931102E+03  0.46769931102E+03  0.00000000000E+00 0. -1.
         21   -1    0    0  501  502  0.00000000000E+00 -0.00000000000E+00 -0.92022937874E+03  0.92022937874E+03  0.00000000000E+00 0. -1.
        -13    1    1    2    0    0  0.85951440283E+02 -0.41187463446E+02  0.18010571514E+03  0.20376981382E+03  0.10566000000E+00 0.  1.
         13    1    1    2    0    0 -0.12567683484E+03  0.36686431723E+03 -0.74290900798E+03  0.83803215891E+03  0.10566000000E+00 0. -1.
         -4    1    1    2    0  502  0.39725394556E+02 -0.32567685378E+03  0.11027322513E+03  0.34612671703E+03  0.00000000000E+00 0. -1.
</event>
<event>
 5    1  0.4866530E-005  0.3751108E+03  0.7818608E-02  0.1078919E+00
          4   -1    0    0  502    0 -0.00000000000E+00  0.00000000000E+00  0.11670802399E+03  0.11670802399E+03  0.00000000000E+00 0.  1.
         21   -1    0    0  501  502  0.00000000000E+00 -0.00000000000E+00 -0.16896300425E+04  0.16896300425E+04  0.00000000000E+00 0.  1.
        -13    1    1    2    0    0  0.99876427347E+02  0.36405291174E+03 -0.87215761071E+03  0.95035189923E+03  0.10566000000E+00 0.  1.
         13    1    1    2    0    0  0.14874045619E+02 -0.95867472753E+01  0.30509262225E+02  0.35269947575E+02  0.10566000000E+00 0. -1.
          4    1    1    2  501    0 -0.11475047297E+03 -0.35446616446E+03 -0.73127367007E+03  0.82071621973E+03  0.00000000000E+00 0.  1.
</event>
<event>
 5    1  0.4866530E-005  0.7760594E+02  0.7818608E-02  0.1257373E+00
         21   -1    0    0  501  502  0.00000000000E+00  0.00000000000E+00  0.50819287535E+02  0.50819287535E+02  0.00000000000E+00 0. -1.
         -4   -1    0    0    0  501 -0.00000000000E+00 -0.00000000000E+00 -0.30171350912E+03  0.30171350912E+03  0.00000000000E+00 0. -1.
        -13    1    1    2    0    0 -0.23850969037E+02 -0.12181763709E+02 -0.99668839950E+02  0.10320442293E+03  0.10566000000E+00 0.  1.
         13    1    1    2    0    0  0.95975971835E+02 -0.17208933165E+01 -0.14724102379E+03  0.17576768444E+03  0.10566000000E+00 0. -1.
         -4    1    1    2    0  502 -0.72125002798E+02  0.13902657025E+02 -0.39843578496E+01  0.73560689288E+02  0.00000000000E+00 0. -1.
</event>
<event>
 5    1  0.4866530E-005  0.4925356E+03  0.7818608E-02  0.9689843E-01
         21   -1    0    0  501  502  0.00000000000E+00  0.00000000000E+00  0.24029598972E+03  0.24029598972E+03  0.00000000000E+00 0. -1.
         -4   -1    0    0    0  501 -0.00000000000E+00 -0.00000000000E+00 -0.25923498457E+04  0.25923498457E+04  0.00000000000E+00 0. -1.
        -13    1    1    2    0    0 -0.87097756127E+02  0.22956487853E+03 -0.14305289419E+04  0.14514472492E+04  0.10566000000E+00 0.  1.
         13    1    1    2    0    0  0.29837849547E+03 -0.55975707811E+03 -0.52211532398E+03  0.82156079248E+03  0.10566000000E+00 0. -1.
         -4    1    1    2    0  502 -0.21128073934E+03  0.33019219957E+03 -0.39940959015E+03  0.55963779374E+03  0.00000000000E+00 0. -1.
</event>
<event>
 5    1  0.4866530E-005  0.4268633E+03  0.7818608E-02  0.9828731E-01
         21   -1    0    0  501  502  0.00000000000E+00  0.00000000000E+00  0.69473805873E+03  0.69473805873E+03  0.00000000000E+00 0. -1.
         -4   -1    0    0    0  501 -0.00000000000E+00 -0.00000000000E+00 -0.60576985756E+03  0.60576985756E+03  0.00000000000E+00 0. -1.
        -13    1    1    2    0    0 -0.23026537209E+03 -0.40820881041E+02  0.12599949226E+03  0.26563954737E+03  0.10566000000E+00 0.  1.
         13    1    1    2    0    0  0.41866887921E+03 -0.32010564477E+03 -0.24097945354E+03  0.57950182262E+03  0.10566000000E+00 0. -1.
         -4    1    1    2    0  502 -0.18840350712E+03  0.36092652581E+03  0.20394816245E+03  0.45536654631E+03  0.00000000000E+00 0. -1.
</event>
<event>
 5    1  0.4866530E-005  0.4924425E+03  0.7818608E-02  0.1018707E+00
         21   -1    0    0  501  502  0.00000000000E+00  0.00000000000E+00  0.34392687725E+03  0.34392687725E+03  0.00000000000E+00 0.  1.
          4   -1    0    0  502    0 -0.00000000000E+00 -0.00000000000E+00 -0.86557484905E+03  0.86557484905E+03  0.00000000000E+00 0.  1.
        -13    1    1    2    0    0 -0.47247691678E+03 -0.15352080097E+03 -0.77377487797E+02  0.50278261705E+03  0.10566000000E+00 0.  1.
         13    1    1    2    0    0 -0.24567365524E+01  0.47057613840E+02 -0.10000914701E+03  0.11055448985E+03  0.10566000000E+00 0. -1.
          4    1    1    2  501    0  0.47493365333E+03  0.10646318713E+03 -0.34426133699E+03  0.59616461940E+03  0.00000000000E+00 0.  1.
</event>
<event>
 5    1  0.4866530E-005  0.3180899E+03  0.7818608E-02  0.1000106E+00
         -4   -1    0    0    0  501 -0.00000000000E+00  0.00000000000E+00  0.32326604295E+03  0.32326604295E+03  0.00000000000E+00 0. -1.
         21   -1    0    0  501  502  0.00000000000E+00 -0.00000000000E+00 -0.76654900182E+03  0.76654900182E+03  0.00000000000E+00 0.  1.
        -13    1    1    2    0    0  0.21756050045E+03 -0.20257533374E+03 -0.52753146960E+03  0.60552357492E+03  0.10566000000E+00 0.  1.
         13    1    1    2    0    0 -0.25084797304E+03  0.20121270216E+03  0.18993455007E+03  0.37347878328E+03  0.10566000000E+00 0. -1.
         -4    1    1    2    0  502  0.33287472593E+02  0.13626315758E+01 -0.10568603933E+03  0.11081268658E+03  0.00000000000E+00 0. -1.
</event>
<event>
 5    1  0.4866530E-005  0.4361069E+03  0.7818608E-02  0.9802186E-01
         -4   -1    0    0    0  501 -0.00000000000E+00  0.00000000000E+00  0.24194478048E+04  0.24194478048E+04  0.00000000000E+00 0. -1.
         21   -1    0    0  501  502  0.00000000000E+00 -0.00000000000E+00 -0.20154917791E+03  0.20154917791E+03  0.00000000000E+00 0. -1.
        -13    1    1    2    0    0 -0.19977687176E+03 -0.13306009532E+03  0.96946533319E+03  0.99873861990E+03  0.10566000000E+00 0.  1.
         13    1    1    2    0    0  0.49164599146E+03 -0.17109395108E+03  0.10142375067E+04  0.11400292330E+04  0.10566000000E+00 0. -1.
         -4    1    1    2    0  502 -0.29186911969E+03  0.30415404639E+03  0.23419578701E+03  0.48222912979E+03  0.00000000000E+00 0. -1.
</event>
<event>
 5    1  0.4866530E-005  0.1236411E+03  0.7818608E-02  0.1130465E+00
          4   -1    0    0  502    0 -0.00000000000E+00  0.00000000000E+00  0.22572937055E+03  0.22572937055E+03  0.00000000000E+00 0.  1.
         21   -1    0    0  501  502  0.00000000000E+00 -0.00000000000E+00 -0.14857274027E+03  0.14857274027E+03  0.00000000000E+00 0. -1.
        -13    1    1    2    0    0 -0.99622499477E+02  0.76095677345E+02  0.17085321608E+03  0.21191042240E+03  0.10566000000E+00 0.  1.
         13    1    1    2    0    0  0.98214478023E+02 -0.60478377340E+02 -0.73293060634E+02  0.13665870525E+03  0.10566000000E+00 0. -1.
          4    1    1    2  501    0  0.14080214546E+01 -0.15617300004E+02 -0.20403525165E+02  0.25732983173E+02  0.00000000000E+00 0.  1.
</event>
<event>
 5    1  0.4866530E-005  0.4128908E+03  0.7818608E-02  0.9907989E-01
          4   -1    0    0  502    0 -0.00000000000E+00  0.00000000000E+00  0.12952413707E+04  0.12952413707E+04  0.00000000000E+00 0.  1.
         21   -1    0    0  501  502  0.00000000000E+00 -0.00000000000E+00 -0.93975377006E+03  0.93975377006E+03  0.00000000000E+00 0.  1.
        -13    1    1    2    0    0  0.31937444732E+03  0.19379077978E+03 -0.49904909707E+03  0.62338183835E+03  0.10566000000E+00 0.  1.
         13    1    1    2    0    0  0.85395876409E+02  0.17850833329E+03  0.10186543870E+04  0.10376967052E+04  0.10566000000E+00 0. -1.
          4    1    1    2  501    0 -0.40477032373E+03 -0.37229911307E+03 -0.16411768928E+03  0.57391659717E+03  0.00000000000E+00 0.  1.
</event>
<event>
 5    1  0.4866530E-005  0.2001955E+03  0.7818608E-02  0.1060002E+00
         21   -1    0    0  501  502  0.00000000000E+00  0.00000000000E+00  0.47974122051E+02  0.47974122051E+02  0.00000000000E+00 0.  1.
         -4   -1    0    0    0  501 -0.00000000000E+00 -0.00000000000E+00 -0.12381066887E+04  0.12381066887E+04  0.00000000000E+00 0. -1.
        -13    1    1    2    0    0 -0.13159474579E+03 -0.17326629307E+03 -0.41832009157E+03  0.47151892391E+03  0.10566000000E+00 0.  1.
         13    1    1    2    0    0  0.12281665764E+03  0.14815677432E+03 -0.76245178888E+03  0.78636321296E+03  0.10566000000E+00 0. -1.
         -4    1    1    2    0  502  0.87780881462E+01  0.25109518743E+02 -0.93606862164E+01  0.28198673895E+02  0.00000000000E+00 0. -1.
</event>
<event>
 5    1  0.4866530E-005  0.2955957E+02  0.7818608E-02  0.1417234E+00
          4   -1    0    0  502    0 -0.00000000000E+00  0.00000000000E+00  0.99728664189E+02  0.99728664189E+02  0.00000000000E+00 0.  1.
         21   -1    0    0  501  502  0.00000000000E+00 -0.00000000000E+00 -0.38315538491E+02  0.38315538491E+02  0.00000000000E+00 0.  1.
        -13    1    1    2    0    0 -0.20801497189E+02  0.16159850199E+02  0.56247283809E+02  0.62109670291E+02  0.10566000000E+00 0.  1.
         13    1    1    2    0    0 -0.95096947518E+01 -0.23769600139E+02  0.27461877936E+02  0.37544561375E+02  0.10566000000E+00 0. -1.
          4    1    1    2  501    0  0.30311191941E+02  0.76097499404E+01 -0.22296036047E+02  0.38389971014E+02  0.00000000000E+00 0.  1.
</event>
<event>
 5    1  0.4866530E-005  0.1338359E+03  0.7818608E-02  0.1118246E+00
         21   -1    0    0  501  502  0.00000000000E+00  0.00000000000E+00  0.91907195064E+02  0.91907195064E+02  0.00000000000E+00 0. -1.
          4   -1    0    0  502    0 -0.00000000000E+00 -0.00000000000E+00 -0.48963875716E+03  0.48963875716E+03  0.00000000000E+00 0.  1.
        -13    1    1    2    0    0 -0.13619800951E+03 -0.31384784014E+02 -0.15155726935E+03  0.20616624243E+03  0.10566000000E+00 0.  1.
         13    1    1    2    0    0  0.12515900480E+03  0.38512129208E+02 -0.29609453294E+03  0.32375908355E+03  0.10566000000E+00 0. -1.
          4    1    1    2  501    0  0.11039004710E+02 -0.71273451941E+01  0.49920240185E+02  0.51620626252E+02  0.00000000000E+00 0.  1.
</event>
<event>
 5    1  0.4866530E-005  0.1830123E+03  0.7818608E-02  0.1072450E+00
          4   -1    0    0  502    0 -0.00000000000E+00  0.00000000000E+00  0.14798509866E+04  0.14798509866E+04  0.00000000000E+00 0.  1.
         21   -1    0    0  501  502  0.00000000000E+00 -0.00000000000E+00 -0.32429310535E+02  0.32429310535E+02  0.00000000000E+00 0. -1.
        -13    1    1    2    0    0  0.16814516279E+03  0.69631201779E+02  0.64996696968E+03  0.67496546050E+03  0.10566000000E+00 0.  1.
         13    1    1    2    0    0 -0.16419287203E+03 -0.83287921339E+02  0.80162755545E+03  0.82249797926E+03  0.10566000000E+00 0. -1.
          4    1    1    2  501    0 -0.39522907560E+01  0.13656719560E+02 -0.41728491108E+01  0.14816857328E+02  0.00000000000E+00 0.  1.
</event>
<event>
 5    1  0.4866530E-005  0.4045119E+03  0.7818608E-02  0.9862873E-01
         -4   -1    0    0    0  501 -0.00000000000E+00  0.00000000000E+00  0.24517827598E+04  0.24517827598E+04  0.00000000000E+00 0. -1.
         21   -1    0    0  501  502  0.00000000000E+00 -0.00000000000E+00 -0.22934429502E+03  0.22934429502E+03  0.00000000000E+00 0. -1.
        -13    1    1    2    0    0  0.45589627960E+02  0.24054851298E+03  0.12358497311E+04  0.12598676797E+04  0.10566000000E+00 0.  1.
         13    1    1    2    0    0 -0.17980691298E+03  0.31645537628E+03  0.12163675631E+03  0.38375779182E+03  0.10566000000E+00 0. -1.
         -4    1    1    2    0  502  0.13421728503E+03 -0.55700388926E+03  0.86495197741E+03  0.10375015834E+04  0.00000000000E+00 0. -1.
</event>
<event>
 5    1  0.4866530E-005  0.1777280E+03  0.7818608E-02  0.1109419E+00
         21   -1    0    0  501  502  0.00000000000E+00  0.00000000000E+00  0.87714712653E+03  0.87714712653E+03  0.00000000000E+00 0.  1.
          4   -1    0    0  502    0 -0.00000000000E+00 -0.00000000000E+00 -0.62184991735E+02  0.62184991735E+02  0.00000000000E+00 0.  1.
        -13    1    1    2    0    0  0.60847594093E+02  0.12185063382E+03  0.16741896262E+03  0.21582197960E+03  0.10566000000E+00 0.  1.
         13    1    1    2    0    0  0.43602646915E+02  0.57495483433E+02  0.42237501315E+02  0.83611835972E+02  0.10566000000E+00 0. -1.
          4    1    1    2  501    0 -0.10445024101E+03 -0.17934611725E+03  0.60530567086E+03  0.63989830270E+03  0.00000000000E+00 0.  1.
</event>
<event>
 5    1  0.4866530E-005  0.2187580E+03  0.7818608E-02  0.1075645E+00
          4   -1    0    0  502    0 -0.00000000000E+00  0.00000000000E+00  0.42119033677E+03  0.42119033677E+03  0.00000000000E+00 0.  1.
         21   -1    0    0  501  502  0.00000000000E+00 -0.00000000000E+00 -0.94950566714E+03  0.94950566714E+03  0.00000000000E+00 0.  1.
        -13    1    1    2    0    0  0.13176415162E+02 -0.12388202503E+03  0.37611037971E+03  0.39620626311E+03  0.10566000000E+00 0.  1.
         13    1    1    2    0    0  0.93978441539E+01 -0.97409455451E+02 -0.10016750069E+03  0.14003735518E+03  0.10566000000E+00 0. -1.
          4    1    1    2  501    0 -0.22574259316E+02  0.22129148048E+03 -0.80425820938E+03  0.83445238562E+03  0.00000000000E+00 0.  1.
</event>
<event>
 5    1  0.4866530E-005  0.4997991E+03  0.7818608E-02  0.9478413E-01
         -4   -1    0    0    0  501 -0.00000000000E+00  0.00000000000E+00  0.30805340869E+04  0.30805340869E+04  0.00000000000E+00 0. -1.
         21   -1    0    0  501  502  0.00000000000E+00 -0.00000000000E+00 -0.21951107189E+03  0.21951107189E+03  0.00000000000E+00 0. -1.
        -13    1    1    2    0    0  0.10666995765E+03  0.42136888893E+03  0.14948795386E+04  0.15567899879E+04  0.10566000000E+00 0.  1.
         13    1    1    2    0    0 -0.20556979051E+03 -0.72558769723E+03  0.10565004679E+04  0.12980484178E+04  0.10566000000E+00 0. -1.
         -4    1    1    2    0  502  0.98899832860E+02  0.30421880829E+03  0.30964300855E+03  0.44520675310E+03  0.00000000000E+00 0. -1.
</event>
<event>
 5    1  0.4866530E-005  0.5329669E+03  0.7818608E-02  0.9581169E-01
         -4   -1    0    0    0  501 -0.00000000000E+00  0.00000000000E+00  0.71755512985E+03  0.71755512985E+03  0.00000000000E+00 0. -1.
         21   -1    0    0  501  502  0.00000000000E+00 -0.00000000000E+00 -0.67126821691E+03  0.67126821691E+03  0.00000000000E+00 0. -1.
        -13    1    1    2    0    0 -0.10717526526E+03  0.26344895120E+03  0.22586397225E+02  0.28531043422E+03  0.10566000000E+00 0.  1.
         13    1    1    2    0    0  0.58696481656E+03 -0.12845077980E+03 -0.33692442121E+02  0.60179937731E+03  0.10566000000E+00 0. -1.
         -4    1    1    2    0  502 -0.47978955130E+03 -0.13499817140E+03  0.57392957839E+02  0.50171353523E+03  0.00000000000E+00 0. -1.
</event>
<event>
 5    1  0.4866530E-005  0.4797780E+03  0.7818608E-02  0.9855449E-01
         -4   -1    0    0    0  501 -0.00000000000E+00  0.00000000000E+00  0.17395423929E+04  0.17395423929E+04  0.00000000000E+00 0. -1.
         21   -1    0    0  501  502  0.00000000000E+00 -0.00000000000E+00 -0.29564926553E+03  0.29564926553E+03  0.00000000000E+00 0. -1.
        -13    1    1    2    0    0 -0.21477589220E+02  0.14891692437E+03  0.84501103433E+03  0.85830134364E+03  0.10566000000E+00 0.  1.
         13    1    1    2    0    0 -0.49721373303E+02 -0.52937929068E+03  0.92784873048E+02  0.53974409881E+03  0.10566000000E+00 0. -1.
         -4    1    1    2    0  502  0.71198962523E+02  0.38046236631E+03  0.50609722001E+03  0.63714621599E+03  0.00000000000E+00 0. -1.
</event>
<event>
 5    1  0.4866530E-005  0.1250136E+03  0.7818608E-02  0.1128747E+00
          4   -1    0    0  502    0 -0.00000000000E+00  0.00000000000E+00  0.45221636692E+03  0.45221636692E+03  0.00000000000E+00 0.  1.
         21   -1    0    0  501  502  0.00000000000E+00 -0.00000000000E+00 -0.57448610876E+02  0.57448610876E+02  0.00000000000E+00 0. -1.
        -13    1    1    2    0    0 -0.12170037423E+03  0.41643188251E+02  0.32329639118E+03  0.34794497256E+03  0.10566000000E+00 0.  1.
         13    1    1    2    0    0  0.99489545632E+02 -0.58839127579E+02  0.48163377089E+02  0.12521954592E+03  0.10566000000E+00 0. -1.
          4    1    1    2  501    0  0.22210828594E+02  0.17195939328E+02  0.23307987776E+02  0.36500459317E+02  0.00000000000E+00 0.  1.
</event>
<event>
 5    1  0.4866530E-005  0.4729851E+03  0.7818608E-02  0.9759507E-01
         -4   -1    0    0    0  501 -0.00000000000E+00  0.00000000000E+00  0.78707189170E+03  0.78707189170E+03  0.00000000000E+00 0. -1.
         21   -1    0    0  501  502  0.00000000000E+00 -0.00000000000E+00 -0.66264430415E+03  0.66264430415E+03  0.00000000000E+00 0. -1.
        -13    1    1    2    0    0 -0.19318834799E+03  0.10054194697E+03  0.34949794798E+03  0.41180000936E+03  0.10566000000E+00 0.  1.
         13    1    1    2    0    0  0.38707299214E+03 -0.38489707177E+03 -0.37525507142E+03  0.66241047462E+03  0.10566000000E+00 0. -1.
         -4    1    1    2    0  502 -0.19388464415E+03  0.28435512480E+03  0.15018471099E+03  0.37550571188E+03  0.00000000000E+00 0. -1.
</event>
<event>
 5    1  0.4866530E-005  0.3210409E+03  0.7818608E-02  0.9989797E-01
          4   -1    0    0  502    0 -0.00000000000E+00  0.00000000000E+00  0.17940099090E+04  0.17940099090E+04  0.00000000000E+00 0.  1.
         21   -1    0    0  501  502  0.00000000000E+00 -0.00000000000E+00 -0.33074828867E+03  0.33074828867E+03  0.00000000000E+00 0.  1.
        -13    1    1    2    0    0  0.16868962989E+03 -0.27667571785E+03  0.81214450069E+03  0.87440513793E+03  0.10566000000E+00 0.  1.
         13    1    1    2    0    0 -0.17338411713E+03  0.26719918484E+03  0.92395108044E+03  0.97731421081E+03  0.10566000000E+00 0. -1.
          4    1    1    2  501    0  0.46944872461E+01  0.94765330098E+01 -0.27283396076E+03  0.27303884895E+03  0.00000000000E+00 0.  1.
</event>
<event>
 5    1  0.4866530E-005  0.5000204E+03  0.7818608E-02  0.9614401E-01
         21   -1    0    0  501  502  0.00000000000E+00  0.00000000000E+00  0.40634147069E+03  0.40634147069E+03  0.00000000000E+00 0.  1.
          4   -1    0    0  502    0 -0.00000000000E+00 -0.00000000000E+00 -0.11323441280E+04  0.11323441280E+04  0.00000000000E+00 0.  1.
        -13    1    1    2    0    0  0.35825175572E+03  0.29812739919E+03 -0.30830782220E+03  0.55881838823E+03  0.10566000000E+00 0.  1.
         13    1    1    2    0    0 -0.18327148183E+03  0.24504834028E+03 -0.21620790919E+03  0.37467718944E+03  0.10566000000E+00 0. -1.
          4    1    1    2  501    0 -0.17498027389E+03 -0.54317573947E+03 -0.20148692589E+03  0.60519002099E+03  0.00000000000E+00 0.  1.
</event>
<event>
 5    1  0.4866530E-005  0.2427629E+02  0.7818608E-02  0.1457815E+00
          4   -1    0    0  502    0 -0.00000000000E+00  0.00000000000E+00  0.20745763250E+03  0.20745763250E+03  0.00000000000E+00 0.  1.
         21   -1    0    0  501  502  0.00000000000E+00 -0.00000000000E+00 -0.80814652479E+01  0.80814652479E+01  0.00000000000E+00 0. -1.
        -13    1    1    2    0    0 -0.88825712469E+01  0.27833067921E+02  0.15567298289E+03  0.15839087255E+03  0.10566000000E+00 0.  1.
         13    1    1    2    0    0  0.12711509473E+02 -0.12572216900E+02  0.34662721499E+02  0.39002032468E+02  0.10566000000E+00 0. -1.
          4    1    1    2  501    0 -0.38289382261E+01 -0.15260851020E+02  0.90404628663E+01  0.18146192731E+02  0.00000000000E+00 0.  1.
</event>
<event>
 5    1  0.4866530E-005  0.3520705E+03  0.7818608E-02  0.1020941E+00
          4   -1    0    0  502    0 -0.00000000000E+00  0.00000000000E+00  0.26599413013E+03  0.26599413013E+03  0.00000000000E+00 0.  1.
         21   -1    0    0  501  502  0.00000000000E+00 -0.00000000000E+00 -0.19939785160E+04  0.19939785160E+04  0.00000000000E+00 0.  1.
        -13    1    1    2    0    0 -0.59185105137E+02 -0.35525604573E+03 -0.17160557473E+04  0.17534414942E+04  0.10566000000E+00 0.  1.
         13    1    1    2    0    0 -0.94356145817E+02  0.74423809846E+02  0.11107419580E+03  0.16364435176E+03  0.10566000000E+00 0. -1.
          4    1    1    2  501    0  0.15354125095E+03  0.28083223589E+03 -0.12300283440E+03  0.34288680017E+03  0.00000000000E+00 0.  1.
</event>
<event>
 5    1  0.4866530E-005  0.5858187E+02  0.7818608E-02  0.1260320E+00
          4   -1    0    0  502    0 -0.00000000000E+00  0.00000000000E+00  0.26340570046E+03  0.26340570046E+03  0.00000000000E+00 0.  1.
         21   -1    0    0  501  502  0.00000000000E+00 -0.00000000000E+00 -0.43071029076E+02  0.43071029076E+02  0.00000000000E+00 0. -1.
        -13    1    1    2    0    0 -0.11882548491E+01 -0.60259424236E+02  0.23067173537E+03  0.23841575204E+03  0.10566000000E+00 0.  1.
         13    1    1    2    0    0  0.48610045085E+01  0.48683124159E+02  0.42152445016E+01  0.49106571790E+02  0.10566000000E+00 0. -1.
          4    1    1    2  501    0 -0.36727496594E+01  0.11576300077E+02 -0.14552308484E+02  0.18954405708E+02  0.00000000000E+00 0.  1.
</event>
<event>
 5    1  0.4866530E-005  0.4927906E+03  0.7818608E-02  0.9728397E-01
          4   -1    0    0  502    0 -0.00000000000E+00  0.00000000000E+00  0.33669928300E+04  0.33669928300E+04  0.00000000000E+00 0.  1.
         21   -1    0    0  501  502  0.00000000000E+00 -0.00000000000E+00 -0.11277227816E+03  0.11277227816E+03  0.00000000000E+00 0.  1.
        -13    1    1    2    0    0 -0.42811493924E+03 -0.23174398262E+03  0.15440911255E+04  0.16190136163E+04  0.10566000000E+00 0.  1.
         13    1    1    2    0    0  0.11494733172E+03 -0.18098403612E+03  0.45966236434E+03  0.50720568880E+03  0.10566000000E+00 0. -1.
          4    1    1    2  501    0  0.31316760752E+03  0.41272801875E+03  0.12504670620E+04  0.13535458031E+04  0.00000000000E+00 0.  1.
</event>
<event>
 5    1  0.4866530E-005  0.3977245E+03  0.7818608E-02  0.9956048E-01
         21   -1    0    0  501  502  0.00000000000E+00  0.00000000000E+00  0.31099135606E+03  0.31099135606E+03  0.00000000000E+00 0. -1.
         -4   -1    0    0    0  501 -0.00000000000E+00 -0.00000000000E+00 -0.18011625981E+04  0.18011625981E+04  0.00000000000E+00 0. -1.
        -13    1    1    2    0    0 -0.16846031103E+03 -0.85049323800E+02 -0.94346681672E+03  0.96215482605E+03  0.10566000000E+00 0.  1.
         13    1    1    2    0    0  0.24851402193E+03  0.35176195176E+03  0.10325663933E+03  0.44289686670E+03  0.10566000000E+00 0. -1.
         -4    1    1    2    0  502 -0.80053710897E+02 -0.26671262796E+03 -0.64996106468E+03  0.70710226145E+03  0.00000000000E+00 0. -1.
</event>
<event>
 5    1  0.4866530E-005  0.5152098E+03  0.7818608E-02  0.1014570E+00
         21   -1    0    0  501  502  0.00000000000E+00  0.00000000000E+00  0.37777968855E+03  0.37777968855E+03  0.00000000000E+00 0. -1.
         -4   -1    0    0    0  501 -0.00000000000E+00 -0.00000000000E+00 -0.81565059478E+03  0.81565059478E+03  0.00000000000E+00 0. -1.
        -13    1    1    2    0    0 -0.46838591613E+02  0.27165718704E+01 -0.88674803690E+02  0.10032180920E+03  0.10566000000E+00 0.  1.
         13    1    1    2    0    0  0.30077560030E+03  0.43406279659E+03 -0.21647056404E+03  0.57073285290E+03  0.10566000000E+00 0. -1.
         -4    1    1    2    0  502 -0.25393700869E+03 -0.43677936846E+03 -0.13272553849E+03  0.52237562124E+03  0.00000000000E+00 0. -1.
</event>
<event>
 5    1  0.4866530E-005  0.2079029E+03  0.7818608E-02  0.1054849E+00
          4   -1    0    0  502    0 -0.00000000000E+00  0.00000000000E+00  0.93338446260E+03  0.93338446260E+03  0.00000000000E+00 0.  1.
         21   -1    0    0  501  502  0.00000000000E+00 -0.00000000000E+00 -0.12460870941E+03  0.12460870941E+03  0.00000000000E+00 0. -1.
        -13    1    1    2    0    0 -0.15686929496E+01  0.20663267577E+03  0.78857228844E+03  0.81519677916E+03  0.10566000000E+00 0.  1.
         13    1    1    2    0    0 -0.18315273569E+02 -0.21772090733E+03  0.12833371349E+02  0.21886651027E+03  0.10566000000E+00 0. -1.
          4    1    1    2  501    0  0.19883966518E+02  0.11088231555E+02  0.73700933972E+01  0.23929882578E+02  0.00000000000E+00 0.  1.
</event>
<event>
 5    1  0.5386948E-005  0.4454853E+03  0.7818608E-02  0.1014512E+00
         21   -1    0    0  501  502  0.00000000000E+00  0.00000000000E+00  0.62903394569E+03  0.62903394569E+03  0.00000000000E+00 0. -1.
         -4   -1    0    0    0  501 -0.00000000000E+00 -0.00000000000E+00 -0.50733844981E+03  0.50733844981E+03  0.00000000000E+00 0. -1.
        -13    1    1    2    0    0  0.38366850893E+02  0.61763031716E+02 -0.88146721815E+02  0.11426523122E+03  0.10566000000E+00 0.  1.
         13    1    1    2    0    0 -0.92206584132E+02  0.42095243061E+03  0.30398198914E+03  0.52735952052E+03  0.10566000000E+00 0. -1.
         -4    1    1    2    0  502  0.53839733240E+02 -0.48271546232E+03 -0.94139771448E+02  0.49474764376E+03  0.00000000000E+00 0. -1.
</event>
<event>
 5    1  0.4866530E-005  0.5047340E+03  0.7818608E-02  0.9554381E-01
         21   -1    0    0  501  502  0.00000000000E+00  0.00000000000E+00  0.45160950323E+03  0.45160950323E+03  0.00000000000E+00 0.  1.
          4   -1    0    0  502    0 -0.00000000000E+00 -0.00000000000E+00 -0.11605589243E+04  0.11605589243E+04  0.00000000000E+00 0.  1.
        -13    1    1    2    0    0 -0.24674733766E+03  0.45873465234E+03 -0.30292233101E+03  0.60256425358E+03  0.10566000000E+00 0.  1.
         13    1    1    2    0    0 -0.26714373782E+03 -0.25394357682E+03 -0.12562109762E+03  0.38940183384E+03  0.10566000000E+00 0. -1.
          4    1    1    2  501    0  0.51389107549E+03 -0.20479107552E+03 -0.28040599243E+03  0.62020234010E+03  0.00000000000E+00 0.  1.
</event>
<event>
 5    1  0.4866530E-005  0.4645653E+03  0.7818608E-02  0.9559214E-01
          4   -1    0    0  502    0 -0.00000000000E+00  0.00000000000E+00  0.18931478366E+04  0.18931478366E+04  0.00000000000E+00 0.  1.
         21   -1    0    0  501  502  0.00000000000E+00 -0.00000000000E+00 -0.86765915381E+03  0.86765915381E+03  0.00000000000E+00 0.  1.
        -13    1    1    2    0    0  0.33172467545E+03 -0.33540898393E+03  0.39299976304E+03  0.61399452092E+03  0.10566000000E+00 0.  1.
         13    1    1    2    0    0 -0.31628437598E+03  0.33691375177E+03  0.13511473360E+04  0.14279866307E+04  0.10566000000E+00 0. -1.
          4    1    1    2  501    0 -0.15440299467E+02 -0.15047678465E+01 -0.71865841630E+03  0.71882583878E+03  0.00000000000E+00 0.  1.
</event>
<event>
 5    1  0.4866530E-005  0.4274949E+03  0.7818608E-02  0.9652841E-01
         21   -1    0    0  501  502  0.00000000000E+00  0.00000000000E+00  0.10232951131E+04  0.10232951131E+04  0.00000000000E+00 0. -1.
         -4   -1    0    0    0  501 -0.00000000000E+00 -0.00000000000E+00 -0.11869648288E+04  0.11869648288E+04  0.00000000000E+00 0. -1.
        -13    1    1    2    0    0 -0.50224931122E+03 -0.15494873894E+03 -0.79908160210E+03  0.95644911014E+03  0.10566000000E+00 0.  1.
         13    1    1    2    0    0  0.23702672470E+03  0.23282581736E+03 -0.19041824234E+03  0.38294731705E+03  0.10566000000E+00 0. -1.
         -4    1    1    2    0  502  0.26522258651E+03 -0.77877078421E+02  0.82583012875E+03  0.87086351473E+03  0.00000000000E+00 0. -1.
</event>
<event>
 5    1  0.4866530E-005  0.5658063E+03  0.7818608E-02  0.9344338E-01
          4   -1    0    0  502    0 -0.00000000000E+00  0.00000000000E+00  0.18304216498E+04  0.18304216498E+04  0.00000000000E+00 0.  1.
         21   -1    0    0  501  502  0.00000000000E+00 -0.00000000000E+00 -0.46098881288E+03  0.46098881288E+03  0.00000000000E+00 0.  1.
        -13    1    1    2    0    0 -0.73526639220E+03 -0.16404793287E+03  0.49600497137E+03  0.90196969714E+03  0.10566000000E+00 0.  1.
         13    1    1    2    0    0  0.48791443883E+03  0.14608975552E+03  0.99157719741E+03  0.11147322844E+04  0.10566000000E+00 0. -1.
          4    1    1    2  501    0  0.24735195337E+03  0.17958177352E+02 -0.11814933188E+03  0.27470848111E+03  0.00000000000E+00 0.  1.
</event>
<event>
 5    1  0.4866530E-005  0.3927211E+03  0.7818608E-02  0.9750306E-01
         -4   -1    0    0    0  501 -0.00000000000E+00  0.00000000000E+00  0.15560008967E+04  0.15560008967E+04  0.00000000000E+00 0. -1.
         21   -1    0    0  501  502  0.00000000000E+00 -0.00000000000E+00 -0.31659695080E+03  0.31659695080E+03  0.00000000000E+00 0. -1.
        -13    1    1    2    0    0 -0.15679089653E+03 -0.28014708003E+03  0.44983176217E+03  0.55264310101E+03  0.10566000000E+00 0.  1.
         13    1    1    2    0    0  0.31203445042E+03  0.35662289843E+03  0.96404546491E+03  0.10742109009E+04  0.10566000000E+00 0. -1.
         -4    1    1    2    0  502 -0.15524355390E+03 -0.76475818408E+02 -0.17447328116E+03  0.24574384564E+03  0.00000000000E+00 0. -1.
</event>
<event>
 5    1  0.4866530E-005  0.4840579E+03  0.7818608E-02  0.9530952E-01
          4   -1    0    0  502    0 -0.00000000000E+00  0.00000000000E+00  0.12956906160E+04  0.12956906160E+04  0.00000000000E+00 0.  1.
         21   -1    0    0  501  502  0.00000000000E+00 -0.00000000000E+00 -0.90806260109E+03  0.90806260109E+03  0.00000000000E+00 0.  1.
        -13    1    1    2    0    0 -0.23074702057E+03  0.39262241551E+03  0.31764289211E+02  0.45651454511E+03  0.10566000000E+00 0.  1.
         13    1    1    2    0    0  0.48919896473E+03  0.10078068532E+03  0.86094620587E+03  0.99533951704E+03  0.10566000000E+00 0. -1.
          4    1    1    2  501    0 -0.25845194415E+03 -0.49340310083E+03 -0.50508248020E+03  0.75189915491E+03  0.00000000000E+00 0.  1.
</event>
<event>
 5    1  0.4866530E-005  0.2983312E+03  0.7818608E-02  0.1035170E+00
         21   -1    0    0  501  502  0.00000000000E+00  0.00000000000E+00  0.19790246247E+03  0.19790246247E+03  0.00000000000E+00 0.  1.
          4   -1    0    0  502    0 -0.00000000000E+00 -0.00000000000E+00 -0.17513925652E+04  0.17513925652E+04  0.00000000000E+00 0.  1.
        -13    1    1    2    0    0  0.21758844745E+03  0.13275966613E+03 -0.92907116585E+03  0.96340183921E+03  0.10566000000E+00 0.  1.
         13    1    1    2    0    0  0.87088127950E+02 -0.92476704472E+02 -0.66398661175E+03  0.67602848656E+03  0.10566000000E+00 0. -1.
          4    1    1    2  501    0 -0.30467657540E+03 -0.40282961658E+02  0.39567674858E+02  0.30986470191E+03  0.00000000000E+00 0.  1.
</event>
<event>
 5    1  0.4866530E-005  0.2555190E+03  0.7818608E-02  0.1028144E+00
         21   -1    0    0  501  502  0.00000000000E+00  0.00000000000E+00  0.16299711490E+03  0.16299711490E+03  0.00000000000E+00 0. -1.
         -4   -1    0    0    0  501 -0.00000000000E+00 -0.00000000000E+00 -0.30145063285E+04  0.30145063285E+04  0.00000000000E+00 0. -1.
        -13    1    1    2    0    0 -0.81968307301E+02  0.24441927022E+03 -0.58548484430E+03  0.63972814314E+03  0.10566000000E+00 0.  1.
         13    1    1    2    0    0 -0.23136996779E+03  0.78869746974E+02 -0.17993648582E+02  0.24510463386E+03  0.10566000000E+00 0. -1.
         -4    1    1    2    0  502  0.31333827510E+03 -0.32328901719E+03 -0.22480307208E+04  0.22926706664E+04  0.00000000000E+00 0. -1.
</event>
<event>
 5    1  0.4866530E-005  0.4509363E+03  0.7818608E-02  0.9592524E-01
          4   -1    0    0  502    0 -0.00000000000E+00  0.00000000000E+00  0.31445609801E+04  0.31445609801E+04  0.00000000000E+00 0.  1.
         21   -1    0    0  501  502  0.00000000000E+00 -0.00000000000E+00 -0.24468266597E+03  0.24468266597E+03  0.00000000000E+00 0.  1.
        -13    1    1    2    0    0 -0.17700246773E+03 -0.50771806198E+03  0.26223331609E+03  0.59822556555E+03  0.10566000000E+00 0.  1.
         13    1    1    2    0    0  0.43070069811E+03  0.17186982038E+03  0.17205905794E+04  0.17819860492E+04  0.10566000000E+00 0. -1.
          4    1    1    2  501    0 -0.25369823037E+03  0.33584824160E+03  0.91705441868E+03  0.10090320314E+04  0.00000000000E+00 0.  1.
</event>
<event>
 5    1  0.4866530E-005  0.3556957E+03  0.7818608E-02  0.9923742E-01
          4   -1    0    0  502    0 -0.00000000000E+00  0.00000000000E+00  0.49107323919E+03  0.49107323919E+03  0.00000000000E+00 0.  1.
         21   -1    0    0  501  502  0.00000000000E+00 -0.00000000000E+00 -0.90537296897E+03  0.90537296897E+03  0.00000000000E+00 0.  1.
        -13    1    1    2    0    0 -0.35726039621E+03 -0.28802166266E+03  0.10746086755E+03  0.47131657947E+03  0.10566000000E+00 0.  1.
         13    1    1    2    0    0  0.28792831967E+03 -0.57809599485E+02  0.19959184413E+01  0.29368122500E+03  0.10566000000E+00 0. -1.
          4    1    1    2  501    0  0.69332076542E+02  0.34583126215E+03 -0.52375651577E+03  0.63144840369E+03  0.00000000000E+00 0.  1.
</event>
<event>
 5    1  0.5334396E-005  0.8821278E+03  0.7818608E-02  0.8894001E-01
         -4   -1    0    0    0  501 -0.00000000000E+00  0.00000000000E+00  0.18416566210E+04  0.18416566210E+04  0.00000000000E+00 0. -1.
         21   -1    0    0  501  502  0.00000000000E+00 -0.00000000000E+00 -0.76836036426E+03  0.76836036426E+03  0.00000000000E+00 0.  1.
        -13    1    1    2    0    0 -0.55091764739E+02  0.96361736013E+03  0.55434359936E+03  0.11130545165E+04  0.10566000000E+00 0.  1.
         13    1    1    2    0    0 -0.20095437547E+03 -0.81778053123E+03  0.74596283375E+03  0.11249925417E+04  0.10566000000E+00 0. -1.
         -4    1    1    2    0  502  0.25604614021E+03 -0.14583682890E+03 -0.22701017633E+03  0.37196992719E+03  0.00000000000E+00 0. -1.
</event>
<event>
 5    1  0.4866530E-005  0.4211661E+03  0.7818608E-02  0.9669833E-01
         -4   -1    0    0    0  501 -0.00000000000E+00  0.00000000000E+00  0.26530810041E+04  0.26530810041E+04  0.00000000000E+00 0. -1.
         21   -1    0    0  501  502  0.00000000000E+00 -0.00000000000E+00 -0.61353221723E+03  0.61353221723E+03  0.00000000000E+00 0. -1.
        -13    1    1    2    0    0 -0.83261613989E+02  0.41616860747E+03  0.23999985698E+04  0.24372365401E+04  0.10566000000E+00 0.  1.
         13    1    1    2    0    0  0.27499064304E+03 -0.33042850307E+03 -0.21242175792E+02  0.43041153632E+03  0.10566000000E+00 0. -1.
         -4    1    1    2    0  502 -0.19172902905E+03 -0.85740104397E+02 -0.33920760715E+03  0.39896514489E+03  0.00000000000E+00 0. -1.
</event>
<event>
 5    1  0.4866530E-005  0.2524896E+03  0.7818608E-02  0.1029111E+00
          4   -1    0    0  502    0 -0.00000000000E+00  0.00000000000E+00  0.14975753355E+04  0.14975753355E+04  0.00000000000E+00 0.  1.
         21   -1    0    0  501  502  0.00000000000E+00 -0.00000000000E+00 -0.59621986425E+02  0.59621986425E+02  0.00000000000E+00 0. -1.
        -13    1    1    2    0    0  0.23188617976E+03  0.11018902851E+03  0.46929534569E+03  0.53493079461E+03  0.10566000000E+00 0.  1.
         13    1    1    2    0    0 -0.21949344401E+03 -0.12089565326E+03  0.97346368494E+03  0.10051988301E+04  0.10566000000E+00 0. -1.
          4    1    1    2  501    0 -0.12392735750E+02  0.10706624750E+02 -0.48056815727E+01  0.17067697216E+02  0.00000000000E+00 0.  1.
</event>
<event>
 5    1  0.4866530E-005  0.4209246E+03  0.7818608E-02  0.9948994E-01
         -4   -1    0    0    0  501 -0.00000000000E+00  0.00000000000E+00  0.77459580308E+03  0.77459580308E+03  0.00000000000E+00 0. -1.
         21   -1    0    0  501  502  0.00000000000E+00 -0.00000000000E+00 -0.42120686728E+03  0.42120686728E+03  0.00000000000E+00 0.  1.
        -13    1    1    2    0    0 -0.14810521579E+03 -0.67968394150E+02  0.54127373501E+02  0.17171092357E+03  0.10566000000E+00 0.  1.
         13    1    1    2    0    0 -0.29591123963E+03 -0.23925562413E+03 -0.45839901274E+02  0.38328582433E+03  0.10566000000E+00 0. -1.
         -4    1    1    2    0  502  0.44401645542E+03  0.30722401828E+03  0.34510146357E+03  0.64080592246E+03  0.00000000000E+00 0. -1.
</event>
<event>
 5    1  0.4866530E-005  0.4454267E+03  0.7818608E-02  0.9704612E-01
         21   -1    0    0  501  502  0.00000000000E+00  0.00000000000E+00  0.25849828689E+03  0.25849828689E+03  0.00000000000E+00 0.  1.
          4   -1    0    0  502    0 -0.00000000000E+00 -0.00000000000E+00 -0.17398464113E+04  0.17398464113E+04  0.00000000000E+00 0.  1.
        -13    1    1    2    0    0  0.15192250780E+03 -0.29593676765E+03 -0.33451661257E+03  0.47176306984E+03  0.10566000000E+00 0.  1.
         13    1    1    2    0    0  0.24219858693E+03 -0.20189756370E+03 -0.64251205234E+03  0.71571260315E+03  0.10566000000E+00 0. -1.
          4    1    1    2  501    0 -0.39412109473E+03  0.49783433135E+03 -0.50431945947E+03  0.81086902517E+03  0.00000000000E+00 0.  1.
</event>
<event>
 5    1  0.4866530E-005  0.2797821E+03  0.7818608E-02  0.1016018E+00
         21   -1    0    0  501  502  0.00000000000E+00  0.00000000000E+00  0.34465561603E+02  0.34465561603E+02  0.00000000000E+00 0. -1.
          4   -1    0    0  502    0 -0.00000000000E+00 -0.00000000000E+00 -0.25535744431E+04  0.25535744431E+04  0.00000000000E+00 0.  1.
        -13    1    1    2    0    0  0.28025564983E+03 -0.39299956869E+02 -0.15420814320E+04  0.15678338145E+04  0.10566000000E+00 0.  1.
         13    1    1    2    0    0 -0.27342126232E+03  0.26300721430E+02 -0.87429546365E+03  0.91642974830E+03  0.10566000000E+00 0. -1.
          4    1    1    2  501    0 -0.68343875113E+01  0.12999235439E+02 -0.10273198592E+03  0.10377644195E+03  0.00000000000E+00 0.  1.
</event>
<event>
 5    1  0.4866530E-005  0.3751193E+03  0.7818608E-02  0.9803786E-01
         21   -1    0    0  501  502  0.00000000000E+00  0.00000000000E+00  0.88992625825E+03  0.88992625825E+03  0.00000000000E+00 0. -1.
         -4   -1    0    0    0  501 -0.00000000000E+00 -0.00000000000E+00 -0.42418437912E+03  0.42418437912E+03  0.00000000000E+00 0. -1.
        -13    1    1    2    0    0 -0.73076429006E+02 -0.30367785074E+03  0.17398869074E+01  0.31235146851E+03  0.10566000000E+00 0.  1.
         13    1    1    2    0    0 -0.23514353917E+02  0.58726842758E+03  0.32302521913E+03  0.67065820969E+03  0.10566000000E+00 0. -1.
         -4    1    1    2    0  502  0.96590782923E+02 -0.28359057683E+03  0.14097677308E+03  0.33110095917E+03  0.00000000000E+00 0. -1.
</event>
<event>
 5    1  0.4866530E-005  0.4166909E+03  0.7818608E-02  0.1000777E+00
         21   -1    0    0  501  502  0.00000000000E+00  0.00000000000E+00  0.59918921383E+03  0.59918921383E+03  0.00000000000E+00 0.  1.
          4   -1    0    0  502    0 -0.00000000000E+00 -0.00000000000E+00 -0.56478680884E+03  0.56478680884E+03  0.00000000000E+00 0.  1.
        -13    1    1    2    0    0 -0.31841849684E+03  0.16543755493E+03 -0.30143864139E+03  0.46864185622E+03  0.10566000000E+00 0.  1.
         13    1    1    2    0    0 -0.10985256651E+03 -0.84221796623E+02 -0.10168645174E+02  0.13879592899E+03  0.10566000000E+00 0. -1.
          4    1    1    2  501    0  0.42827106336E+03 -0.81215758311E+02  0.34600969156E+03  0.55653823746E+03  0.00000000000E+00 0.  1.
</event>
<event>
 5    1  0.4866530E-005  0.2688541E+03  0.7818608E-02  0.1021060E+00
         21   -1    0    0  501  502  0.00000000000E+00  0.00000000000E+00  0.49320677956E+03  0.49320677956E+03  0.00000000000E+00 0. -1.
          4   -1    0    0  502    0 -0.00000000000E+00 -0.00000000000E+00 -0.29058070713E+03  0.29058070713E+03  0.00000000000E+00 0.  1.
        -13    1    1    2    0    0  0.71396021572E+02  0.25793071270E+03 -0.16282364400E+03  0.31326856634E+03  0.10566000000E+00 0.  1.
         13    1    1    2    0    0 -0.85241190712E+02 -0.26151737100E+03  0.31552044633E+03  0.41858160393E+03  0.10566000000E+00 0. -1.
          4    1    1    2  501    0  0.13845169140E+02  0.35866583011E+01  0.49929270093E+02  0.51937316433E+02  0.00000000000E+00 0.  1.
</event>
<event>
 5    1  0.4866530E-005  0.4665845E+03  0.7818608E-02  0.9908074E-01
         -4   -1    0    0    0  501 -0.00000000000E+00  0.00000000000E+00  0.46596583635E+03  0.46596583635E+03  0.00000000000E+00 0. -1.
         21   -1    0    0  501  502  0.00000000000E+00 -0.00000000000E+00 -0.13623038767E+04  0.13623038767E+04  0.00000000000E+00 0. -1.
        -13    1    1    2    0    0  0.10847568050E+03  0.83822659317E+02  0.21522052710E+03  0.25517268256E+03  0.10566000000E+00 0.  1.
         13    1    1    2    0    0 -0.19745738739E+03  0.41414481687E+03 -0.92753769218E+03  0.10348099008E+04  0.10566000000E+00 0. -1.
         -4    1    1    2    0  502  0.88981706889E+02 -0.49796747619E+03 -0.18402087529E+03  0.53828712974E+03  0.00000000000E+00 0. -1.
</event>
<event>
 5    1  0.4866530E-005  0.4756011E+03  0.7818608E-02  0.9969608E-01
          4   -1    0    0  502    0 -0.00000000000E+00  0.00000000000E+00  0.15858959793E+04  0.15858959793E+04  0.00000000000E+00 0.  1.
         21   -1    0    0  501  502  0.00000000000E+00 -0.00000000000E+00 -0.22416824763E+03  0.22416824763E+03  0.00000000000E+00 0.  1.
        -13    1    1    2    0    0  0.35136893158E+03 -0.31447821278E+03  0.41169465321E+03  0.62597857075E+03  0.10566000000E+00 0.  1.
         13    1    1    2    0    0 -0.68613098284E+02 -0.80177713096E+02  0.53518846121E+03  0.54549328421E+03  0.10566000000E+00 0. -1.
          4    1    1    2  501    0 -0.28275583330E+03  0.39465592588E+03  0.41484461725E+03  0.63859237199E+03  0.00000000000E+00 0.  1.
</event>
<event>
 5    1  0.4866530E-005  0.4464591E+03  0.7818608E-02  0.9731574E-01
          4   -1    0    0  502    0 -0.00000000000E+00  0.00000000000E+00  0.98903416184E+03  0.98903416184E+03  0.00000000000E+00 0.  1.
         21   -1    0    0  501  502  0.00000000000E+00 -0.00000000000E+00 -0.88389926335E+03  0.88389926335E+03  0.00000000000E+00 0.  1.
        -13    1    1    2    0    0  0.35863935228E+03  0.18444552548E+03  0.65667657621E+02  0.40860077006E+03  0.10566000000E+00 0.  1.
         13    1    1    2    0    0  0.11957344517E+03 -0.25888342074E+03  0.63550393770E+03  0.69655129052E+03  0.10566000000E+00 0. -1.
          4    1    1    2  501    0 -0.47821279744E+03  0.74437895265E+02 -0.59603669683E+03  0.76778136462E+03  0.00000000000E+00 0.  1.
</event>
<event>
 5    1  0.4866530E-005  0.3957092E+03  0.7818608E-02  0.9875923E-01
          4   -1    0    0  502    0 -0.00000000000E+00  0.00000000000E+00  0.19190207135E+04  0.19190207135E+04  0.00000000000E+00 0.  1.
         21   -1    0    0  501  502  0.00000000000E+00 -0.00000000000E+00 -0.24640286713E+03  0.24640286713E+03  0.00000000000E+00 0. -1.
        -13    1    1    2    0    0  0.31518961446E+03  0.40308820993E+03  0.13735293234E+04  0.14657446611E+04  0.10566000000E+00 0.  1.
         13    1    1    2    0    0  0.31716210403E+02 -0.24827678688E+03  0.89496524501E+02  0.26581369409E+03  0.10566000000E+00 0. -1.
          4    1    1    2  501    0 -0.34690582486E+03 -0.15481142305E+03  0.20959199841E+03  0.43386522542E+03  0.00000000000E+00 0.  1.
</event>
<event>
 5    1  0.4866530E-005  0.4403744E+03  0.7818608E-02  0.9777840E-01
         21   -1    0    0  501  502  0.00000000000E+00  0.00000000000E+00  0.38315243870E+03  0.38315243870E+03  0.00000000000E+00 0.  1.
          4   -1    0    0  502    0 -0.00000000000E+00 -0.00000000000E+00 -0.23769898583E+04  0.23769898583E+04  0.00000000000E+00 0.  1.
        -13    1    1    2    0    0 -0.31574251738E+03 -0.23908211317E+03 -0.82919154646E+03  0.91891905302E+03  0.10566000000E+00 0.  1.
         13    1    1    2    0    0  0.16307594178E+03 -0.19391165864E+03 -0.13294823007E+04  0.13534100240E+04  0.10566000000E+00 0. -1.
          4    1    1    2  501    0  0.15266657560E+03  0.43299377181E+03  0.16483642753E+03  0.48781321996E+03  0.00000000000E+00 0.  1.
</event>
<event>
 5    1  0.4866530E-005  0.4519317E+02  0.7818608E-02  0.1312702E+00
         -4   -1    0    0    0  501 -0.00000000000E+00  0.00000000000E+00  0.91626196774E+02  0.91626196774E+02  0.00000000000E+00 0. -1.
         21   -1    0    0  501  502  0.00000000000E+00 -0.00000000000E+00 -0.21243148200E+03  0.21243148200E+03  0.00000000000E+00 0.  1.
        -13    1    1    2    0    0  0.25889669073E+02 -0.45833007176E+02 -0.11774438145E+03  0.12897554047E+03  0.10566000000E+00 0.  1.
         13    1    1    2    0    0 -0.41399717127E+02  0.18420293273E+02  0.76835468684E+02  0.89201705109E+02  0.10566000000E+00 0. -1.
         -4    1    1    2    0  502  0.15510048055E+02  0.27412713903E+02 -0.79896372456E+02  0.85880433195E+02  0.00000000000E+00 0. -1.
</event>
<event>
 5    1  0.4866530E-005  0.6742606E+03  0.7818608E-02  0.9161177E-01
         -4   -1    0    0    0  501 -0.00000000000E+00  0.00000000000E+00  0.65370132118E+03  0.65370132118E+03  0.00000000000E+00 0. -1.
         21   -1    0    0  501  502  0.00000000000E+00 -0.00000000000E+00 -0.12317502154E+04  0.12317502154E+04  0.00000000000E+00 0. -1.
        -13    1    1    2    0    0  0.58897241728E+03 -0.15258066952E+02  0.89809392437E+01  0.58923847919E+03  0.10566000000E+00 0.  1.
         13    1    1    2    0    0 -0.86236928172E+03 -0.30659815482E+02 -0.34899415698E+03  0.93081562895E+03  0.10566000000E+00 0. -1.
         -4    1    1    2    0  502  0.27339686444E+03  0.45917882433E+02 -0.23803567644E+03  0.36539742839E+03  0.00000000000E+00 0. -1.
</event>
<event>
 5    1  0.4866530E-005  0.4993009E+03  0.7818608E-02  0.9497485E-01
         -4   -1    0    0    0  501 -0.00000000000E+00  0.00000000000E+00  0.17599868022E+04  0.17599868022E+04  0.00000000000E+00 0. -1.
         21   -1    0    0  501  502  0.00000000000E+00 -0.00000000000E+00 -0.46039268085E+03  0.46039268085E+03  0.00000000000E+00 0.  1.
        -13    1    1    2    0    0  0.18326654349E+03 -0.52582089498E+03  0.52226309699E+03  0.76343499605E+03  0.10566000000E+00 0.  1.
         13    1    1    2    0    0  0.32364575673E+03  0.42984185557E+03  0.77198896586E+03  0.94099817812E+03  0.10566000000E+00 0. -1.
         -4    1    1    2    0  502 -0.50691230021E+03  0.95979039411E+02  0.53420585485E+01  0.51594630894E+03  0.00000000000E+00 0. -1.
</event>
<event>
 5    1  0.4866530E-005  0.8306243E+02  0.7818608E-02  0.1240336E+00
         21   -1    0    0  501  502  0.00000000000E+00  0.00000000000E+00  0.28979871765E+03  0.28979871765E+03  0.00000000000E+00 0.  1.
          4   -1    0    0  502    0 -0.00000000000E+00 -0.00000000000E+00 -0.52801447314E+02  0.52801447314E+02  0.00000000000E+00 0.  1.
        -13    1    1    2    0    0 -0.21427182258E+02  0.60488844071E+02 -0.76346144021E+01  0.64624475995E+02  0.10566000000E+00 0.  1.
         13    1    1    2    0    0 -0.29090640178E+02  0.11417463772E+02  0.20878026880E+02  0.37583600086E+02  0.10566000000E+00 0. -1.
          4    1    1    2  501    0  0.50517822436E+02 -0.71906307844E+02  0.22375385786E+03  0.24039208888E+03  0.00000000000E+00 0.  1.
</event>
<event>
 5    1  0.4866530E-005  0.1715510E+03  0.7818608E-02  0.1081606E+00
          4   -1    0    0  502    0 -0.00000000000E+00  0.00000000000E+00  0.71630500333E+03  0.71630500333E+03  0.00000000000E+00 0.  1.
         21   -1    0    0  501  502  0.00000000000E+00 -0.00000000000E+00 -0.53640146338E+02  0.53640146338E+02  0.00000000000E+00 0. -1.
        -13    1    1    2    0    0  0.18571399105E+02  0.16374448874E+03  0.38732814728E+03  0.42092785522E+03  0.10566000000E+00 0.  1.
         13    1    1    2    0    0 -0.40227608510E+02 -0.17956951610E+03  0.25863555809E+03  0.31742059585E+03  0.10566000000E+00 0. -1.
          4    1    1    2  501    0  0.21656209405E+02  0.15825027362E+02  0.16701151628E+02  0.31596698601E+02  0.00000000000E+00 0.  1.
</event>
<event>
 5    1  0.4866530E-005  0.4758821E+03  0.7818608E-02  0.9716367E-01
          4   -1    0    0  502    0 -0.00000000000E+00  0.00000000000E+00  0.12820814540E+04  0.12820814540E+04  0.00000000000E+00 0.  1.
         21   -1    0    0  501  502  0.00000000000E+00 -0.00000000000E+00 -0.33810249083E+03  0.33810249083E+03  0.00000000000E+00 0.  1.
        -13    1    1    2    0    0  0.33164519681E+03  0.43013810250E+03  0.62383934719E+02  0.54671664532E+03  0.10566000000E+00 0.  1.
         13    1    1    2    0    0 -0.23518275009E+03 -0.79378635564E+02  0.33697916048E+03  0.41852940098E+03  0.10566000000E+00 0. -1.
          4    1    1    2  501    0 -0.96462446724E+02 -0.35075946694E+03  0.54461586795E+03  0.65493789851E+03  0.00000000000E+00 0.  1.
</event>
<event>
 5    1  0.4866530E-005  0.3746816E+03  0.7818608E-02  0.1024568E+00
         21   -1    0    0  501  502  0.00000000000E+00  0.00000000000E+00  0.24708248951E+03  0.24708248951E+03  0.00000000000E+00 0.  1.
          4   -1    0    0  502    0 -0.00000000000E+00 -0.00000000000E+00 -0.12585399627E+04  0.12585399627E+04  0.00000000000E+00 0.  1.
        -13    1    1    2    0    0  0.19926553945E+03 -0.29488530848E+03 -0.15142484522E+02  0.35622100776E+03  0.10566000000E+00 0.  1.
         13    1    1    2    0    0  0.52017241253E+02 -0.72201033118E+02 -0.37397249069E+03  0.38441412243E+03  0.10566000000E+00 0. -1.
          4    1    1    2  501    0 -0.25128278070E+03  0.36708634160E+03 -0.62234249802E+03  0.76498732205E+03  0.00000000000E+00 0.  1.
</event>
<event>
 5    1  0.4866530E-005  0.5771439E+03  0.7818608E-02  0.9323241E-01
         -4   -1    0    0    0  501 -0.00000000000E+00  0.00000000000E+00  0.21251362713E+04  0.21251362713E+04  0.00000000000E+00 0. -1.
         21   -1    0    0  501  502  0.00000000000E+00 -0.00000000000E+00 -0.27275646158E+03  0.27275646158E+03  0.00000000000E+00 0. -1.
        -13    1    1    2    0    0  0.12146235196E+03 -0.41193104623E+03  0.30526229322E+03  0.52690166883E+03  0.10566000000E+00 0.  1.
         13    1    1    2    0    0 -0.12456943695E+03  0.72571938635E+03  0.10305390946E+04  0.12665689910E+04  0.10566000000E+00 0. -1.
         -4    1    1    2    0  502  0.31070849903E+01 -0.31378834012E+03  0.51657842193E+03  0.60442207304E+03  0.00000000000E+00 0. -1.
</event>
<event>
 5    1  0.4866530E-005  0.3881966E+03  0.7818608E-02  0.1031729E+00
         21   -1    0    0  501  502  0.00000000000E+00  0.00000000000E+00  0.11400644974E+03  0.11400644974E+03  0.00000000000E+00 0. -1.
         -4   -1    0    0    0  501 -0.00000000000E+00 -0.00000000000E+00 -0.24578700959E+04  0.24578700959E+04  0.00000000000E+00 0. -1.
        -13    1    1    2    0    0  0.18157611225E+02  0.61450760222E+02 -0.21779710571E+03  0.22702749876E+03  0.10566000000E+00 0.  1.
         13    1    1    2    0    0 -0.27657698172E+03  0.26412618806E+03 -0.34216951847E+03  0.51316416532E+03  0.10566000000E+00 0. -1.
         -4    1    1    2    0  502  0.25841937049E+03 -0.32557694828E+03 -0.17838970220E+04  0.18316848816E+04  0.00000000000E+00 0. -1.
</event>
<event>
 5    1  0.4866530E-005  0.2576072E+02  0.7818608E-02  0.1442581E+00
         21   -1    0    0  501  502  0.00000000000E+00  0.00000000000E+00  0.35445201683E+03  0.35445201683E+03  0.00000000000E+00 0. -1.
         -4   -1    0    0    0  501 -0.00000000000E+00 -0.00000000000E+00 -0.56460411678E+01  0.56460411678E+01  0.00000000000E+00 0. -1.
        -13    1    1    2    0    0 -0.22642239689E+02  0.78464804050E+01  0.44121826131E+02  0.50209411250E+02  0.10566000000E+00 0.  1.
         13    1    1    2    0    0  0.36832533815E+02  0.47247020063E+01  0.21964596100E+03  0.22276291815E+03  0.10566000000E+00 0. -1.
         -4    1    1    2    0  502 -0.14190294126E+02 -0.12571182411E+02  0.85038188534E+02  0.87125728598E+02  0.00000000000E+00 0. -1.
</event>
<event>
 5    1  0.4866530E-005  0.2004626E+03  0.7818608E-02  0.1059819E+00
          4   -1    0    0  502    0 -0.00000000000E+00  0.00000000000E+00  0.42726988229E+03  0.42726988229E+03  0.00000000000E+00 0.  1.
         21   -1    0    0  501  502  0.00000000000E+00 -0.00000000000E+00 -0.15965337848E+03  0.15965337848E+03  0.00000000000E+00 0.  1.
        -13    1    1    2    0    0 -0.14925344655E+03 -0.15142602131E+03  0.28677609338E+03  0.35699715704E+03  0.10566000000E+00 0.  1.
         13    1    1    2    0    0  0.12375235694E+03  0.12181215331E+03  0.19766257379E+02  0.17476716693E+03  0.10566000000E+00 0. -1.
          4    1    1    2  501    0  0.25501089611E+02  0.29613868000E+02 -0.38925846942E+02  0.55158936804E+02  0.00000000000E+00 0.  1.
</event>
<event>
 5    1  0.4866530E-005  0.2208356E+03  0.7818608E-02  0.1046720E+00
         21   -1    0    0  501  502  0.00000000000E+00  0.00000000000E+00  0.76011297840E+02  0.76011297840E+02  0.00000000000E+00 0. -1.
          4   -1    0    0  502    0 -0.00000000000E+00 -0.00000000000E+00 -0.14592807552E+04  0.14592807552E+04  0.00000000000E+00 0.  1.
        -13    1    1    2    0    0  0.15527681076E+03  0.14588622014E+03 -0.10786618302E+04  0.10995021747E+04  0.10566000000E+00 0.  1.
         13    1    1    2    0    0 -0.18139864965E+03 -0.18841033957E+03 -0.26145066579E+03  0.36981128696E+03  0.10566000000E+00 0. -1.
          4    1    1    2  501    0  0.26121838896E+02  0.42524119426E+02 -0.43156961376E+02  0.65978591342E+02  0.00000000000E+00 0.  1.
</event>
<event>
 5    1  0.4866530E-005  0.3920011E+03  0.7818608E-02  0.9752435E-01
         -4   -1    0    0    0  501 -0.00000000000E+00  0.00000000000E+00  0.16043340153E+04  0.16043340153E+04  0.00000000000E+00 0. -1.
         21   -1    0    0  501  502  0.00000000000E+00 -0.00000000000E+00 -0.34728191932E+03  0.34728191932E+03  0.00000000000E+00 0.  1.
        -13    1    1    2    0    0 -0.33119653613E+03  0.21865282616E+03  0.15762359160E+03  0.42701921705E+03  0.10566000000E+00 0.  1.
         13    1    1    2    0    0  0.31053766842E+03 -0.22690107290E+03 -0.38434367088E+02  0.38651643190E+03  0.10566000000E+00 0. -1.
         -4    1    1    2    0  502  0.20658867709E+02  0.82482467369E+01  0.11378628715E+04  0.11380802857E+04  0.00000000000E+00 0. -1.
</event>
<event>
 5    1  0.4866530E-005  0.2351808E+03  0.7818608E-02  0.1038372E+00
         -4   -1    0    0    0  501 -0.00000000000E+00  0.00000000000E+00  0.16481962966E+04  0.16481962966E+04  0.00000000000E+00 0. -1.
         21   -1    0    0  501  502  0.00000000000E+00 -0.00000000000E+00 -0.28339228020E+03  0.28339228020E+03  0.00000000000E+00 0. -1.
        -13    1    1    2    0    0 -0.76310337524E+02  0.23976254036E+03  0.55625176650E+03  0.61051239322E+03  0.10566000000E+00 0.  1.
         13    1    1    2    0    0 -0.62571685264E+02 -0.10752523905E+03 -0.23186591092E+03  0.26313248496E+03  0.10566000000E+00 0. -1.
         -4    1    1    2    0  502  0.13888202279E+03 -0.13223730131E+03  0.10404181608E+04  0.10579436986E+04  0.00000000000E+00 0. -1.
</event>
<event>
 5    1  0.4866530E-005  0.2593461E+03  0.7818608E-02  0.1025660E+00
          4   -1    0    0  502    0 -0.00000000000E+00  0.00000000000E+00  0.10522636062E+04  0.10522636062E+04  0.00000000000E+00 0.  1.
         21   -1    0    0  501  502  0.00000000000E+00 -0.00000000000E+00 -0.10694322785E+03  0.10694322785E+03  0.00000000000E+00 0. -1.
        -13    1    1    2    0    0 -0.13065211992E+03 -0.24524767116E+03  0.27655126026E+03  0.39204209896E+03  0.10566000000E+00 0.  1.
         13    1    1    2    0    0  0.13146877086E+03  0.21531634282E+03  0.68717265049E+03  0.73201873470E+03  0.10566000000E+00 0. -1.
          4    1    1    2  501    0 -0.81665093326E+00  0.29931328336E+02 -0.18403532436E+02  0.35146000353E+02  0.00000000000E+00 0.  1.
</event>
<event>
 5    1  0.4866530E-005  0.3330141E+03  0.7818608E-02  0.9945405E-01
         21   -1    0    0  501  502  0.00000000000E+00  0.00000000000E+00  0.20246357930E+03  0.20246357930E+03  0.00000000000E+00 0.  1.
         -4   -1    0    0    0  501 -0.00000000000E+00 -0.00000000000E+00 -0.16787584366E+04  0.16787584366E+04  0.00000000000E+00 0. -1.
        -13    1    1    2    0    0  0.27759534339E+03  0.14055685888E+03 -0.11824436594E+03  0.33286205325E+03  0.10566000000E+00 0.  1.
         13    1    1    2    0    0 -0.32726366222E+03 -0.85303570468E+02 -0.14149325668E+04  0.14547894636E+04  0.10566000000E+00 0. -1.
         -4    1    1    2    0  502  0.49668318826E+02 -0.55253288408E+02  0.56882075459E+02  0.93570499001E+02  0.00000000000E+00 0. -1.
</event>
<event>
 5    1  0.4866530E-005  0.2944569E+02  0.7818608E-02  0.1409416E+00
         21   -1    0    0  501  502  0.00000000000E+00  0.00000000000E+00  0.70599168018E+02  0.70599168018E+02  0.00000000000E+00 0.  1.
         -4   -1    0    0    0  501 -0.00000000000E+00 -0.00000000000E+00 -0.39138638369E+02  0.39138638369E+02  0.00000000000E+00 0. -1.
        -13    1    1    2    0    0 -0.42298391822E+02 -0.57469621198E+00  0.57123290262E+01  0.42686368941E+02  0.10566000000E+00 0.  1.
         13    1    1    2    0    0  0.24922207535E+02  0.21332343347E+01 -0.10262764184E+02  0.27037059934E+02  0.10566000000E+00 0. -1.
         -4    1    1    2    0  502  0.17376184286E+02 -0.15585381228E+01  0.36010964806E+02  0.40014377512E+02  0.00000000000E+00 0. -1.
</event>
<event>
 5    1  0.4866530E-005  0.3882957E+03  0.7818608E-02  0.1002968E+00
         -4   -1    0    0    0  501 -0.00000000000E+00  0.00000000000E+00  0.11221918888E+04  0.11221918888E+04  0.00000000000E+00 0. -1.
         21   -1    0    0  501  502  0.00000000000E+00 -0.00000000000E+00 -0.50116954471E+03  0.50116954471E+03  0.00000000000E+00 0. -1.
        -13    1    1    2    0    0 -0.52065437925E+02  0.15050601588E+03  0.58811550412E+03  0.60929691284E+03  0.10566000000E+00 0.  1.
         13    1    1    2    0    0 -0.31918636747E+03 -0.23433613419E+03 -0.30913606401E+03  0.50235294186E+03  0.10566000000E+00 0. -1.
         -4    1    1    2    0  502  0.37125180539E+03  0.83830118315E+02  0.34204290400E+03  0.51171157884E+03  0.00000000000E+00 0. -1.
</event>
<event>
 5    1  0.4866530E-005  0.3321748E+03  0.7818608E-02  0.9948451E-01
          4   -1    0    0  502    0 -0.00000000000E+00  0.00000000000E+00  0.13028147720E+04  0.13028147720E+04  0.00000000000E+00 0.  1.
         21   -1    0    0  501  502  0.00000000000E+00 -0.00000000000E+00 -0.40041663599E+03  0.40041663599E+03  0.00000000000E+00 0. -1.
        -13    1    1    2    0    0 -0.34843206150E+03 -0.36175379597E+02  0.11124533902E+04  0.11663044697E+04  0.10566000000E+00 0.  1.
         13    1    1    2    0    0  0.22454483385E+03 -0.14598027471E+03 -0.73441295393E+02  0.27771254572E+03  0.10566000000E+00 0. -1.
          4    1    1    2  501    0  0.12388722765E+03  0.18215565431E+03 -0.13661395879E+03  0.25921439255E+03  0.00000000000E+00 0.  1.
</event>
<event>
 5    1  0.4866530E-005  0.4944870E+03  0.7818608E-02  0.9644385E-01
         -4   -1    0    0    0  501 -0.00000000000E+00  0.00000000000E+00  0.28442349755E+04  0.28442349755E+04  0.00000000000E+00 0. -1.
         21   -1    0    0  501  502  0.00000000000E+00 -0.00000000000E+00 -0.22636973514E+03  0.22636973514E+03  0.00000000000E+00 0. -1.
        -13    1    1    2    0    0  0.19719422223E+03 -0.20516809310E+03  0.15910277469E+04  0.16162762172E+04  0.10566000000E+00 0.  1.
         13    1    1    2    0    0  0.29178068385E+03  0.40504174315E+03  0.54906866275E+03  0.74207222609E+03  0.10566000000E+00 0. -1.
         -4    1    1    2    0  502 -0.48897490608E+03 -0.19987365006E+03  0.47776883065E+03  0.71225626729E+03  0.00000000000E+00 0. -1.
</event>
<event>
 5    1  0.4866530E-005  0.4869865E+03  0.7818608E-02  0.9506960E-01
         21   -1    0    0  501  502  0.00000000000E+00  0.00000000000E+00  0.41088609064E+03  0.41088609064E+03  0.00000000000E+00 0. -1.
         -4   -1    0    0    0  501 -0.00000000000E+00 -0.00000000000E+00 -0.17438589698E+04  0.17438589698E+04  0.00000000000E+00 0. -1.
        -13    1    1    2    0    0  0.39644914059E+03  0.32785630221E+03 -0.48692238118E+03  0.70834673178E+03  0.10566000000E+00 0.  1.
         13    1    1    2    0    0 -0.33396722927E+03 -0.24425181058E+03  0.15357627269E+03  0.44133744447E+03  0.10566000000E+00 0. -1.
         -4    1    1    2    0  502 -0.62481911325E+02 -0.83604491630E+02 -0.99962677066E+03  0.10050608842E+04  0.00000000000E+00 0. -1.
</event>
<event>
 5    1  0.4866530E-005  0.4517220E+03  0.7818608E-02  0.9590570E-01
         -4   -1    0    0    0  501 -0.00000000000E+00  0.00000000000E+00  0.25910782879E+04  0.25910782879E+04  0.00000000000E+00 0. -1.
         21   -1    0    0  501  502  0.00000000000E+00 -0.00000000000E+00 -0.32702155597E+03  0.32702155597E+03  0.00000000000E+00 0. -1.
        -13    1    1    2    0    0 -0.40685446574E+03  0.24166689318E+03  0.15170021229E+04  0.15890968805E+04  0.10566000000E+00 0.  1.
         13    1    1    2    0    0  0.89092986095E+02 -0.41301121432E+03 -0.76878992474E+02  0.42944873265E+03  0.10566000000E+00 0. -1.
         -4    1    1    2    0  502  0.31776147964E+03  0.17134432114E+03  0.82393360149E+03  0.89955423072E+03  0.00000000000E+00 0. -1.
</event>
<event>
 5    1  0.4866530E-005  0.1745448E+03  0.7818608E-02  0.1122881E+00
         21   -1    0    0  501  502  0.00000000000E+00  0.00000000000E+00  0.19382557531E+03  0.19382557531E+03  0.00000000000E+00 0. -1.
         -4   -1    0    0    0  501 -0.00000000000E+00 -0.00000000000E+00 -0.10034943638E+04  0.10034943638E+04  0.00000000000E+00 0. -1.
        -13    1    1    2    0    0 -0.42190030821E+02 -0.32828317175E+02 -0.37311726995E+02  0.65191051876E+02  0.10566000000E+00 0.  1.
         13    1    1    2    0    0 -0.13231066614E+03 -0.10996479535E+03  0.12127491680E+03  0.21048986959E+03  0.10566000000E+00 0. -1.
         -4    1    1    2    0  502  0.17450069696E+03  0.14279311252E+03 -0.89363197828E+03  0.92163901764E+03  0.00000000000E+00 0. -1.
</event>
<event>
 5    1  0.4866530E-005  0.1179815E+03  0.7818608E-02  0.1137818E+00
         -4   -1    0    0    0  501 -0.00000000000E+00  0.00000000000E+00  0.98677263876E+03  0.98677263876E+03  0.00000000000E+00 0. -1.
         21   -1    0    0  501  502  0.00000000000E+00 -0.00000000000E+00 -0.88746308304E+02  0.88746308304E+02  0.00000000000E+00 0. -1.
        -13    1    1    2    0    0  0.90045467706E+02  0.41050484766E+02  0.20435509771E+03  0.22705582062E+03  0.10566000000E+00 0.  1.
         13    1    1    2    0    0 -0.12129971139E+03 -0.37813207886E+02  0.76238814709E+03  0.77290307067E+03  0.10566000000E+00 0. -1.
         -4    1    1    2    0  502  0.31254243687E+02 -0.32372768799E+01 -0.68716914346E+02  0.75560055765E+02  0.00000000000E+00 0. -1.
</event>
<event>
 5    1  0.4866530E-005  0.1083476E+03  0.7818608E-02  0.1163378E+00
         21   -1    0    0  501  502  0.00000000000E+00  0.00000000000E+00  0.46612294704E+03  0.46612294704E+03  0.00000000000E+00 0. -1.
         -4   -1    0    0    0  501 -0.00000000000E+00 -0.00000000000E+00 -0.13781597414E+03  0.13781597414E+03  0.00000000000E+00 0. -1.
        -13    1    1    2    0    0  0.24393745683E+01 -0.80858331820E+02  0.20282162501E+03  0.21835897762E+03  0.10566000000E+00 0.  1.
         13    1    1    2    0    0 -0.57364349353E+02 -0.20765541279E+02 -0.10858908940E+03  0.12455311230E+03  0.10566000000E+00 0. -1.
         -4    1    1    2    0  502  0.54924974784E+02  0.10162387310E+03  0.23407443730E+03  0.26102683125E+03  0.00000000000E+00 0. -1.
</event>
<event>
 5    1  0.4866530E-005  0.4056431E+03  0.7818608E-02  0.1002441E+00
          4   -1    0    0  502    0 -0.00000000000E+00  0.00000000000E+00  0.23450645548E+04  0.23450645548E+04  0.00000000000E+00 0.  1.
         21   -1    0    0  501  502  0.00000000000E+00 -0.00000000000E+00 -0.13896391369E+03  0.13896391369E+03  0.00000000000E+00 0.  1.
        -13    1    1    2    0    0  0.36657733510E+03  0.13842056583E+03  0.16137725347E+04  0.16606628196E+04  0.10566000000E+00 0.  1.
         13    1    1    2    0    0 -0.52407155948E+02  0.13209030397E+03  0.24175832702E+03  0.28043084396E+03  0.10566000000E+00 0. -1.
          4    1    1    2  501    0 -0.31417017915E+03 -0.27051086980E+03  0.35056977943E+03  0.54293480493E+03  0.00000000000E+00 0.  1.
</event>
<event>
 5    1  0.4866530E-005  0.6261334E+02  0.7818608E-02  0.1247554E+00
         21   -1    0    0  501  502  0.00000000000E+00  0.00000000000E+00  0.10708781892E+03  0.10708781892E+03  0.00000000000E+00 0.  1.
         -4   -1    0    0    0  501 -0.00000000000E+00 -0.00000000000E+00 -0.47225019530E+02  0.47225019530E+02  0.00000000000E+00 0. -1.
        -13    1    1    2    0    0 -0.57334951114E+02 -0.35911332748E+02  0.47440119249E+02  0.82628666438E+02  0.10566000000E+00 0.  1.
         13    1    1    2    0    0  0.46958872458E+02  0.37412325431E+02  0.93883117785E+01  0.60769806308E+02  0.10566000000E+00 0. -1.
         -4    1    1    2    0  502  0.10376078656E+02 -0.15009926837E+01  0.30343683598E+01  0.10914365701E+02  0.00000000000E+00 0. -1.
</event>
<event>
 5    1  0.4866530E-005  0.5012119E+03  0.7818608E-02  0.9636574E-01
         -4   -1    0    0    0  501 -0.00000000000E+00  0.00000000000E+00  0.56425920333E+03  0.56425920333E+03  0.00000000000E+00 0. -1.
         21   -1    0    0  501  502  0.00000000000E+00 -0.00000000000E+00 -0.79584202811E+03  0.79584202811E+03  0.00000000000E+00 0. -1.
        -13    1    1    2    0    0 -0.28036500434E+03  0.17337698124E+02  0.40898662482E+02  0.28386236664E+03  0.10566000000E+00 0.  1.
         13    1    1    2    0    0  0.40134403940E+02  0.48182288725E+03 -0.81693985207E+02  0.49034475977E+03  0.10566000000E+00 0. -1.
         -4    1    1    2    0  502  0.24023060040E+03 -0.49916058537E+03 -0.19078750205E+03  0.58589410502E+03  0.00000000000E+00 0. -1.
</event>
<event>
 5    1  0.4866530E-005  0.4071782E+03  0.7818608E-02  0.1019748E+00
          4   -1    0    0  502    0 -0.00000000000E+00  0.00000000000E+00  0.17795465400E+03  0.17795465400E+03  0.00000000000E+00 0.  1.
         21   -1    0    0  501  502  0.00000000000E+00 -0.00000000000E+00 -0.17648365865E+04  0.17648365865E+04  0.00000000000E+00 0.  1.
        -13    1    1    2    0    0  0.23069753820E+03 -0.33112470775E+03 -0.12926317386E+04  0.13541645945E+04  0.10566000000E+00 0.  1.
         13    1    1    2    0    0  0.73976798660E+02  0.32147368493E+02 -0.27263542801E+02  0.85143008939E+02  0.10566000000E+00 0. -1.
          4    1    1    2  501    0 -0.30467433686E+03  0.29897733926E+03 -0.26698665113E+03  0.50348363709E+03  0.00000000000E+00 0.  1.
</event>
<event>
 5    1  0.4866530E-005  0.1627437E+03  0.7818608E-02  0.1089181E+00
         21   -1    0    0  501  502  0.00000000000E+00  0.00000000000E+00  0.11532711175E+03  0.11532711175E+03  0.00000000000E+00 0. -1.
          4   -1    0    0  502    0 -0.00000000000E+00 -0.00000000000E+00 -0.29850583257E+03  0.29850583257E+03  0.00000000000E+00 0.  1.
        -13    1    1    2    0    0  0.12911167562E+03 -0.10594639380E+03 -0.17079383496E+03  0.23888283397E+03  0.10566000000E+00 0.  1.
         13    1    1    2    0    0 -0.11298450371E+03  0.10544782911E+03 -0.22095573360E+02  0.15611844308E+03  0.10566000000E+00 0. -1.
          4    1    1    2  501    0 -0.16127171912E+02  0.49856469200E+00  0.97106875016E+01  0.18831667276E+02  0.00000000000E+00 0.  1.
</event>
<event>
 5    1  0.4866530E-005  0.4853231E+03  0.7818608E-02  0.9633405E-01
         -4   -1    0    0    0  501 -0.00000000000E+00  0.00000000000E+00  0.22219812439E+04  0.22219812439E+04  0.00000000000E+00 0. -1.
         21   -1    0    0  501  502  0.00000000000E+00 -0.00000000000E+00 -0.24621592815E+03  0.24621592815E+03  0.00000000000E+00 0. -1.
        -13    1    1    2    0    0 -0.17813257946E+03  0.25722605382E+03  0.96343314180E+03  0.10129658871E+04  0.10566000000E+00 0.  1.
         13    1    1    2    0    0 -0.37816847812E+03  0.90726890434E+02  0.39509511705E+03  0.55438518123E+03  0.10566000000E+00 0. -1.
         -4    1    1    2    0  502  0.55630105758E+03 -0.34795294425E+03  0.61723705687E+03  0.90084610364E+03  0.00000000000E+00 0. -1.
</event>
<event>
 5    1  0.4866530E-005  0.5470473E+02  0.7818608E-02  0.1273735E+00
         21   -1    0    0  501  502  0.00000000000E+00  0.00000000000E+00  0.17281281231E+03  0.17281281231E+03  0.00000000000E+00 0.  1.
         -4   -1    0    0    0  501 -0.00000000000E+00 -0.00000000000E+00 -0.18785019731E+03  0.18785019731E+03  0.00000000000E+00 0. -1.
        -13    1    1    2    0    0  0.35393290889E+02 -0.86264178187E+02  0.12609229656E+03  0.15682305919E+03  0.10566000000E+00 0.  1.
         13    1    1    2    0    0  0.12159704410E+01  0.53633320300E+02 -0.14503985344E+03  0.15464340232E+03  0.10566000000E+00 0. -1.
         -4    1    1    2    0  502 -0.36609261330E+02  0.32630857887E+02  0.39101718858E+01  0.49196548108E+02  0.00000000000E+00 0. -1.
</event>
<event>
 5    1  0.4866530E-005  0.4169910E+03  0.7818608E-02  0.9883711E-01
         21   -1    0    0  501  502  0.00000000000E+00  0.00000000000E+00  0.42136527059E+03  0.42136527059E+03  0.00000000000E+00 0. -1.
         -4   -1    0    0    0  501 -0.00000000000E+00 -0.00000000000E+00 -0.91203228149E+03  0.91203228149E+03  0.00000000000E+00 0. -1.
        -13    1    1    2    0    0 -0.73530591046E+02  0.19496621899E+03 -0.12504898320E+03  0.24301406077E+03  0.10566000000E+00 0.  1.
         13    1    1    2    0    0 -0.19236846050E+03  0.18198305386E+03 -0.53662933761E+03  0.59840998792E+03  0.10566000000E+00 0. -1.
         -4    1    1    2    0  502  0.26589905155E+03 -0.37694927285E+03  0.17101130991E+03  0.49197350339E+03  0.00000000000E+00 0. -1.
</event>
<event>
 5    1  0.4866530E-005  0.2295244E+03  0.7818608E-02  0.1041586E+00
          4   -1    0    0  502    0 -0.00000000000E+00  0.00000000000E+00  0.14007437766E+04  0.14007437766E+04  0.00000000000E+00 0.  1.
         21   -1    0    0  501  502  0.00000000000E+00 -0.00000000000E+00 -0.63256842890E+02  0.63256842890E+02  0.00000000000E+00 0.  1.
        -13    1    1    2    0    0 -0.63694122692E+02 -0.20473784584E+03  0.50846682896E+03  0.55182701465E+03  0.10566000000E+00 0.  1.
         13    1    1    2    0    0  0.91050116814E+02  0.22392275665E+03  0.84223911252E+03  0.87624098200E+03  0.10566000000E+00 0. -1.
          4    1    1    2  501    0 -0.27355994121E+02 -0.19184910812E+02 -0.13219007771E+02  0.35932622833E+02  0.00000000000E+00 0.  1.
</event>
<event>
 5    1  0.4866530E-005  0.5292068E+02  0.7818608E-02  0.1285121E+00
          4   -1    0    0  502    0 -0.00000000000E+00  0.00000000000E+00  0.11265443813E+03  0.11265443813E+03  0.00000000000E+00 0.  1.
         21   -1    0    0  501  502  0.00000000000E+00 -0.00000000000E+00 -0.98033837066E+02  0.98033837066E+02  0.00000000000E+00 0.  1.
        -13    1    1    2    0    0 -0.19229126361E+02  0.64021124950E+02  0.50673200354E+02  0.83882347002E+02  0.10566000000E+00 0.  1.
         13    1    1    2    0    0 -0.28017570549E+02 -0.39104143579E+02  0.17480067683E+02  0.51182831445E+02  0.10566000000E+00 0. -1.
          4    1    1    2  501    0  0.47246696910E+02 -0.24916981371E+02 -0.53532666970E+02  0.75623096753E+02  0.00000000000E+00 0.  1.
</event>
<event>
 5    1  0.4866530E-005  0.3091592E+02  0.7818608E-02  0.1428101E+00
          4   -1    0    0  502    0 -0.00000000000E+00  0.00000000000E+00  0.17914868780E+03  0.17914868780E+03  0.00000000000E+00 0.  1.
         21   -1    0    0  501  502  0.00000000000E+00 -0.00000000000E+00 -0.46126807351E+02  0.46126807351E+02  0.00000000000E+00 0. -1.
        -13    1    1    2    0    0  0.22656338072E+02  0.39660539695E+02  0.14884517288E+03  0.15569574406E+03  0.10566000000E+00 0.  1.
         13    1    1    2    0    0 -0.32928941337E+01 -0.18474233925E+02 -0.31656255446E+02  0.36800409560E+02  0.10566000000E+00 0. -1.
          4    1    1    2  501    0 -0.19363443938E+02 -0.21186305771E+02  0.15832963010E+02  0.32779341529E+02  0.00000000000E+00 0.  1.
</event>
<event>
 5    1  0.4866530E-005  0.5193869E+02  0.7818608E-02  0.1284091E+00
         21   -1    0    0  501  502  0.00000000000E+00  0.00000000000E+00  0.28656753789E+02  0.28656753789E+02  0.00000000000E+00 0. -1.
          4   -1    0    0  502    0 -0.00000000000E+00 -0.00000000000E+00 -0.19627721751E+03  0.19627721751E+03  0.00000000000E+00 0.  1.
        -13    1    1    2    0    0  0.41999156208E+02 -0.18060508541E+02 -0.42994706972E+02  0.62758800837E+02  0.10566000000E+00 0.  1.
         13    1    1    2    0    0 -0.49572943974E+02  0.24678035768E+02 -0.13608965247E+03  0.14692476611E+03  0.10566000000E+00 0. -1.
          4    1    1    2  501    0  0.75737877660E+01 -0.66175272273E+01  0.11463895721E+02  0.15250404350E+02  0.00000000000E+00 0.  1.
</event>
<event>
 5    1  0.4866530E-005  0.4154183E+03  0.7818608E-02  0.1008865E+00
         21   -1    0    0  501  502  0.00000000000E+00  0.00000000000E+00  0.23015383195E+03  0.23015383195E+03  0.00000000000E+00 0. -1.
         -4   -1    0    0    0  501 -0.00000000000E+00 -0.00000000000E+00 -0.16832718078E+04  0.16832718078E+04  0.00000000000E+00 0. -1.
        -13    1    1    2    0    0 -0.42127613735E+02 -0.98840222718E+02 -0.56652137379E+03  0.57661998196E+03  0.10566000000E+00 0.  1.
         13    1    1    2    0    0 -0.28256243582E+03  0.31768188367E+03 -0.69594123720E+02  0.43082091705E+03  0.10566000000E+00 0. -1.
         -4    1    1    2    0  502  0.32469004955E+03 -0.21884166096E+03 -0.81700247831E+03  0.90598474072E+03  0.00000000000E+00 0. -1.
</event>
<event>
 5    1  0.4866530E-005  0.3608042E+03  0.7818608E-02  0.1039165E+00
          4   -1    0    0  502    0 -0.00000000000E+00  0.00000000000E+00  0.11992402809E+04  0.11992402809E+04  0.00000000000E+00 0.  1.
         21   -1    0    0  501  502  0.00000000000E+00 -0.00000000000E+00 -0.31022018138E+03  0.31022018138E+03  0.00000000000E+00 0.  1.
        -13    1    1    2    0    0 -0.33202023317E+00  0.36595880374E+03 -0.14122745449E+03  0.39226414741E+03  0.10566000000E+00 0.  1.
         13    1    1    2    0    0  0.53648679796E+02 -0.34123552317E+02  0.37943193352E+03  0.38472223877E+03  0.10566000000E+00 0. -1.
          4    1    1    2  501    0 -0.53316659563E+02 -0.33183525143E+03  0.65081562047E+03  0.73247407608E+03  0.00000000000E+00 0.  1.
</event>
<event>
 5    1  0.4866530E-005  0.4886593E+03  0.7818608E-02  0.9743590E-01
         21   -1    0    0  501  502  0.00000000000E+00  0.00000000000E+00  0.13120185782E+04  0.13120185782E+04  0.00000000000E+00 0.  1.
          4   -1    0    0  502    0 -0.00000000000E+00 -0.00000000000E+00 -0.39277068350E+03  0.39277068350E+03  0.00000000000E+00 0.  1.
        -13    1    1    2    0    0  0.63416113024E+02  0.57161714095E+03  0.87543049783E+03  0.10474475294E+04  0.10566000000E+00 0.  1.
         13    1    1    2    0    0  0.13598518891E+02 -0.20818870583E+03 -0.13143343519E+03  0.24658105361E+03  0.10566000000E+00 0. -1.
          4    1    1    2  501    0 -0.77014631914E+02 -0.36342843512E+03  0.17525083201E+03  0.41076067862E+03  0.00000000000E+00 0.  1.
</event>
<event>
 5    1  0.4866530E-005  0.1858460E+03  0.7818608E-02  0.1070297E+00
         21   -1    0    0  501  502  0.00000000000E+00  0.00000000000E+00  0.39718399654E+03  0.39718399654E+03  0.00000000000E+00 0. -1.
          4   -1    0    0  502    0 -0.00000000000E+00 -0.00000000000E+00 -0.11894731215E+03  0.11894731215E+03  0.00000000000E+00 0.  1.
        -13    1    1    2    0    0  0.13327598764E+03  0.12259204747E+03  0.10532092481E+03  0.20948462318E+03  0.10566000000E+00 0.  1.
         13    1    1    2    0    0 -0.12338300967E+03 -0.14543608666E+03  0.73882963205E+02  0.20453294550E+03  0.10566000000E+00 0. -1.
          4    1    1    2  501    0 -0.98929779730E+01  0.22844039192E+02  0.99032796382E+02  0.10211374001E+03  0.00000000000E+00 0.  1.
</event>
<event>
 5    1  0.4866530E-005  0.3201883E+03  0.7818608E-02  0.9993036E-01
         21   -1    0    0  501  502  0.00000000000E+00  0.00000000000E+00  0.25557719073E+03  0.25557719073E+03  0.00000000000E+00 0.  1.
          4   -1    0    0  502    0 -0.00000000000E+00 -0.00000000000E+00 -0.19119359691E+04  0.19119359691E+04  0.00000000000E+00 0.  1.
        -13    1    1    2    0    0 -0.40136425776E+03 -0.14730801803E+03 -0.15785046691E+01  0.42754581325E+03  0.10566000000E+00 0.  1.
         13    1    1    2    0    0  0.28281516201E+03  0.10168153216E+03 -0.54022032318E+03  0.61819216963E+03  0.10566000000E+00 0. -1.
          4    1    1    2  501    0  0.11854909575E+03  0.45626485878E+02 -0.11145599505E+04  0.11217751770E+04  0.00000000000E+00 0.  1.
</event>
<event>
 5    1  0.4866530E-005  0.2064549E+03  0.7818608E-02  0.1055799E+00
         21   -1    0    0  501  502  0.00000000000E+00  0.00000000000E+00  0.18001635705E+03  0.18001635705E+03  0.00000000000E+00 0. -1.
          4   -1    0    0  502    0 -0.00000000000E+00 -0.00000000000E+00 -0.72084401995E+03  0.72084401995E+03  0.00000000000E+00 0.  1.
        -13    1    1    2    0    0  0.13796811711E+03  0.15368171804E+03 -0.61153335964E+03  0.64546598122E+03  0.10566000000E+00 0.  1.
         13    1    1    2    0    0 -0.11525774840E+03 -0.17291866874E+03  0.38148148765E+02  0.21128300212E+03  0.10566000000E+00 0. -1.
          4    1    1    2  501    0 -0.22710368712E+02  0.19236950705E+02  0.32557547976E+02  0.44111393650E+02  0.00000000000E+00 0.  1.
</event>
<event>
 5    1  0.4866530E-005  0.3697995E+03  0.7818608E-02  0.1023168E+00
         21   -1    0    0  501  502  0.00000000000E+00  0.00000000000E+00  0.31827913863E+03  0.31827913863E+03  0.00000000000E+00 0.  1.
          4   -1    0    0  502    0 -0.00000000000E+00 -0.00000000000E+00 -0.10509986582E+04  0.10509986582E+04  0.00000000000E+00 0.  1.
        -13    1    1    2    0    0 -0.17205900667E+03  0.31359835050E+03  0.10540184426E+03  0.37290452820E+03  0.10566000000E+00 0.  1.
         13    1    1    2    0    0  0.19480510273E+02  0.94721363327E+02 -0.21687380497E+03  0.23745712329E+03  0.10566000000E+00 0. -1.
          4    1    1    2  501    0  0.15257849640E+03 -0.40831971383E+03 -0.62124755882E+03  0.75891614530E+03  0.00000000000E+00 0.  1.
</event>
<event>
 5    1  0.4866530E-005  0.4672073E+03  0.7818608E-02  0.9750256E-01
         21   -1    0    0  501  502  0.00000000000E+00  0.00000000000E+00  0.30499933204E+03  0.30499933204E+03  0.00000000000E+00 0. -1.
         -4   -1    0    0    0  501 -0.00000000000E+00 -0.00000000000E+00 -0.13333713878E+04  0.13333713878E+04  0.00000000000E+00 0. -1.
        -13    1    1    2    0    0 -0.10121909712E+02  0.23306307797E+03 -0.28250118611E+03  0.36637109968E+03  0.10566000000E+00 0.  1.
         13    1    1    2    0    0 -0.42538194247E+03 -0.33627666113E+03 -0.58178394390E+03  0.79530142610E+03  0.10566000000E+00 0. -1.
         -4    1    1    2    0  502  0.43550385218E+03  0.10321358317E+03 -0.16408692574E+03  0.47669819405E+03  0.00000000000E+00 0. -1.
</event>
<event>
 5    1  0.4866530E-005  0.1339431E+03  0.7818608E-02  0.1118124E+00
         -4   -1    0    0    0  501 -0.00000000000E+00  0.00000000000E+00  0.32056860491E+03  0.32056860491E+03  0.00000000000E+00 0. -1.
         21   -1    0    0  501  502  0.00000000000E+00 -0.00000000000E+00 -0.35877211595E+03  0.35877211595E+03  0.00000000000E+00 0.  1.
        -13    1    1    2    0    0 -0.12387822076E+03 -0.78822482703E+02 -0.23914306878E+03  0.28062112512E+03  0.10566000000E+00 0.  1.
         13    1    1    2    0    0  0.11874597310E+03  0.60440059525E+02  0.28388913063E+03  0.31360270498E+03  0.10566000000E+00 0. -1.
         -4    1    1    2    0  502  0.51322476587E+01  0.18382423179E+02 -0.82949572895E+02  0.85116890752E+02  0.00000000000E+00 0. -1.
</event>
<event>
 5    1  0.4866530E-005  0.1188098E+03  0.7818608E-02  0.1136714E+00
         21   -1    0    0  501  502  0.00000000000E+00  0.00000000000E+00  0.48849950500E+03  0.48849950500E+03  0.00000000000E+00 0.  1.
         -4   -1    0    0    0  501 -0.00000000000E+00 -0.00000000000E+00 -0.50990223029E+02  0.50990223029E+02  0.00000000000E+00 0. -1.
        -13    1    1    2    0    0 -0.10759197586E+03 -0.66767925505E+02  0.27270650156E+03  0.30067064423E+03  0.10566000000E+00 0.  1.
         13    1    1    2    0    0  0.98070295110E+02  0.62520845912E+02  0.55230542734E+02  0.12875194356E+03  0.10566000000E+00 0. -1.
         -4    1    1    2    0  502  0.95216807523E+01  0.42470795935E+01  0.10957223768E+03  0.11006714024E+03  0.00000000000E+00 0. -1.
</event>
<event>
 5    1  0.4866530E-005  0.1256197E+03  0.7818608E-02  0.1127996E+00
          4   -1    0    0  502    0 -0.00000000000E+00  0.00000000000E+00  0.47176136671E+03  0.47176136671E+03  0.00000000000E+00 0.  1.
         21   -1    0    0  501  502  0.00000000000E+00 -0.00000000000E+00 -0.94799037989E+02  0.94799037989E+02  0.00000000000E+00 0. -1.
        -13    1    1    2    0    0  0.62499530898E+02  0.10640891396E+03  0.36389021151E+03  0.38424620432E+03  0.10566000000E+00 0.  1.
         13    1    1    2    0    0 -0.41763913788E+02 -0.13780766976E+03  0.67187779068E+01  0.14415384657E+03  0.10566000000E+00 0. -1.
          4    1    1    2  501    0 -0.20735617110E+02  0.31398755798E+02  0.63533392982E+01  0.38160353809E+02  0.00000000000E+00 0.  1.
</event>
<event>
 5    1  0.4866530E-005  0.3876843E+03  0.7818608E-02  0.9765303E-01
          4   -1    0    0  502    0 -0.00000000000E+00  0.00000000000E+00  0.12894322119E+04  0.12894322119E+04  0.00000000000E+00 0.  1.
         21   -1    0    0  501  502  0.00000000000E+00 -0.00000000000E+00 -0.48210079579E+03  0.48210079579E+03  0.00000000000E+00 0.  1.
        -13    1    1    2    0    0 -0.20486873410E+03  0.37056099982E+03 -0.32544818575E+03  0.53404417942E+03  0.10566000000E+00 0.  1.
         13    1    1    2    0    0  0.12908203635E+03 -0.36184002918E+03  0.70424108821E+03  0.80221312649E+03  0.10566000000E+00 0. -1.
          4    1    1    2  501    0  0.75786697755E+02 -0.87209706402E+01  0.42853851367E+03  0.43527570181E+03  0.00000000000E+00 0.  1.
</event>
<event>
 5    1  0.4866530E-005  0.5644198E+03  0.7818608E-02  0.9822210E-01
         21   -1    0    0  501  502  0.00000000000E+00  0.00000000000E+00  0.14636789513E+03  0.14636789513E+03  0.00000000000E+00 0. -1.
         -4   -1    0    0    0  501 -0.00000000000E+00 -0.00000000000E+00 -0.30747033939E+04  0.30747033939E+04  0.00000000000E+00 0. -1.
        -13    1    1    2    0    0  0.35828234430E+02  0.97021136469E+02 -0.10820825304E+03  0.14968567231E+03  0.10566000000E+00 0.  1.
         13    1    1    2    0    0  0.53520189393E+03 -0.13944293125E+03 -0.19717837845E+04  0.20478810274E+04  0.10566000000E+00 0. -1.
         -4    1    1    2    0  502 -0.57103012836E+03  0.42421794783E+02 -0.84834346125E+03  0.10235045893E+04  0.00000000000E+00 0. -1.
</event>
<event>
 5    1  0.4866530E-005  0.4730674E+03  0.7818608E-02  0.9539040E-01
         21   -1    0    0  501  502  0.00000000000E+00  0.00000000000E+00  0.23187292299E+03  0.23187292299E+03  0.00000000000E+00 0. -1.
         -4   -1    0    0    0  501 -0.00000000000E+00 -0.00000000000E+00 -0.22133754569E+04  0.22133754569E+04  0.00000000000E+00 0. -1.
        -13    1    1    2    0    0 -0.25373206445E+03  0.24024250860E+03 -0.43241024535E+03  0.55594519057E+03  0.10566000000E+00 0.  1.
         13    1    1    2    0    0  0.49472080726E+03 -0.31243685520E+03 -0.15287636900E+04  0.16369129167E+04  0.10566000000E+00 0. -1.
         -4    1    1    2    0  502 -0.24098874280E+03  0.72194346593E+02 -0.20328598595E+02  0.25239027271E+03  0.00000000000E+00 0. -1.
</event>
<event>
 5    1  0.4866530E-005  0.1499715E+03  0.7818608E-02  0.1101140E+00
         21   -1    0    0  501  502  0.00000000000E+00  0.00000000000E+00  0.38138455777E+03  0.38138455777E+03  0.00000000000E+00 0. -1.
          4   -1    0    0  502    0 -0.00000000000E+00 -0.00000000000E+00 -0.38705859741E+03  0.38705859741E+03  0.00000000000E+00 0.  1.
        -13    1    1    2    0    0 -0.13176734483E+03 -0.70222172151E+02 -0.34270778297E+03  0.37382137753E+03  0.10566000000E+00 0.  1.
         13    1    1    2    0    0  0.14530275666E+03  0.66434875830E+02  0.19590518233E+03  0.25279504632E+03  0.10566000000E+00 0. -1.
          4    1    1    2  501    0 -0.13535411825E+02  0.37872963209E+01  0.14112856100E+03  0.14182673132E+03  0.00000000000E+00 0.  1.
</event>
<event>
 5    1  0.4866530E-005  0.6032508E+02  0.7818608E-02  0.1258483E+00
         21   -1    0    0  501  502  0.00000000000E+00  0.00000000000E+00  0.24602784020E+03  0.24602784020E+03  0.00000000000E+00 0. -1.
         -4   -1    0    0    0  501 -0.00000000000E+00 -0.00000000000E+00 -0.49740993036E+03  0.49740993036E+03  0.00000000000E+00 0. -1.
        -13    1    1    2    0    0 -0.22317084839E+02  0.51059829217E+02 -0.44827862961E+02  0.71517179034E+02  0.10566000000E+00 0.  1.
         13    1    1    2    0    0  0.27281476458E+02 -0.11070099473E+03 -0.42779536102E+03  0.44272776202E+03  0.10566000000E+00 0. -1.
         -4    1    1    2    0  502 -0.49643916190E+01  0.59641165513E+02  0.22124113381E+03  0.22919282951E+03  0.00000000000E+00 0. -1.
</event>
<event>
 5    1  0.4866530E-005  0.1372411E+03  0.7818608E-02  0.1114425E+00
         21   -1    0    0  501  502  0.00000000000E+00  0.00000000000E+00  0.15495485214E+03  0.15495485214E+03  0.00000000000E+00 0. -1.
          4   -1    0    0  502    0 -0.00000000000E+00 -0.00000000000E+00 -0.22660208727E+03  0.22660208727E+03  0.00000000000E+00 0.  1.
        -13    1    1    2    0    0  0.13679474792E+03 -0.10660861093E+03 -0.44157560141E+02  0.17896396359E+03  0.10566000000E+00 0.  1.
         13    1    1    2    0    0 -0.10954767657E+03  0.45733477884E+02 -0.54516295757E+02  0.13063032614E+03  0.10566000000E+00 0. -1.
          4    1    1    2  501    0 -0.27247071346E+02  0.60875133042E+02  0.27026620769E+02  0.71962649687E+02  0.00000000000E+00 0.  1.
</event>
<event>
 5    1  0.4866530E-005  0.3583253E+02  0.7818608E-02  0.1363388E+00
         21   -1    0    0  501  502  0.00000000000E+00  0.00000000000E+00  0.86281820256E+03  0.86281820256E+03  0.00000000000E+00 0. -1.
         -4   -1    0    0    0  501 -0.00000000000E+00 -0.00000000000E+00 -0.53779494726E+01  0.53779494726E+01  0.00000000000E+00 0. -1.
        -13    1    1    2    0    0  0.71416932733E+01 -0.41470755145E+02  0.11190364573E+03  0.11955444118E+03  0.10566000000E+00 0.  1.
         13    1    1    2    0    0 -0.61660657113E+01  0.27771656271E+02  0.13567110585E+03  0.13862159061E+03  0.10566000000E+00 0. -1.
         -4    1    1    2    0  502 -0.97562756198E+00  0.13699098875E+02  0.60986550152E+03  0.61002012024E+03  0.00000000000E+00 0. -1.
</event>
<event>
 5    1  0.4866530E-005  0.4146495E+03  0.7818608E-02  0.9987458E-01
          4   -1    0    0  502    0 -0.00000000000E+00  0.00000000000E+00  0.25426448777E+04  0.25426448777E+04  0.00000000000E+00 0.  1.
         21   -1    0    0  501  502  0.00000000000E+00 -0.00000000000E+00 -0.12284671817E+03  0.12284671817E+03  0.00000000000E+00 0.  1.
        -13    1    1    2    0    0  0.40497010235E+03  0.11627812849E+03  0.16284663572E+04  0.16820891994E+04  0.10566000000E+00 0.  1.
         13    1    1    2    0    0 -0.68429137691E+02  0.13365386318E+03  0.31449758075E+03  0.34850343110E+03  0.10566000000E+00 0. -1.
          4    1    1    2  501    0 -0.33654096466E+03 -0.24993199167E+03  0.47683422151E+03  0.63489896532E+03  0.00000000000E+00 0.  1.
</event>
<event>
 5    1  0.4866530E-005  0.3189731E+03  0.7818608E-02  0.1015982E+00
         21   -1    0    0  501  502  0.00000000000E+00  0.00000000000E+00  0.13415437621E+04  0.13415437621E+04  0.00000000000E+00 0. -1.
         -4   -1    0    0    0  501 -0.00000000000E+00 -0.00000000000E+00 -0.23321173047E+03  0.23321173047E+03  0.00000000000E+00 0. -1.
        -13    1    1    2    0    0 -0.16180475851E+03 -0.97721622657E+02  0.22184221972E+03  0.29145201496E+03  0.10566000000E+00 0.  1.
         13    1    1    2    0    0  0.27560068706E+03  0.37165245177E+03  0.14530942883E+03  0.48497023093E+03  0.10566000000E+00 0. -1.
         -4    1    1    2    0  502 -0.11379592855E+03 -0.27393082911E+03  0.74118038310E+03  0.79833324670E+03  0.00000000000E+00 0. -1.
</event>
<event>
 5    1  0.4866530E-005  0.1906471E+03  0.7818608E-02  0.1066744E+00
         21   -1    0    0  501  502  0.00000000000E+00  0.00000000000E+00  0.10090121609E+03  0.10090121609E+03  0.00000000000E+00 0. -1.
          4   -1    0    0  502    0 -0.00000000000E+00 -0.00000000000E+00 -0.77070839721E+03  0.77070839721E+03  0.00000000000E+00 0.  1.
        -13    1    1    2    0    0 -0.18579545481E+03  0.43192453426E+02 -0.62302952403E+03  0.65157604164E+03  0.10566000000E+00 0.  1.
         13    1    1    2    0    0  0.19015334940E+03 -0.20630955832E+02 -0.47368321865E+02  0.19704746054E+03  0.10566000000E+00 0. -1.
          4    1    1    2  501    0 -0.43578945879E+01 -0.22561497593E+02  0.59066477733E+00  0.22986111106E+02  0.00000000000E+00 0.  1.
</event>
<event>
 5    1  0.4866530E-005  0.4913861E+03  0.7818608E-02  0.9832234E-01
         -4   -1    0    0    0  501 -0.00000000000E+00  0.00000000000E+00  0.23816947284E+04  0.23816947284E+04  0.00000000000E+00 0. -1.
         21   -1    0    0  501  502  0.00000000000E+00 -0.00000000000E+00 -0.15219422962E+03  0.15219422962E+03  0.00000000000E+00 0. -1.
        -13    1    1    2    0    0 -0.38341967480E+02  0.14655749596E+03  0.60690858691E+03  0.62552957574E+03  0.10566000000E+00 0.  1.
         13    1    1    2    0    0 -0.47200250828E+03 -0.89344431614E+01  0.68259190402E+03  0.82993849814E+03  0.10566000000E+00 0. -1.
         -4    1    1    2    0  502  0.51034447576E+03 -0.13762305280E+03  0.94000000788E+03  0.10784208842E+04  0.00000000000E+00 0. -1.
</event>
<event>
 5    1  0.4866530E-005  0.4652038E+03  0.7818608E-02  0.1004057E+00
         21   -1    0    0  501  502  0.00000000000E+00  0.00000000000E+00  0.13126844033E+04  0.13126844033E+04  0.00000000000E+00 0. -1.
         -4   -1    0    0    0  501 -0.00000000000E+00 -0.00000000000E+00 -0.45444252576E+03  0.45444252576E+03  0.00000000000E+00 0. -1.
        -13    1    1    2    0    0  0.82976072332E+02 -0.33242521908E+02 -0.27448601818E+03  0.28867400157E+03  0.10566000000E+00 0.  1.
         13    1    1    2    0    0 -0.42048271123E+03  0.29960655085E+03  0.55121779239E+03  0.75525549423E+03  0.10566000000E+00 0. -1.
         -4    1    1    2    0  502  0.33750663890E+03 -0.26636402894E+03  0.58151010336E+03  0.72319743330E+03  0.00000000000E+00 0. -1.
</event>
<event>
 5    1  0.4866530E-005  0.1328044E+03  0.7818608E-02  0.1132645E+00
         -4   -1    0    0    0  501 -0.00000000000E+00  0.00000000000E+00  0.28442707453E+03  0.28442707453E+03  0.00000000000E+00 0. -1.
         21   -1    0    0  501  502  0.00000000000E+00 -0.00000000000E+00 -0.24408557620E+03  0.24408557620E+03  0.00000000000E+00 0. -1.
        -13    1    1    2    0    0  0.34956382897E+02  0.87642966775E+02 -0.98979961596E+02  0.13674897547E+03  0.10566000000E+00 0.  1.
         13    1    1    2    0    0  0.11593058822E+02 -0.19920965725E+03  0.17532586012E+03  0.26562766224E+03  0.10566000000E+00 0. -1.
         -4    1    1    2    0  502 -0.46549441718E+02  0.11156669047E+03 -0.36004400195E+02  0.12613601302E+03  0.00000000000E+00 0. -1.
</event>
<event>
 5    1  0.4866530E-005  0.4583077E+03  0.7818608E-02  0.9664994E-01
          4   -1    0    0  502    0 -0.00000000000E+00  0.00000000000E+00  0.19987140479E+04  0.19987140479E+04  0.00000000000E+00 0.  1.
         21   -1    0    0  501  502  0.00000000000E+00 -0.00000000000E+00 -0.22892776155E+03  0.22892776155E+03  0.00000000000E+00 0.  1.
        -13    1    1    2    0    0  0.10994437612E+03  0.29740597331E+03  0.82914966750E+03  0.88770899571E+03  0.10566000000E+00 0.  1.
         13    1    1    2    0    0  0.32800043737E+03  0.54139421854E+02  0.59192282056E+03  0.67888732540E+03  0.10566000000E+00 0. -1.
          4    1    1    2  501    0 -0.43794481349E+03 -0.35154539516E+03  0.34871379827E+03  0.66104548832E+03  0.00000000000E+00 0.  1.
</event>
<event>
 5    1  0.4866530E-005  0.1789522E+03  0.7818608E-02  0.1075609E+00
         21   -1    0    0  501  502  0.00000000000E+00  0.00000000000E+00  0.34874149945E+03  0.34874149945E+03  0.00000000000E+00 0. -1.
          4   -1    0    0  502    0 -0.00000000000E+00 -0.00000000000E+00 -0.16034823659E+03  0.16034823659E+03  0.00000000000E+00 0.  1.
        -13    1    1    2    0    0  0.11714952135E+03  0.13591011890E+03 -0.58142558554E+02  0.18861638065E+03  0.10566000000E+00 0.  1.
         13    1    1    2    0    0 -0.96288853007E+02 -0.15029957371E+03  0.22508696016E+03  0.28727279000E+03  0.10566000000E+00 0. -1.
          4    1    1    2  501    0 -0.20860668344E+02  0.14389454817E+02  0.21448861245E+02  0.33200565392E+02  0.00000000000E+00 0.  1.
</event>
<event>
 5    1  0.4866530E-005  0.3750647E+03  0.7818608E-02  0.1005114E+00
          4   -1    0    0  502    0 -0.00000000000E+00  0.00000000000E+00  0.69701744674E+03  0.69701744674E+03  0.00000000000E+00 0.  1.
         21   -1    0    0  501  502  0.00000000000E+00 -0.00000000000E+00 -0.47653166389E+03  0.47653166389E+03  0.00000000000E+00 0.  1.
        -13    1    1    2    0    0 -0.33507999804E+03  0.23832354935E+03  0.39980825842E+03  0.57351841638E+03  0.10566000000E+00 0.  1.
         13    1    1    2    0    0 -0.30277604968E+02 -0.16200335851E+03  0.36609908699E+02  0.16882570334E+03  0.10566000000E+00 0. -1.
          4    1    1    2  501    0  0.36535760301E+03 -0.76320190840E+02 -0.21593238427E+03  0.43120499091E+03  0.00000000000E+00 0.  1.
</event>
<event>
 5    1  0.4866530E-005  0.1533447E+03  0.7818608E-02  0.1097859E+00
         21   -1    0    0  501  502  0.00000000000E+00  0.00000000000E+00  0.15492545815E+03  0.15492545815E+03  0.00000000000E+00 0.  1.
         -4   -1    0    0    0  501 -0.00000000000E+00 -0.00000000000E+00 -0.21112342840E+03  0.21112342840E+03  0.00000000000E+00 0. -1.
        -13    1    1    2    0    0 -0.16498444200E+03  0.80743982467E+01 -0.36296868567E+02  0.16912284246E+03  0.10566000000E+00 0.  1.
         13    1    1    2    0    0  0.14373057403E+03 -0.15873271691E+02 -0.55374047741E+02  0.15484422816E+03  0.10566000000E+00 0. -1.
         -4    1    1    2    0  502  0.21253867967E+02  0.77988734445E+01  0.35472946059E+02  0.42081815939E+02  0.00000000000E+00 0. -1.
</event>
<event>
 5    1  0.4866530E-005  0.4773100E+03  0.7818608E-02  0.9721580E-01
         21   -1    0    0  501  502  0.00000000000E+00  0.00000000000E+00  0.39607926673E+03  0.39607926673E+03  0.00000000000E+00 0. -1.
         -4   -1    0    0    0  501 -0.00000000000E+00 -0.00000000000E+00 -0.12108459277E+04  0.12108459277E+04  0.00000000000E+00 0. -1.
        -13    1    1    2    0    0  0.74592027294E+02 -0.22978295382E+03 -0.47298343861E+03  0.53110970690E+03  0.10566000000E+00 0.  1.
         13    1    1    2    0    0 -0.27651502483E+03  0.56443945692E+03 -0.22995636547E+03  0.66927752141E+03  0.10566000000E+00 0. -1.
         -4    1    1    2    0  502  0.20192299753E+03 -0.33465650310E+03 -0.11182685692E+03  0.40653796616E+03  0.00000000000E+00 0. -1.
</event>
<event>
 5    1  0.4866530E-005  0.8005205E+02  0.7818608E-02  0.1202576E+00
          4   -1    0    0  502    0 -0.00000000000E+00  0.00000000000E+00  0.49065923059E+03  0.49065923059E+03  0.00000000000E+00 0.  1.
         21   -1    0    0  501  502  0.00000000000E+00 -0.00000000000E+00 -0.34362143916E+02  0.34362143916E+02  0.00000000000E+00 0. -1.
        -13    1    1    2    0    0  0.45556142656E+02  0.66538746497E+02  0.41885914465E+03  0.42655100649E+03  0.10566000000E+00 0.  1.
         13    1    1    2    0    0 -0.53191235307E+02 -0.55915009899E+02  0.36454585448E+02  0.85350710657E+02  0.10566000000E+00 0. -1.
          4    1    1    2  501    0  0.76350926518E+01 -0.10623736598E+02  0.98335658220E+00  0.13119657361E+02  0.00000000000E+00 0.  1.
</event>
<event>
 5    1  0.4866530E-005  0.2450663E+03  0.7818608E-02  0.1055884E+00
         21   -1    0    0  501  502  0.00000000000E+00  0.00000000000E+00  0.28555440733E+03  0.28555440733E+03  0.00000000000E+00 0.  1.
          4   -1    0    0  502    0 -0.00000000000E+00 -0.00000000000E+00 -0.18683191760E+04  0.18683191760E+04  0.00000000000E+00 0.  1.
        -13    1    1    2    0    0 -0.16081731946E+03 -0.65496911853E+02  0.14813986963E+03  0.22824874116E+03  0.10566000000E+00 0.  1.
         13    1    1    2    0    0  0.13699162523E+03 -0.31743709060E+03 -0.34825354171E+03  0.49072757448E+03  0.10566000000E+00 0. -1.
          4    1    1    2  501    0  0.23825694229E+02  0.38293400246E+03 -0.13826510966E+04  0.14348972677E+04  0.00000000000E+00 0.  1.
</event>
<event>
 5    1  0.4866530E-005  0.6209361E+02  0.7818608E-02  0.1279670E+00
         21   -1    0    0  501  502  0.00000000000E+00  0.00000000000E+00  0.55354813572E+02  0.55354813572E+02  0.00000000000E+00 0.  1.
          4   -1    0    0  502    0 -0.00000000000E+00 -0.00000000000E+00 -0.25653360596E+03  0.25653360596E+03  0.00000000000E+00 0.  1.
        -13    1    1    2    0    0  0.51226086754E+02 -0.60860168305E+02 -0.17021754681E+03  0.18788852135E+03  0.10566000000E+00 0.  1.
         13    1    1    2    0    0  0.26315808786E+01  0.33094550165E+02 -0.50411234429E+02  0.60361230846E+02  0.10566000000E+00 0. -1.
          4    1    1    2  501    0 -0.53857667633E+02  0.27765618141E+02  0.19449988851E+02  0.63638667333E+02  0.00000000000E+00 0.  1.
</event>
<event>
 5    1  0.4866530E-005  0.5008042E+03  0.7818608E-02  0.1002509E+00
         -4   -1    0    0    0  501 -0.00000000000E+00  0.00000000000E+00  0.33762884300E+04  0.33762884300E+04  0.00000000000E+00 0. -1.
         21   -1    0    0  501  502  0.00000000000E+00 -0.00000000000E+00 -0.10008131676E+03  0.10008131676E+03  0.00000000000E+00 0. -1.
        -13    1    1    2    0    0 -0.51432166159E+02 -0.55064309755E+02  0.35999691109E+02  0.83506495847E+02  0.10566000000E+00 0.  1.
         13    1    1    2    0    0  0.38449613727E+03  0.38018795157E+03  0.17169569816E+04  0.18000892883E+04  0.10566000000E+00 0. -1.
         -4    1    1    2    0  502 -0.33306397112E+03 -0.32512364182E+03  0.15232504406E+04  0.15927739626E+04  0.00000000000E+00 0. -1.
</event>
<event>
 5    1  0.4866530E-005  0.4137374E+03  0.7818608E-02  0.9690188E-01
         21   -1    0    0  501  502  0.00000000000E+00  0.00000000000E+00  0.79178465802E+03  0.79178465802E+03  0.00000000000E+00 0.  1.
          4   -1    0    0  502    0 -0.00000000000E+00 -0.00000000000E+00 -0.90809302334E+03  0.90809302334E+03  0.00000000000E+00 0.  1.
        -13    1    1    2    0    0 -0.15284341462E+03  0.27581835278E+03  0.33772987796E+03  0.46205882175E+03  0.10566000000E+00 0.  1.
         13    1    1    2    0    0 -0.84249230706E+02 -0.53099249467E+03  0.13425224648E+03  0.55414315761E+03  0.10566000000E+00 0. -1.
          4    1    1    2  501    0  0.23709264533E+03  0.25517414190E+03 -0.58829048977E+03  0.68367570201E+03  0.00000000000E+00 0.  1.
</event>
<event>
 5    1  0.4866530E-005  0.2645491E+03  0.7818608E-02  0.1023117E+00
         -4   -1    0    0    0  501 -0.00000000000E+00  0.00000000000E+00  0.67097285960E+03  0.67097285960E+03  0.00000000000E+00 0. -1.
         21   -1    0    0  501  502  0.00000000000E+00 -0.00000000000E+00 -0.16334810295E+03  0.16334810295E+03  0.00000000000E+00 0. -1.
        -13    1    1    2    0    0 -0.16442958138E+03 -0.19943563656E+03  0.35454504406E+03  0.43876401378E+03  0.10566000000E+00 0.  1.
         13    1    1    2    0    0  0.16843710249E+03  0.21684649120E+03  0.20369263243E+03  0.34188325187E+03  0.10566000000E+00 0. -1.
         -4    1    1    2    0  502 -0.40075211071E+01 -0.17410854647E+02 -0.50612919824E+02  0.53673696893E+02  0.00000000000E+00 0. -1.
</event>
<event>
 5    1  0.4866530E-005  0.2071983E+03  0.7818608E-02  0.1062070E+00
         21   -1    0    0  501  502  0.00000000000E+00  0.00000000000E+00  0.12821445033E+04  0.12821445033E+04  0.00000000000E+00 0.  1.
          4   -1    0    0  502    0 -0.00000000000E+00 -0.00000000000E+00 -0.40598990181E+03  0.40598990181E+03  0.00000000000E+00 0.  1.
        -13    1    1    2    0    0  0.10872124862E+03  0.17961469374E+03  0.11809631008E+04  0.11994813899E+04  0.10566000000E+00 0.  1.
         13    1    1    2    0    0  0.98571521780E+02 -0.13852885250E+03 -0.14943559373E+03  0.22635723032E+03  0.10566000000E+00 0. -1.
          4    1    1    2  501    0 -0.20729277040E+03 -0.41085841235E+02 -0.15537290555E+03  0.26229578492E+03  0.00000000000E+00 0.  1.
</event>
<event>
 5    1  0.4866530E-005  0.2425239E+02  0.7818608E-02  0.1458070E+00
         -4   -1    0    0    0  501 -0.00000000000E+00  0.00000000000E+00  0.66361897315E+02  0.66361897315E+02  0.00000000000E+00 0. -1.
         21   -1    0    0  501  502  0.00000000000E+00 -0.00000000000E+00 -0.33741538106E+02  0.33741538106E+02  0.00000000000E+00 0. -1.
        -13    1    1    2    0    0  0.28570387543E+02  0.42545881765E+01  0.31368316176E+02  0.42642126925E+02  0.10566000000E+00 0.  1.
         13    1    1    2    0    0 -0.20930868492E+02  0.56685170379E+01  0.23471625316E+02  0.31955620793E+02  0.10566000000E+00 0. -1.
         -4    1    1    2    0  502 -0.76395190507E+01 -0.99231052144E+01 -0.22219582283E+02  0.25505687704E+02  0.00000000000E+00 0. -1.
</event>
<event>
 5    1  0.4866530E-005  0.4179401E+03  0.7818608E-02  0.9678617E-01
         21   -1    0    0  501  502  0.00000000000E+00  0.00000000000E+00  0.34128598360E+03  0.34128598360E+03  0.00000000000E+00 0. -1.
         -4   -1    0    0    0  501 -0.00000000000E+00 -0.00000000000E+00 -0.18711639190E+04  0.18711639190E+04  0.00000000000E+00 0. -1.
        -13    1    1    2    0    0 -0.24662071524E+03 -0.26000700006E+03 -0.84167040062E+03  0.91478658261E+03  0.10566000000E+00 0.  1.
         13    1    1    2    0    0  0.29533075131E+03  0.47980507122E+03 -0.85046174622E+03  0.10201560430E+04  0.10566000000E+00 0. -1.
         -4    1    1    2    0  502 -0.48710036068E+02 -0.21979807116E+03  0.16225421142E+03  0.27750727706E+03  0.00000000000E+00 0. -1.
</event>
<event>
 5    1  0.4866530E-005  0.4793579E+03  0.7818608E-02  0.9773109E-01
         21   -1    0    0  501  502  0.00000000000E+00  0.00000000000E+00  0.82738471444E+03  0.82738471444E+03  0.00000000000E+00 0.  1.
          4   -1    0    0  502    0 -0.00000000000E+00 -0.00000000000E+00 -0.53949087279E+03  0.53949087279E+03  0.00000000000E+00 0.  1.
        -13    1    1    2    0    0  0.58525689854E+03  0.16319818222E+03 -0.47504154691E+02  0.60943903702E+03  0.10566000000E+00 0.  1.
         13    1    1    2    0    0 -0.19703319196E+03 -0.32268094582E+02  0.28015617323E+03  0.34402151273E+03  0.10566000000E+00 0. -1.
          4    1    1    2  501    0 -0.38822370658E+03 -0.13093008764E+03  0.55241823117E+02  0.41341503748E+03  0.00000000000E+00 0.  1.
</event>
<event>
 5    1  0.4866530E-005  0.6941493E+02  0.7818608E-02  0.1252913E+00
         -4   -1    0    0    0  501 -0.00000000000E+00  0.00000000000E+00  0.45791741599E+03  0.45791741599E+03  0.00000000000E+00 0. -1.
         21   -1    0    0  501  502  0.00000000000E+00 -0.00000000000E+00 -0.52857097910E+02  0.52857097910E+02  0.00000000000E+00 0. -1.
        -13    1    1    2    0    0 -0.56151392021E+01  0.40679815910E+02  0.18822029214E+03  0.19264803853E+03  0.10566000000E+00 0.  1.
         13    1    1    2    0    0  0.73203495069E+02 -0.23394383972E+02  0.23398876613E+03  0.24628601814E+03  0.10566000000E+00 0. -1.
         -4    1    1    2    0  502 -0.67588355867E+02 -0.17285431939E+02 -0.17148740187E+02  0.71840457238E+02  0.00000000000E+00 0. -1.
</event>
<event>
 5    1  0.4866530E-005  0.3836431E+03  0.7818608E-02  0.9788528E-01
          4   -1    0    0  502    0 -0.00000000000E+00  0.00000000000E+00  0.12989367210E+04  0.12989367210E+04  0.00000000000E+00 0.  1.
         21   -1    0    0  501  502  0.00000000000E+00 -0.00000000000E+00 -0.43951033557E+03  0.43951033557E+03  0.00000000000E+00 0.  1.
        -13    1    1    2    0    0  0.67349663237E+02 -0.23705444476E+03  0.49270933860E+03  0.55090225125E+03  0.10566000000E+00 0.  1.
         13    1    1    2    0    0 -0.38437828288E+03 -0.71389917655E+02  0.57764558996E+03  0.69750815297E+03  0.10566000000E+00 0. -1.
          4    1    1    2  501    0  0.31702861965E+03  0.30844436241E+03 -0.21092854311E+03  0.49003665238E+03  0.00000000000E+00 0.  1.
</event>
<event>
 5    1  0.4866530E-005  0.5017304E+03  0.7818608E-02  0.1039481E+00
         21   -1    0    0  501  502  0.00000000000E+00  0.00000000000E+00  0.52573308943E+03  0.52573308943E+03  0.00000000000E+00 0. -1.
         -4   -1    0    0    0  501 -0.00000000000E+00 -0.00000000000E+00 -0.62672746780E+03  0.62672746780E+03  0.00000000000E+00 0. -1.
        -13    1    1    2    0    0 -0.11132028239E+02  0.20603954593E+02 -0.13759673320E+03  0.13957548907E+03  0.10566000000E+00 0.  1.
         13    1    1    2    0    0  0.45673130059E+03 -0.22699135782E+03  0.93491588819E+02  0.51852603195E+03  0.10566000000E+00 0. -1.
         -4    1    1    2    0  502 -0.44559927236E+03  0.20638740323E+03 -0.56889233984E+02  0.49435903621E+03  0.00000000000E+00 0. -1.
</event>
<event>
 5    1  0.4866530E-005  0.4944436E+03  0.7818608E-02  0.9650244E-01
         21   -1    0    0  501  502  0.00000000000E+00  0.00000000000E+00  0.35416077694E+03  0.35416077694E+03  0.00000000000E+00 0.  1.
          4   -1    0    0  502    0 -0.00000000000E+00 -0.00000000000E+00 -0.12229589370E+04  0.12229589370E+04  0.00000000000E+00 0.  1.
        -13    1    1    2    0    0  0.52422964567E+03 -0.23249608041E+03 -0.24621190679E+03  0.62409251158E+03  0.10566000000E+00 0.  1.
         13    1    1    2    0    0 -0.25340868586E+03 -0.11632250639E+03 -0.26701726201E+03  0.38606361773E+03  0.10566000000E+00 0. -1.
          4    1    1    2  501    0 -0.27082095981E+03  0.34881858680E+03 -0.35556899130E+03  0.56696358467E+03  0.00000000000E+00 0.  1.
</event>
<event>
 5    1  0.4866530E-005  0.4129357E+03  0.7818608E-02  0.9864976E-01
         21   -1    0    0  501  502  0.00000000000E+00  0.00000000000E+00  0.13732575265E+03  0.13732575265E+03  0.00000000000E+00 0.  1.
          4   -1    0    0  502    0 -0.00000000000E+00 -0.00000000000E+00 -0.28488577606E+04  0.28488577606E+04  0.00000000000E+00 0.  1.
        -13    1    1    2    0    0 -0.39079775810E+02 -0.32254139225E+03 -0.18349966788E+04  0.18635377649E+04  0.10566000000E+00 0.  1.
         13    1    1    2    0    0 -0.22519247499E+03 -0.38885244938E+02 -0.44779519917E+03  0.50273677469E+03  0.10566000000E+00 0. -1.
          4    1    1    2  501    0  0.26427225080E+03  0.36142663719E+03 -0.42874012990E+03  0.61990897364E+03  0.00000000000E+00 0.  1.
</event>
<event>
 5    1  0.4866530E-005  0.4806258E+03  0.7818608E-02  0.9521478E-01
         21   -1    0    0  501  502  0.00000000000E+00  0.00000000000E+00  0.10748349763E+04  0.10748349763E+04  0.00000000000E+00 0. -1.
          4   -1    0    0  502    0 -0.00000000000E+00 -0.00000000000E+00 -0.31684141644E+03  0.31684141644E+03  0.00000000000E+00 0.  1.
        -13    1    1    2    0    0  0.19445199339E+03 -0.44556765010E+03  0.17808743965E+03  0.51774246096E+03  0.10566000000E+00 0.  1.
         13    1    1    2    0    0 -0.22440712647E+03  0.41897785973E+03  0.24142649879E+03  0.53309264752E+03  0.10566000000E+00 0. -1.
          4    1    1    2  501    0  0.29955133082E+02  0.26589790374E+02  0.33847962139E+03  0.34084128424E+03  0.00000000000E+00 0.  1.
</event>
<event>
 5    1  0.4866530E-005  0.4888849E+03  0.7818608E-02  0.9797360E-01
         -4   -1    0    0    0  501 -0.00000000000E+00  0.00000000000E+00  0.60335297698E+03  0.60335297698E+03  0.00000000000E+00 0. -1.
         21   -1    0    0  501  502  0.00000000000E+00 -0.00000000000E+00 -0.79376706886E+03  0.79376706886E+03  0.00000000000E+00 0. -1.
        -13    1    1    2    0    0 -0.13260539991E+03  0.11144098669E+03  0.23829207849E+03  0.29459533506E+03  0.10566000000E+00 0.  1.
         13    1    1    2    0    0 -0.43585944306E+03 -0.73290718520E+02 -0.23622342724E+03  0.50114519080E+03  0.10566000000E+00 0. -1.
         -4    1    1    2    0  502  0.56846484297E+03 -0.38150268174E+02 -0.19248274313E+03  0.60137951999E+03  0.00000000000E+00 0. -1.
</event>
<event>
 5    1  0.4866530E-005  0.3930540E+03  0.7818608E-02  0.1008990E+00
         21   -1    0    0  501  502  0.00000000000E+00  0.00000000000E+00  0.80010500784E+03  0.80010500784E+03  0.00000000000E+00 0.  1.
          4   -1    0    0  502    0 -0.00000000000E+00 -0.00000000000E+00 -0.43794316955E+03  0.43794316955E+03  0.00000000000E+00 0.  1.
        -13    1    1    2    0    0 -0.31483640341E+03 -0.21107153842E+03  0.37096505266E+03  0.53036613457E+03  0.10566000000E+00 0.  1.
         13    1    1    2    0    0 -0.36918978875E+00 -0.12633855204E+03  0.17062615502E+03  0.21230841239E+03  0.10566000000E+00 0. -1.
          4    1    1    2  501    0  0.31520559320E+03  0.33741009046E+03 -0.17942936939E+03  0.49537363043E+03  0.00000000000E+00 0.  1.
</event>
<event>
 5    1  0.4866530E-005  0.1734031E+03  0.7818608E-02  0.1080076E+00
         21   -1    0    0  501  502  0.00000000000E+00  0.00000000000E+00  0.43710565572E+03  0.43710565572E+03  0.00000000000E+00 0.  1.
          4   -1    0    0  502    0 -0.00000000000E+00 -0.00000000000E+00 -0.49090963439E+03  0.49090963439E+03  0.00000000000E+00 0.  1.
        -13    1    1    2    0    0  0.15793578322E+03  0.94422528052E+02 -0.24816863782E+03  0.30894499411E+03  0.10566000000E+00 0.  1.
         13    1    1    2    0    0 -0.15172075048E+03 -0.60861449823E+02 -0.18000003679E+03  0.24315288731E+03  0.10566000000E+00 0. -1.
          4    1    1    2  501    0 -0.62150327456E+01 -0.33561078228E+02  0.37436469593E+03  0.37591740870E+03  0.00000000000E+00 0.  1.
</event>
<event>
 5    1  0.4866530E-005  0.6639585E+02  0.7818608E-02  0.1316839E+00
         21   -1    0    0  501  502  0.00000000000E+00  0.00000000000E+00  0.19691532634E+02  0.19691532634E+02  0.00000000000E+00 0.  1.
          4   -1    0    0  502    0 -0.00000000000E+00 -0.00000000000E+00 -0.42141708735E+03  0.42141708735E+03  0.00000000000E+00 0.  1.
        -13    1    1    2    0    0 -0.50185306549E+02 -0.56367974142E+02 -0.30910170639E+03  0.31818200697E+03  0.10566000000E+00 0.  1.
         13    1    1    2    0    0  0.28242420239E+01  0.12870007991E+02 -0.31761940602E+02  0.34386705040E+02  0.10566000000E+00 0. -1.
          4    1    1    2  501    0  0.47361064526E+02  0.43497966151E+02 -0.60861907729E+02  0.88539907977E+02  0.00000000000E+00 0.  1.
</event>
<event>
 5    1  0.4866530E-005  0.1149107E+03  0.7818608E-02  0.1141999E+00
         -4   -1    0    0    0  501 -0.00000000000E+00  0.00000000000E+00  0.37921447899E+03  0.37921447899E+03  0.00000000000E+00 0. -1.
         21   -1    0    0  501  502  0.00000000000E+00 -0.00000000000E+00 -0.16959538376E+03  0.16959538376E+03  0.00000000000E+00 0. -1.
        -13    1    1    2    0    0  0.12820186178E+03 -0.30931192261E+02  0.49406712941E+02  0.14083142571E+03  0.10566000000E+00 0.  1.
         13    1    1    2    0    0 -0.10978056005E+03  0.16202792759E+02  0.27198114660E+03  0.29374828872E+03  0.10566000000E+00 0. -1.
         -4    1    1    2    0  502 -0.18421301735E+02  0.14728399502E+02 -0.11176876431E+03  0.11423014832E+03  0.00000000000E+00 0. -1.
</event>
<event>
 5    1  0.4866530E-005  0.4925750E+03  0.7818608E-02  0.1012121E+00
         21   -1    0    0  501  502  0.00000000000E+00  0.00000000000E+00  0.26023364314E+03  0.26023364314E+03  0.00000000000E+00 0. -1.
         -4   -1    0    0    0  501 -0.00000000000E+00 -0.00000000000E+00 -0.10968686862E+04  0.10968686862E+04  0.00000000000E+00 0. -1.
        -13    1    1    2    0    0 -0.36377503742E+02  0.45240953473E+02 -0.35532954001E+02  0.68063710108E+02  0.10566000000E+00 0.  1.
         13    1    1    2    0    0 -0.47720968536E+03  0.14246089236E+02 -0.27291289585E+03  0.54992135324E+03  0.10566000000E+00 0. -1.
         -4    1    1    2    0  502  0.51358718911E+03 -0.59487042708E+02 -0.52818919323E+03  0.73911726601E+03  0.00000000000E+00 0. -1.
</event>
<event>
 5    1  0.4866530E-005  0.1983611E+03  0.7818608E-02  0.1061265E+00
         21   -1    0    0  501  502  0.00000000000E+00  0.00000000000E+00  0.90705213761E+02  0.90705213761E+02  0.00000000000E+00 0.  1.
         -4   -1    0    0    0  501 -0.00000000000E+00 -0.00000000000E+00 -0.12927250848E+04  0.12927250848E+04  0.00000000000E+00 0. -1.
        -13    1    1    2    0    0  0.21280354779E+03  0.62928495942E+02 -0.37034925300E+03  0.43174520949E+03  0.10566000000E+00 0.  1.
         13    1    1    2    0    0 -0.13668678177E+03 -0.14219937444E+03 -0.81740407326E+03  0.84086465531E+03  0.10566000000E+00 0. -1.
         -4    1    1    2    0  502 -0.76116766027E+02  0.79270878498E+02 -0.14266544825E+02  0.11082043381E+03  0.00000000000E+00 0. -1.
</event>
<event>
 5    1  0.4866530E-005  0.4974655E+03  0.7818608E-02  0.9634796E-01
         21   -1    0    0  501  502  0.00000000000E+00  0.00000000000E+00  0.19147322529E+04  0.19147322529E+04  0.00000000000E+00 0. -1.
         -4   -1    0    0    0  501 -0.00000000000E+00 -0.00000000000E+00 -0.28699486170E+03  0.28699486170E+03  0.00000000000E+00 0. -1.
        -13    1    1    2    0    0  0.87527396812E+02 -0.27553559809E+03  0.21247268183E+02  0.28988337065E+03  0.10566000000E+00 0.  1.
         13    1    1    2    0    0 -0.10848776476E+03  0.63524948452E+03  0.12424143595E+04  0.13996088577E+04  0.10566000000E+00 0. -1.
         -4    1    1    2    0  502  0.20960367948E+02 -0.35971388643E+03  0.36407576352E+03  0.51223488626E+03  0.00000000000E+00 0. -1.
</event>
<event>
 5    1  0.4866530E-005  0.3200266E+03  0.7818608E-02  0.9993652E-01
         21   -1    0    0  501  502  0.00000000000E+00  0.00000000000E+00  0.11023945050E+03  0.11023945050E+03  0.00000000000E+00 0. -1.
          4   -1    0    0  502    0 -0.00000000000E+00 -0.00000000000E+00 -0.17078370550E+04  0.17078370550E+04  0.00000000000E+00 0.  1.
        -13    1    1    2    0    0  0.33993373465E+03 -0.57479495377E+02 -0.11813266976E+04  0.12306061978E+04  0.10566000000E+00 0.  1.
         13    1    1    2    0    0 -0.27199484035E+03  0.63240130523E+02 -0.43485778928E+03  0.51679958915E+03  0.10566000000E+00 0. -1.
          4    1    1    2  501    0 -0.67938894297E+02 -0.57606351460E+01  0.18586882348E+02  0.70670718625E+02  0.00000000000E+00 0.  1.
</event>
<event>
 5    1  0.4866530E-005  0.4905342E+03  0.7818608E-02  0.9766524E-01
         21   -1    0    0  501  502  0.00000000000E+00  0.00000000000E+00  0.21290133064E+03  0.21290133064E+03  0.00000000000E+00 0.  1.
          4   -1    0    0  502    0 -0.00000000000E+00 -0.00000000000E+00 -0.22173294404E+04  0.22173294404E+04  0.00000000000E+00 0.  1.
        -13    1    1    2    0    0 -0.56387001045E+03 -0.22533102214E+02 -0.41272531753E+03  0.69914185132E+03  0.10566000000E+00 0.  1.
         13    1    1    2    0    0  0.16440149435E+03  0.96402853809E+02 -0.96918209850E+03  0.98774253365E+03  0.10566000000E+00 0. -1.
          4    1    1    2  501    0  0.39946851609E+03 -0.73869751595E+02 -0.62252069370E+03  0.74334638604E+03  0.00000000000E+00 0.  1.
</event>
<event>
 5    1  0.4866530E-005  0.5136328E+02  0.7818608E-02  0.1334715E+00
          4   -1    0    0  502    0 -0.00000000000E+00  0.00000000000E+00  0.19096929233E+03  0.19096929233E+03  0.00000000000E+00 0.  1.
         21   -1    0    0  501  502  0.00000000000E+00 -0.00000000000E+00 -0.46055436392E+02  0.46055436392E+02  0.00000000000E+00 0. -1.
        -13    1    1    2    0    0 -0.42299622498E+02  0.52338172977E+02  0.15232886553E+03  0.16653118882E+03  0.10566000000E+00 0.  1.
         13    1    1    2    0    0  0.58078384487E+01 -0.19547400364E+02 -0.65761398287E+01  0.21426353575E+02  0.10566000000E+00 0. -1.
          4    1    1    2  501    0  0.36491784049E+02 -0.32790772612E+02 -0.83886975808E+00  0.49067186327E+02  0.00000000000E+00 0.  1.
</event>
<event>
 5    1  0.4866530E-005  0.4930441E+03  0.7818608E-02  0.9737601E-01
         21   -1    0    0  501  502  0.00000000000E+00  0.00000000000E+00  0.14137430820E+03  0.14137430820E+03  0.00000000000E+00 0.  1.
          4   -1    0    0  502    0 -0.00000000000E+00 -0.00000000000E+00 -0.26384453069E+04  0.26384453069E+04  0.00000000000E+00 0.  1.
        -13    1    1    2    0    0  0.21801523081E+03 -0.35114498885E+03 -0.92662783158E+03  0.10146292887E+04  0.10566000000E+00 0.  1.
         13    1    1    2    0    0 -0.30003973361E+01 -0.20733978878E+03 -0.42033577185E+03  0.46870135765E+03  0.10566000000E+00 0. -1.
          4    1    1    2  501    0 -0.21501483347E+03  0.55848477763E+03 -0.11501073952E+04  0.12964889687E+04  0.00000000000E+00 0.  1.
</event>
<event>
 5    1  0.4866530E-005  0.1322424E+03  0.7818608E-02  0.1155625E+00
         -4   -1    0    0    0  501 -0.00000000000E+00  0.00000000000E+00  0.25039226952E+03  0.25039226952E+03  0.00000000000E+00 0. -1.
         21   -1    0    0  501  502  0.00000000000E+00 -0.00000000000E+00 -0.21150992417E+03  0.21150992417E+03  0.00000000000E+00 0. -1.
        -13    1    1    2    0    0 -0.22532888097E+01  0.53701408836E+02  0.99290880451E+02  0.11290530867E+03  0.10566000000E+00 0.  1.
         13    1    1    2    0    0 -0.13017932649E+03 -0.30795535760E+02 -0.13931903242E+03  0.19314457286E+03  0.10566000000E+00 0. -1.
         -4    1    1    2    0  502  0.13243261530E+03 -0.22905873076E+02  0.78910497314E+02  0.15585231215E+03  0.00000000000E+00 0. -1.
</event>
<event>
 5    1  0.4866530E-005  0.4919458E+03  0.7818608E-02  0.1007057E+00
         -4   -1    0    0    0  501 -0.00000000000E+00  0.00000000000E+00  0.65984988344E+03  0.65984988344E+03  0.00000000000E+00 0. -1.
         21   -1    0    0  501  502  0.00000000000E+00 -0.00000000000E+00 -0.42789612930E+03  0.42789612930E+03  0.00000000000E+00 0. -1.
        -13    1    1    2    0    0  0.40778849789E+02  0.55142439086E+02  0.14189744202E+02  0.70035442335E+02  0.10566000000E+00 0.  1.
         13    1    1    2    0    0  0.47367434225E+03 -0.45068191305E+02  0.60390412198E+02  0.47963062603E+03  0.10566000000E+00 0. -1.
         -4    1    1    2    0  502 -0.51445319204E+03 -0.10074247782E+02  0.15737359773E+03  0.53807994437E+03  0.00000000000E+00 0. -1.
</event>
<event>
 5    1  0.4866530E-005  0.3031703E+03  0.7818608E-02  0.1006005E+00
         -4   -1    0    0    0  501 -0.00000000000E+00  0.00000000000E+00  0.86605214850E+03  0.86605214850E+03  0.00000000000E+00 0. -1.
         21   -1    0    0  501  502  0.00000000000E+00 -0.00000000000E+00 -0.44973926481E+03  0.44973926481E+03  0.00000000000E+00 0. -1.
        -13    1    1    2    0    0  0.21043855860E+03  0.14460335293E+03  0.36966564560E+03  0.44927410044E+03  0.10566000000E+00 0.  1.
         13    1    1    2    0    0 -0.32972269218E+03 -0.32147408125E+03  0.28897543096E+03  0.54366299259E+03  0.10566000000E+00 0. -1.
         -4    1    1    2    0  502  0.11928413358E+03  0.17687072832E+03 -0.24232819287E+03  0.32285432027E+03  0.00000000000E+00 0. -1.
</event>
<event>
 5    1  0.4866530E-005  0.4766965E+03  0.7818608E-02  0.9767633E-01
         -4   -1    0    0    0  501 -0.00000000000E+00  0.00000000000E+00  0.28359831124E+03  0.28359831124E+03  0.00000000000E+00 0. -1.
         21   -1    0    0  501  502  0.00000000000E+00 -0.00000000000E+00 -0.14147115675E+04  0.14147115675E+04  0.00000000000E+00 0. -1.
        -13    1    1    2    0    0  0.10771026586E+03  0.17662335042E+03 -0.31963302246E+01  0.20689982353E+03  0.10566000000E+00 0.  1.
         13    1    1    2    0    0 -0.26869034449E+03 -0.51612350469E+03 -0.82082443328E+03  0.10061464778E+04  0.10566000000E+00 0. -1.
         -4    1    1    2    0  502  0.16098007863E+03  0.33950015427E+03 -0.30709249270E+03  0.48526357739E+03  0.00000000000E+00 0. -1.
</event>
<event>
 5    1  0.4866530E-005  0.2968543E+03  0.7818608E-02  0.1032746E+00
         -4   -1    0    0    0  501 -0.00000000000E+00  0.00000000000E+00  0.19740051021E+04  0.19740051021E+04  0.00000000000E+00 0. -1.
         21   -1    0    0  501  502  0.00000000000E+00 -0.00000000000E+00 -0.20584111574E+03  0.20584111574E+03  0.00000000000E+00 0. -1.
        -13    1    1    2    0    0  0.13714710504E+03 -0.21897932522E+02  0.67907814434E+03  0.69313489680E+03  0.10566000000E+00 0.  1.
         13    1    1    2    0    0  0.18331293063E+03 -0.22026407719E+03 -0.39039142531E+02  0.28921265541E+03  0.10566000000E+00 0. -1.
         -4    1    1    2    0  502 -0.32046003567E+03  0.24216200971E+03  0.11281249845E+04  0.11974986656E+04  0.00000000000E+00 0. -1.
</event>
<event>
 5    1  0.4866530E-005  0.7627126E+02  0.7818608E-02  0.1211173E+00
         -4   -1    0    0    0  501 -0.00000000000E+00  0.00000000000E+00  0.34835658247E+03  0.34835658247E+03  0.00000000000E+00 0. -1.
         21   -1    0    0  501  502  0.00000000000E+00 -0.00000000000E+00 -0.24407810590E+02  0.24407810590E+02  0.00000000000E+00 0.  1.
        -13    1    1    2    0    0 -0.53401063846E+02  0.50511738086E+02  0.16919930979E+03  0.18447635865E+03  0.10566000000E+00 0.  1.
         13    1    1    2    0    0  0.51950699631E+02 -0.60783421405E+02  0.15827977927E+03  0.17733019822E+03  0.10566000000E+00 0. -1.
         -4    1    1    2    0  502  0.14503642155E+01  0.10271683319E+02 -0.35303171801E+01  0.10957836190E+02  0.00000000000E+00 0. -1.
</event>
<event>
 5    1  0.4866530E-005  0.5008398E+03  0.7818608E-02  0.1004063E+00
         21   -1    0    0  501  502  0.00000000000E+00  0.00000000000E+00  0.42367771515E+03  0.42367771515E+03  0.00000000000E+00 0.  1.
          4   -1    0    0  502    0 -0.00000000000E+00 -0.00000000000E+00 -0.68886008727E+03  0.68886008727E+03  0.00000000000E+00 0.  1.
        -13    1    1    2    0    0 -0.46230537915E+03  0.13383753039E+03 -0.10528159422E+03  0.49266923323E+03  0.10566000000E+00 0.  1.
         13    1    1    2    0    0 -0.23029542904E+02  0.67813474505E+02 -0.42458046757E+01  0.71743049783E+02  0.10566000000E+00 0. -1.
          4    1    1    2  501    0  0.48533492205E+03 -0.20165100490E+03 -0.15565497323E+03  0.54812551941E+03  0.00000000000E+00 0.  1.
</event>
<event>
 5    1  0.4866530E-005  0.1051637E+03  0.7818608E-02  0.1156284E+00
         21   -1    0    0  501  502  0.00000000000E+00  0.00000000000E+00  0.25565699638E+03  0.25565699638E+03  0.00000000000E+00 0. -1.
          4   -1    0    0  502    0 -0.00000000000E+00 -0.00000000000E+00 -0.91450765318E+02  0.91450765318E+02  0.00000000000E+00 0.  1.
        -13    1    1    2    0    0  0.10702296054E+03  0.55636183769E+02 -0.22179254948E+02  0.12264269053E+03  0.10566000000E+00 0.  1.
         13    1    1    2    0    0 -0.67217297909E+02 -0.17066422411E+02  0.11130332754E+03  0.13114064891E+03  0.10566000000E+00 0. -1.
          4    1    1    2  501    0 -0.39805662629E+02 -0.38569761358E+02  0.75082158472E+02  0.93324422255E+02  0.00000000000E+00 0.  1.
</event>
<event>
 5    1  0.4866530E-005  0.3509616E+03  0.7818608E-02  0.9882463E-01
          4   -1    0    0  502    0 -0.00000000000E+00  0.00000000000E+00  0.13599777621E+04  0.13599777621E+04  0.00000000000E+00 0.  1.
         21   -1    0    0  501  502  0.00000000000E+00 -0.00000000000E+00 -0.13896679673E+03  0.13896679673E+03  0.00000000000E+00 0. -1.
        -13    1    1    2    0    0  0.12409701259E+03  0.33158142603E+03  0.62459704817E+03  0.71796085852E+03  0.10566000000E+00 0.  1.
         13    1    1    2    0    0 -0.13625219804E+03 -0.32045119376E+03  0.64318357808E+03  0.73139507472E+03  0.10566000000E+00 0. -1.
          4    1    1    2  501    0  0.12155185449E+02 -0.11130232271E+02 -0.46769660904E+02  0.49588625558E+02  0.00000000000E+00 0.  1.
</event>
<event>
 5    1  0.4866530E-005  0.2488903E+02  0.7818608E-02  0.1466156E+00
         21   -1    0    0  501  502  0.00000000000E+00  0.00000000000E+00  0.59394137712E+02  0.59394137712E+02  0.00000000000E+00 0.  1.
         -4   -1    0    0    0  501 -0.00000000000E+00 -0.00000000000E+00 -0.42738196001E+02  0.42738196001E+02  0.00000000000E+00 0. -1.
        -13    1    1    2    0    0 -0.11437693737E+02  0.16188316059E+02  0.35750869455E+02  0.40878090044E+02  0.10566000000E+00 0.  1.
         13    1    1    2    0    0  0.26470417756E+02  0.53297124213E+01 -0.22020777727E+02  0.34842713246E+02  0.10566000000E+00 0. -1.
         -4    1    1    2    0  502 -0.15032724019E+02 -0.21518028480E+02  0.29258499826E+01  0.26411530422E+02  0.00000000000E+00 0. -1.
</event>
<event>
 5    1  0.4866530E-005  0.1348412E+03  0.7818608E-02  0.1117105E+00
         -4   -1    0    0    0  501 -0.00000000000E+00  0.00000000000E+00  0.65490456971E+03  0.65490456971E+03  0.00000000000E+00 0. -1.
         21   -1    0    0  501  502  0.00000000000E+00 -0.00000000000E+00 -0.60210977238E+02  0.60210977238E+02  0.00000000000E+00 0.  1.
        -13    1    1    2    0    0 -0.13105991244E+02  0.11436285049E+03  0.15224439147E+03  0.19086381133E+03  0.10566000000E+00 0.  1.
         13    1    1    2    0    0 -0.77504412537E+01 -0.14706037766E+03  0.45902926333E+03  0.48207333443E+03  0.10566000000E+00 0. -1.
         -4    1    1    2    0  502  0.20856432498E+02  0.32697527166E+02 -0.16580062324E+02  0.42178401178E+02  0.00000000000E+00 0. -1.
</event>
<event>
 5    1  0.4866530E-005  0.3159822E+03  0.7818608E-02  0.1011553E+00
         -4   -1    0    0    0  501 -0.00000000000E+00  0.00000000000E+00  0.31877636886E+03  0.31877636886E+03  0.00000000000E+00 0. -1.
         21   -1    0    0  501  502  0.00000000000E+00 -0.00000000000E+00 -0.12294036440E+04  0.12294036440E+04  0.00000000000E+00 0. -1.
        -13    1    1    2    0    0  0.12060055122E+03 -0.18870562702E+03 -0.10178015577E+03  0.24599495502E+03  0.10566000000E+00 0.  1.
         13    1    1    2    0    0 -0.33241109064E+03 -0.54069624249E+02  0.88949589832E+02  0.34832843430E+03  0.10566000000E+00 0. -1.
         -4    1    1    2    0  502  0.21181053941E+03  0.24277525127E+03 -0.89779670917E+03  0.95385662352E+03  0.00000000000E+00 0. -1.
</event>
<event>
 5    1  0.4866530E-005  0.4427247E+03  0.7818608E-02  0.9737698E-01
         21   -1    0    0  501  502  0.00000000000E+00  0.00000000000E+00  0.33502638349E+03  0.33502638349E+03  0.00000000000E+00 0. -1.
         -4   -1    0    0    0  501 -0.00000000000E+00 -0.00000000000E+00 -0.17119380279E+04  0.17119380279E+04  0.00000000000E+00 0. -1.
        -13    1    1    2    0    0  0.25431184556E+03 -0.13152920017E+03 -0.78191005220E+03  0.83268108311E+03  0.10566000000E+00 0.  1.
         13    1    1    2    0    0  0.36961497807E+03  0.12151988325E+03 -0.62733196487E+02  0.39410376697E+03  0.10566000000E+00 0. -1.
         -4    1    1    2    0  502 -0.62392682363E+03  0.10009316919E+02 -0.53226839569E+03  0.82017956126E+03  0.00000000000E+00 0. -1.
</event>
<event>
 5    1  0.4866530E-005  0.3900091E+03  0.7818608E-02  0.9817926E-01
         -4   -1    0    0    0  501 -0.00000000000E+00  0.00000000000E+00  0.13447630481E+04  0.13447630481E+04  0.00000000000E+00 0. -1.
         21   -1    0    0  501  502  0.00000000000E+00 -0.00000000000E+00 -0.46104752893E+03  0.46104752893E+03  0.00000000000E+00 0. -1.
        -13    1    1    2    0    0 -0.18116759463E+03  0.26144315747E+03  0.68160605530E+03  0.75217088997E+03  0.10566000000E+00 0.  1.
         13    1    1    2    0    0 -0.11450011871E+02  0.33614771801E+03 -0.10814476809E+03  0.35330113661E+03  0.10566000000E+00 0. -1.
         -4    1    1    2    0  502  0.19261760650E+03 -0.59759087549E+03  0.31025423194E+03  0.70033855045E+03  0.00000000000E+00 0. -1.
</event>
<event>
 5    1  0.4866530E-005  0.4368072E+03  0.7818608E-02  0.9654573E-01
          4   -1    0    0  502    0 -0.00000000000E+00  0.00000000000E+00  0.13124756366E+04  0.13124756366E+04  0.00000000000E+00 0.  1.
         21   -1    0    0  501  502  0.00000000000E+00 -0.00000000000E+00 -0.81527148912E+03  0.81527148912E+03  0.00000000000E+00 0.  1.
        -13    1    1    2    0    0  0.31991342780E+03  0.56446687801E+02 -0.20733058151E+03  0.38537878904E+03  0.10566000000E+00 0.  1.
         13    1    1    2    0    0  0.36075560724E+03  0.28125287797E+03  0.85323273748E+03  0.96811874529E+03  0.10566000000E+00 0. -1.
          4    1    1    2  501    0 -0.68066903504E+03 -0.33769956577E+03 -0.14869800852E+03  0.77424959136E+03  0.00000000000E+00 0.  1.
</event>
<event>
 5    1  0.4866530E-005  0.1181560E+03  0.7818608E-02  0.1153542E+00
         21   -1    0    0  501  502  0.00000000000E+00  0.00000000000E+00  0.44423044652E+03  0.44423044652E+03  0.00000000000E+00 0. -1.
         -4   -1    0    0    0  501 -0.00000000000E+00 -0.00000000000E+00 -0.17751957652E+03  0.17751957652E+03  0.00000000000E+00 0. -1.
        -13    1    1    2    0    0  0.78041116479E+02 -0.14155211077E+02  0.57533100306E+02  0.97983951016E+02  0.10566000000E+00 0.  1.
         13    1    1    2    0    0 -0.11016147207E+03  0.12531668992E+03 -0.99393549108E+02  0.19421357179E+03  0.10566000000E+00 0. -1.
         -4    1    1    2    0  502  0.32120355592E+02 -0.11116147884E+03  0.30857131880E+03  0.32955250023E+03  0.00000000000E+00 0. -1.
</event>
<event>
 5    1  0.4866530E-005  0.4085634E+02  0.7818608E-02  0.1334263E+00
         21   -1    0    0  501  502  0.00000000000E+00  0.00000000000E+00  0.47084679460E+02  0.47084679460E+02  0.00000000000E+00 0.  1.
         -4   -1    0    0    0  501 -0.00000000000E+00 -0.00000000000E+00 -0.89997129464E+02  0.89997129464E+02  0.00000000000E+00 0. -1.
        -13    1    1    2    0    0  0.36445025434E+02 -0.15399256822E+02 -0.30020739025E+02  0.49665208398E+02  0.10566000000E+00 0.  1.
         13    1    1    2    0    0 -0.23660320521E+02  0.46670488093E+02 -0.39764642711E+01  0.52476362851E+02  0.10566000000E+00 0. -1.
         -4    1    1    2    0  502 -0.12784704913E+02 -0.31271231271E+02 -0.89152467079E+01  0.34940237675E+02  0.00000000000E+00 0. -1.
</event>
<event>
 5    1  0.4866530E-005  0.4561902E+02  0.7818608E-02  0.1310732E+00
         21   -1    0    0  501  502  0.00000000000E+00  0.00000000000E+00  0.77584421566E+02  0.77584421566E+02  0.00000000000E+00 0.  1.
         -4   -1    0    0    0  501 -0.00000000000E+00 -0.00000000000E+00 -0.23730855847E+03  0.23730855847E+03  0.00000000000E+00 0. -1.
        -13    1    1    2    0    0 -0.47688961788E+02 -0.28275969824E+02  0.48160478695E+02  0.73438480499E+02  0.10566000000E+00 0.  1.
         13    1    1    2    0    0  0.40099935055E+02  0.20966655802E+02 -0.22045562253E+03  0.22505176764E+03  0.10566000000E+00 0. -1.
         -4    1    1    2    0  502  0.75890267332E+01  0.73093140217E+01  0.12571006936E+02  0.16402731895E+02  0.00000000000E+00 0. -1.
</event>
<event>
 5    1  0.4866530E-005  0.9392606E+02  0.7818608E-02  0.1175016E+00
          4   -1    0    0  502    0 -0.00000000000E+00  0.00000000000E+00  0.39489210717E+03  0.39489210717E+03  0.00000000000E+00 0.  1.
         21   -1    0    0  501  502  0.00000000000E+00 -0.00000000000E+00 -0.55684333456E+02  0.55684333456E+02  0.00000000000E+00 0. -1.
        -13    1    1    2    0    0 -0.60725856949E+02 -0.68609985036E+02  0.30721424020E+03  0.32058627590E+03  0.10566000000E+00 0.  1.
         13    1    1    2    0    0  0.66752393367E+02  0.84381142340E+02  0.34351572818E+02  0.11294291001E+03  0.10566000000E+00 0. -1.
          4    1    1    2  501    0 -0.60265364179E+01 -0.15771157304E+02 -0.23580393064E+01  0.17047254713E+02  0.00000000000E+00 0.  1.
</event>
<event>
 5    1  0.4866530E-005  0.4862678E+03  0.7818608E-02  0.9612979E-01
          4   -1    0    0  502    0 -0.00000000000E+00  0.00000000000E+00  0.12687635428E+04  0.12687635428E+04  0.00000000000E+00 0.  1.
         21   -1    0    0  501  502  0.00000000000E+00 -0.00000000000E+00 -0.10841605502E+04  0.10841605502E+04  0.00000000000E+00 0. -1.
        -13    1    1    2    0    0  0.31603954526E+03  0.15935838932E+03  0.62452466225E+03  0.71784897809E+03  0.10566000000E+00 0.  1.
         13    1    1    2    0    0 -0.81214572300E+03 -0.47198192908E+03 -0.70405766067E+02  0.94196847072E+03  0.10566000000E+00 0. -1.
          4    1    1    2  501    0  0.49610617773E+03  0.31262353976E+03 -0.36951590363E+03  0.69310664420E+03  0.00000000000E+00 0.  1.
</event>
<event>
 5    1  0.4866530E-005  0.2854687E+03  0.7818608E-02  0.1018085E+00
         21   -1    0    0  501  502  0.00000000000E+00  0.00000000000E+00  0.14210276565E+03  0.14210276565E+03  0.00000000000E+00 0.  1.
          4   -1    0    0  502    0 -0.00000000000E+00 -0.00000000000E+00 -0.28144411786E+04  0.28144411786E+04  0.00000000000E+00 0.  1.
        -13    1    1    2    0    0  0.32866701735E+03  0.38621188860E+03 -0.19342788777E+04  0.19996540749E+04  0.10566000000E+00 0.  1.
         13    1    1    2    0    0 -0.17835018980E+03 -0.17042574724E+03 -0.62258066164E+03  0.66967187259E+03  0.10566000000E+00 0. -1.
          4    1    1    2  501    0 -0.15031682755E+03 -0.21578614135E+03 -0.11547887362E+03  0.28721799682E+03  0.00000000000E+00 0.  1.
</event>
<event>
 5    1  0.4866530E-005  0.2607241E+03  0.7818608E-02  0.1047051E+00
          4   -1    0    0  502    0 -0.00000000000E+00  0.00000000000E+00  0.13537605073E+04  0.13537605073E+04  0.00000000000E+00 0.  1.
         21   -1    0    0  501  502  0.00000000000E+00 -0.00000000000E+00 -0.97437497225E+02  0.97437497225E+02  0.00000000000E+00 0.  1.
        -13    1    1    2    0    0 -0.21925787751E+03 -0.52225176931E+02  0.46261715712E+03  0.51460288688E+03  0.10566000000E+00 0.  1.
         13    1    1    2    0    0 -0.70383840480E+02  0.11270052903E+03  0.50870786047E+03  0.52577465963E+03  0.10566000000E+00 0. -1.
          4    1    1    2  501    0  0.28964171798E+03 -0.60475352103E+02  0.28499799250E+03  0.41082045804E+03  0.00000000000E+00 0.  1.
</event>
<event>
 5    1  0.4866530E-005  0.3492371E+03  0.7818608E-02  0.1013084E+00
         -4   -1    0    0    0  501 -0.00000000000E+00  0.00000000000E+00  0.60649451263E+03  0.60649451263E+03  0.00000000000E+00 0. -1.
         21   -1    0    0  501  502  0.00000000000E+00 -0.00000000000E+00 -0.82016531989E+03  0.82016531989E+03  0.00000000000E+00 0. -1.
        -13    1    1    2    0    0  0.38613253459E+02 -0.15315361424E+03  0.26204310002E+03  0.30596341338E+03  0.10566000000E+00 0.  1.
         13    1    1    2    0    0  0.34279557643E+03 -0.45181397061E+01 -0.59882210271E+03  0.69001242211E+03  0.10566000000E+00 0. -1.
         -4    1    1    2    0  502 -0.38140882989E+03  0.15767175394E+03  0.12310819544E+03  0.43068399703E+03  0.00000000000E+00 0. -1.
</event>
<event>
 5    1  0.4866530E-005  0.1448115E+03  0.7818608E-02  0.1117703E+00
          4   -1    0    0  502    0 -0.00000000000E+00  0.00000000000E+00  0.94318853391E+03  0.94318853391E+03  0.00000000000E+00 0.  1.
         21   -1    0    0  501  502  0.00000000000E+00 -0.00000000000E+00 -0.34468547125E+03  0.34468547125E+03  0.00000000000E+00 0.  1.
        -13    1    1    2    0    0 -0.96991640832E+02  0.10487949637E+03 -0.29271514224E+03  0.32571345199E+03  0.10566000000E+00 0.  1.
         13    1    1    2    0    0 -0.10351597640E+03  0.27734010902E+02  0.16113400711E+03  0.19351721407E+03  0.10566000000E+00 0. -1.
          4    1    1    2  501    0  0.20050761724E+03 -0.13261350727E+03  0.73008419779E+03  0.76864333910E+03  0.00000000000E+00 0.  1.
</event>
<event>
 5    1  0.4866530E-005  0.4193081E+03  0.7818608E-02  0.1016056E+00
         -4   -1    0    0    0  501 -0.00000000000E+00  0.00000000000E+00  0.59470367236E+03  0.59470367236E+03  0.00000000000E+00 0. -1.
         21   -1    0    0  501  502  0.00000000000E+00 -0.00000000000E+00 -0.48043389466E+03  0.48043389466E+03  0.00000000000E+00 0. -1.
        -13    1    1    2    0    0  0.58757451423E+02  0.58643697376E+02  0.12585276511E+02  0.83963811779E+02  0.10566000000E+00 0.  1.
         13    1    1    2    0    0 -0.45440125169E+03  0.44566804055E+02  0.29011910184E+03  0.54095822573E+03  0.10566000000E+00 0. -1.
         -4    1    1    2    0  502  0.39564380027E+03 -0.10321050143E+03 -0.18843460065E+03  0.45021552952E+03  0.00000000000E+00 0. -1.
</event>
<event>
 5    1  0.4866530E-005  0.1876646E+03  0.7818608E-02  0.1068938E+00
         -4   -1    0    0    0  501 -0.00000000000E+00  0.00000000000E+00  0.87328338985E+03  0.87328338985E+03  0.00000000000E+00 0. -1.
         21   -1    0    0  501  502  0.00000000000E+00 -0.00000000000E+00 -0.19340133323E+03  0.19340133323E+03  0.00000000000E+00 0.  1.
        -13    1    1    2    0    0  0.24905842873E+02 -0.19391825801E+03 -0.10742924720E+03  0.22308215105E+03  0.10566000000E+00 0.  1.
         13    1    1    2    0    0  0.13689143769E+02  0.18688448131E+03  0.78185225690E+03  0.80399388356E+03  0.10566000000E+00 0. -1.
         -4    1    1    2    0  502 -0.38594986642E+02  0.70337767075E+01  0.54590469240E+01  0.39608688466E+02  0.00000000000E+00 0. -1.
</event>
<event>
 5    1  0.4866530E-005  0.4952524E+03  0.7818608E-02  0.9991101E-01
         21   -1    0    0  501  502  0.00000000000E+00  0.00000000000E+00  0.55218846898E+03  0.55218846898E+03  0.00000000000E+00 0. -1.
         -4   -1    0    0    0  501 -0.00000000000E+00 -0.00000000000E+00 -0.64078411485E+03  0.64078411485E+03  0.00000000000E+00 0. -1.
        -13    1    1    2    0    0 -0.36083835070E+01 -0.87001611279E+02 -0.14998188213E+03  0.17342686334E+03  0.10566000000E+00 0.  1.
         13    1    1    2    0    0  0.48423228193E+03  0.14449417760E+03  0.15070246641E+03  0.52732410790E+03  0.10566000000E+00 0. -1.
         -4    1    1    2    0  502 -0.48062389843E+03 -0.57492566326E+02 -0.89316230147E+02  0.49222161258E+03  0.00000000000E+00 0. -1.
</event>
<event>
 5    1  0.4866530E-005  0.3187243E+02  0.7818608E-02  0.1390475E+00
          4   -1    0    0  502    0 -0.00000000000E+00  0.00000000000E+00  0.77356552050E+02  0.77356552050E+02  0.00000000000E+00 0.  1.
         21   -1    0    0  501  502  0.00000000000E+00 -0.00000000000E+00 -0.22596083404E+02  0.22596083404E+02  0.00000000000E+00 0. -1.
        -13    1    1    2    0    0 -0.19760640230E+02  0.18259276746E+02  0.23019537560E+02  0.35408958797E+02  0.10566000000E+00 0.  1.
         13    1    1    2    0    0  0.25617964364E+02 -0.31780181113E+02  0.27469079147E+02  0.49201844305E+02  0.10566000000E+00 0. -1.
          4    1    1    2  501    0 -0.58573241337E+01  0.13520904368E+02  0.42718519391E+01  0.15341832352E+02  0.00000000000E+00 0.  1.
</event>
<event>
 5    1  0.4866530E-005  0.4451674E+03  0.7818608E-02  0.1012288E+00
         21   -1    0    0  501  502  0.00000000000E+00  0.00000000000E+00  0.59769930430E+03  0.59769930430E+03  0.00000000000E+00 0. -1.
         -4   -1    0    0    0  501 -0.00000000000E+00 -0.00000000000E+00 -0.49255594382E+03  0.49255594382E+03  0.00000000000E+00 0. -1.
        -13    1    1    2    0    0  0.61375858425E+02  0.48500662014E+02 -0.46180114938E+02  0.90840103440E+02  0.10566000000E+00 0.  1.
         13    1    1    2    0    0  0.27358168279E+03 -0.34676964054E+03 -0.14146480220E+03  0.46379782469E+03  0.10566000000E+00 0. -1.
         -4    1    1    2    0  502 -0.33495754121E+03  0.29826897853E+03  0.29278827762E+03  0.53561732000E+03  0.00000000000E+00 0. -1.
</event>
<event>
 5    1  0.4866530E-005  0.5646885E+03  0.7818608E-02  0.9346446E-01
         21   -1    0    0  501  502  0.00000000000E+00  0.00000000000E+00  0.29668293968E+03  0.29668293968E+03  0.00000000000E+00 0. -1.
          4   -1    0    0  502    0 -0.00000000000E+00 -0.00000000000E+00 -0.14354996197E+04  0.14354996197E+04  0.00000000000E+00 0.  1.
        -13    1    1    2    0    0  0.15327226365E+03 -0.53654465892E+03 -0.91859349900E+03  0.10747960669E+04  0.10566000000E+00 0.  1.
         13    1    1    2    0    0 -0.16782520600E+03  0.55672012656E+03 -0.23643093130E+03  0.62769594194E+03  0.10566000000E+00 0. -1.
          4    1    1    2  501    0  0.14552942347E+02 -0.20175467635E+02  0.16207750267E+02  0.29690550583E+02  0.00000000000E+00 0.  1.
</event>
<event>
 5    1  0.4866530E-005  0.1108557E+03  0.7818608E-02  0.1179344E+00
          4   -1    0    0  502    0 -0.00000000000E+00  0.00000000000E+00  0.94028844643E+02  0.94028844643E+02  0.00000000000E+00 0.  1.
         21   -1    0    0  501  502  0.00000000000E+00 -0.00000000000E+00 -0.26045242637E+03  0.26045242637E+03  0.00000000000E+00 0.  1.
        -13    1    1    2    0    0  0.83260433147E+02  0.12021628443E+03 -0.76929179439E+02  0.16523427182E+03  0.10566000000E+00 0.  1.
         13    1    1    2    0    0 -0.23135552528E+02 -0.46089453215E+02  0.87115973833E+01  0.52300999813E+02  0.10566000000E+00 0. -1.
          4    1    1    2  501    0 -0.60124880620E+02 -0.74126831213E+02 -0.98205999667E+02  0.13694599938E+03  0.00000000000E+00 0.  1.
</event>
<event>
 5    1  0.4866530E-005  0.1376568E+03  0.7818608E-02  0.1113966E+00
         21   -1    0    0  501  502  0.00000000000E+00  0.00000000000E+00  0.26540567869E+03  0.26540567869E+03  0.00000000000E+00 0.  1.
          4   -1    0    0  502    0 -0.00000000000E+00 -0.00000000000E+00 -0.12335831307E+03  0.12335831307E+03  0.00000000000E+00 0.  1.
        -13    1    1    2    0    0  0.60591979862E+02 -0.13492763103E+03 -0.16875971369E+02  0.14886793883E+03  0.10566000000E+00 0.  1.
         13    1    1    2    0    0 -0.44802857066E+02  0.11422101787E+03  0.58082219203E+02  0.13574716305E+03  0.10566000000E+00 0. -1.
          4    1    1    2  501    0 -0.15789122796E+02  0.20706613160E+02  0.10084111779E+03  0.10414888988E+03  0.00000000000E+00 0.  1.
</event>
<event>
 5    1  0.4866530E-005  0.9420780E+02  0.7818608E-02  0.1174512E+00
         21   -1    0    0  501  502  0.00000000000E+00  0.00000000000E+00  0.48248105042E+03  0.48248105042E+03  0.00000000000E+00 0.  1.
         -4   -1    0    0    0  501 -0.00000000000E+00 -0.00000000000E+00 -0.50453369878E+02  0.50453369878E+02  0.00000000000E+00 0. -1.
        -13    1    1    2    0    0 -0.66861585418E+02 -0.74111069540E+02  0.37780484631E+03  0.39076775109E+03  0.10566000000E+00 0.  1.
         13    1    1    2    0    0  0.69333111193E+02  0.62774028988E+02  0.72809359864E+01  0.93811951349E+02  0.10566000000E+00 0. -1.
         -4    1    1    2    0  502 -0.24715257754E+01  0.11337040552E+02  0.46941898248E+02  0.48354717860E+02  0.00000000000E+00 0. -1.
</event>
<event>
 5    1  0.4866530E-005  0.1164737E+03  0.7818608E-02  0.1139853E+00
          4   -1    0    0  502    0 -0.00000000000E+00  0.00000000000E+00  0.56565235440E+02  0.56565235440E+02  0.00000000000E+00 0.  1.
         21   -1    0    0  501  502  0.00000000000E+00 -0.00000000000E+00 -0.47392828139E+03  0.47392828139E+03  0.00000000000E+00 0. -1.
        -13    1    1    2    0    0 -0.61467859489E+02 -0.10642599238E+03 -0.18707990750E+03  0.22383854127E+03  0.10566000000E+00 0.  1.
         13    1    1    2    0    0  0.80123470833E+02  0.82221048989E+02 -0.52455733599E+02  0.12622078524E+03  0.10566000000E+00 0. -1.
          4    1    1    2  501    0 -0.18655611344E+02  0.24204943395E+02 -0.17782740485E+03  0.18043419032E+03  0.00000000000E+00 0.  1.
</event>
<event>
 5    1  0.4866530E-005  0.4496054E+03  0.7818608E-02  0.1027613E+00
         -4   -1    0    0    0  501 -0.00000000000E+00  0.00000000000E+00  0.95067865934E+03  0.95067865934E+03  0.00000000000E+00 0. -1.
         21   -1    0    0  501  502  0.00000000000E+00 -0.00000000000E+00 -0.27009664097E+03  0.27009664097E+03  0.00000000000E+00 0. -1.
        -13    1    1    2    0    0  0.46635625531E+02  0.43952618079E+01  0.84783747631E+02  0.96863279531E+02  0.10566000000E+00 0.  1.
         13    1    1    2    0    0  0.33300734036E+03 -0.26686828526E+03  0.49116602623E+03  0.65065862547E+03  0.10566000000E+00 0. -1.
         -4    1    1    2    0  502 -0.37964296589E+03  0.26247302345E+03  0.10463224451E+03  0.47325339532E+03  0.00000000000E+00 0. -1.
</event>
<event>
 5    1  0.4866530E-005  0.7414091E+02  0.7818608E-02  0.1216264E+00
          4   -1    0    0  502    0 -0.00000000000E+00  0.00000000000E+00  0.45083537558E+02  0.45083537558E+02  0.00000000000E+00 0.  1.
         21   -1    0    0  501  502  0.00000000000E+00 -0.00000000000E+00 -0.43489462584E+03  0.43489462584E+03  0.00000000000E+00 0.  1.
        -13    1    1    2    0    0 -0.81935107953E+02 -0.11154615502E+02 -0.33005195134E+01  0.82756824222E+02  0.10566000000E+00 0.  1.
         13    1    1    2    0    0  0.47193705269E+02  0.65229729055E+00 -0.13301207697E+03  0.14113785847E+03  0.10566000000E+00 0. -1.
          4    1    1    2  501    0  0.34741402684E+02  0.10502318211E+02 -0.25349849180E+03  0.25608348071E+03  0.00000000000E+00 0.  1.
</event>
<event>
 5    1  0.4866530E-005  0.4860454E+03  0.7818608E-02  0.1011603E+00
         21   -1    0    0  501  502  0.00000000000E+00  0.00000000000E+00  0.11673633337E+03  0.11673633337E+03  0.00000000000E+00 0.  1.
          4   -1    0    0  502    0 -0.00000000000E+00 -0.00000000000E+00 -0.24104864616E+04  0.24104864616E+04  0.00000000000E+00 0.  1.
        -13    1    1    2    0    0 -0.19368289619E+03 -0.43955369612E+03 -0.13187934688E+04  0.14035443493E+04  0.10566000000E+00 0.  1.
         13    1    1    2    0    0 -0.58839018506E+02  0.17670377065E+02 -0.65388595198E+02  0.89721524009E+02  0.10566000000E+00 0. -1.
          4    1    1    2  501    0  0.25252191470E+03  0.42188331905E+03 -0.90956806427E+03  0.10339569217E+04  0.00000000000E+00 0.  1.
</event>
<event>
 5    1  0.4866530E-005  0.2721856E+03  0.7818608E-02  0.1019496E+00
          4   -1    0    0  502    0 -0.00000000000E+00  0.00000000000E+00  0.13088166549E+04  0.13088166549E+04  0.00000000000E+00 0.  1.
         21   -1    0    0  501  502  0.00000000000E+00 -0.00000000000E+00 -0.74112225146E+02  0.74112225146E+02  0.00000000000E+00 0. -1.
        -13    1    1    2    0    0  0.11941997688E+03 -0.22602708497E+03  0.44068132371E+03  0.50945992408E+03  0.10566000000E+00 0.  1.
         13    1    1    2    0    0 -0.13196668397E+03  0.25149469060E+03  0.79585963720E+03  0.84501914675E+03  0.10566000000E+00 0. -1.
          4    1    1    2  501    0  0.12546707092E+02 -0.25467605633E+02 -0.18365311924E+01  0.28449809180E+02  0.00000000000E+00 0.  1.
</event>
<event>
 5    1  0.4866530E-005  0.4897033E+03  0.7818608E-02  0.9965437E-01
          4   -1    0    0  502    0 -0.00000000000E+00  0.00000000000E+00  0.39119152143E+03  0.39119152143E+03  0.00000000000E+00 0.  1.
         21   -1    0    0  501  502  0.00000000000E+00 -0.00000000000E+00 -0.75429450160E+03  0.75429450160E+03  0.00000000000E+00 0.  1.
        -13    1    1    2    0    0  0.37213258674E+03  0.36238172941E+03 -0.21439984976E+03  0.56193459288E+03  0.10566000000E+00 0.  1.
         13    1    1    2    0    0 -0.97369210726E+02  0.11195974716E+02 -0.53386003085E+01  0.98156124947E+02  0.10566000000E+00 0. -1.
          4    1    1    2  501    0 -0.27476337602E+03 -0.37357770413E+03 -0.14336453010E+03  0.48539530520E+03  0.00000000000E+00 0.  1.
</event>
<event>
 5    1  0.4866530E-005  0.2772883E+03  0.7818608E-02  0.1065154E+00
          4   -1    0    0  502    0 -0.00000000000E+00  0.00000000000E+00  0.30139819165E+03  0.30139819165E+03  0.00000000000E+00 0.  1.
         21   -1    0    0  501  502  0.00000000000E+00 -0.00000000000E+00 -0.95428999476E+03  0.95428999476E+03  0.00000000000E+00 0.  1.
        -13    1    1    2    0    0  0.18707928423E+03  0.12714484463E+03  0.20665802913E+03  0.30638541459E+03  0.10566000000E+00 0.  1.
         13    1    1    2    0    0  0.64870045093E+02 -0.29482074177E+00 -0.27001864665E+02  0.70266076660E+02  0.10566000000E+00 0. -1.
          4    1    1    2  501    0 -0.25194932933E+03 -0.12685002389E+03 -0.83254796758E+03  0.87903669516E+03  0.00000000000E+00 0.  1.
</event>
<event>
 5    1  0.4866530E-005  0.4773074E+03  0.7818608E-02  0.9719554E-01
         21   -1    0    0  501  502  0.00000000000E+00  0.00000000000E+00  0.54750548943E+03  0.54750548943E+03  0.00000000000E+00 0. -1.
         -4   -1    0    0    0  501 -0.00000000000E+00 -0.00000000000E+00 -0.11546440854E+04  0.11546440854E+04  0.00000000000E+00 0. -1.
        -13    1    1    2    0    0  0.24219213815E+03 -0.23137830237E+02 -0.61074893825E+03  0.65742426766E+03  0.10566000000E+00 0.  1.
         13    1    1    2    0    0 -0.15048763766E+03  0.47962904147E+03  0.19785649579E+03  0.54022009459E+03  0.10566000000E+00 0. -1.
         -4    1    1    2    0  502 -0.91704500495E+02 -0.45649121123E+03 -0.19424615347E+03  0.50450521254E+03  0.00000000000E+00 0. -1.
</event>
<event>
 5    1  0.4866530E-005  0.7226691E+02  0.7818608E-02  0.1220902E+00
         -4   -1    0    0    0  501 -0.00000000000E+00  0.00000000000E+00  0.21551459433E+03  0.21551459433E+03  0.00000000000E+00 0. -1.
         21   -1    0    0  501  502  0.00000000000E+00 -0.00000000000E+00 -0.41558385356E+02  0.41558385356E+02  0.00000000000E+00 0.  1.
        -13    1    1    2    0    0  0.72894120610E+02 -0.50047277336E+01  0.89446084664E+02  0.11549551223E+03  0.10566000000E+00 0.  1.
         13    1    1    2    0    0 -0.71663498079E+02 -0.77321659990E+01  0.98862583586E+02  0.12234894746E+03  0.10566000000E+00 0. -1.
         -4    1    1    2    0  502 -0.12306225313E+01  0.12736893733E+02 -0.14352459278E+02  0.19228519993E+02  0.00000000000E+00 0. -1.
</event>
<event>
 5    1  0.4866530E-005  0.2160350E+03  0.7818608E-02  0.1050246E+00
          4   -1    0    0  502    0 -0.00000000000E+00  0.00000000000E+00  0.11318977553E+04  0.11318977553E+04  0.00000000000E+00 0.  1.
         21   -1    0    0  501  502  0.00000000000E+00 -0.00000000000E+00 -0.48063115554E+03  0.48063115554E+03  0.00000000000E+00 0.  1.
        -13    1    1    2    0    0 -0.15840562444E+03  0.16346145118E+03  0.53269196904E+03  0.57928639973E+03  0.10566000000E+00 0.  1.
         13    1    1    2    0    0 -0.40948062327E+02 -0.25144049331E+03  0.51855767320E+03  0.57775525708E+03  0.10566000000E+00 0. -1.
          4    1    1    2  501    0  0.19935368676E+03  0.87979042133E+02 -0.39998304250E+03  0.45548725401E+03  0.00000000000E+00 0.  1.
</event>
<event>
 5    1  0.4866530E-005  0.4433211E+03  0.7818608E-02  0.9765461E-01
          4   -1    0    0  502    0 -0.00000000000E+00  0.00000000000E+00  0.15429189076E+04  0.15429189076E+04  0.00000000000E+00 0.  1.
         21   -1    0    0  501  502  0.00000000000E+00 -0.00000000000E+00 -0.25997968046E+03  0.25997968046E+03  0.00000000000E+00 0.  1.
        -13    1    1    2    0    0  0.24574481480E+03 -0.43976388769E+03  0.20701294896E+03  0.54464407012E+03  0.10566000000E+00 0.  1.
         13    1    1    2    0    0 -0.23398873012E+03  0.11134998718E+03  0.21490133237E+03  0.33664839119E+03  0.10566000000E+00 0. -1.
          4    1    1    2  501    0 -0.11756084680E+02  0.32841390050E+03  0.86102494584E+03  0.92160612679E+03  0.00000000000E+00 0.  1.
</event>
<event>
 5    1  0.4866530E-005  0.1408816E+03  0.7818608E-02  0.1110470E+00
         -4   -1    0    0    0  501 -0.00000000000E+00  0.00000000000E+00  0.49438175998E+02  0.49438175998E+02  0.00000000000E+00 0. -1.
         21   -1    0    0  501  502  0.00000000000E+00 -0.00000000000E+00 -0.66719934873E+03  0.66719934873E+03  0.00000000000E+00 0.  1.
        -13    1    1    2    0    0 -0.50409973249E+02  0.12427180883E+03 -0.32310448242E+03  0.34983019538E+03  0.10566000000E+00 0.  1.
         13    1    1    2    0    0  0.41029208588E+02 -0.13802798860E+03 -0.10949507576E+03  0.18089860247E+03  0.10566000000E+00 0. -1.
         -4    1    1    2    0  502  0.93807646607E+01  0.13756179774E+02 -0.18516161455E+03  0.18590872688E+03  0.00000000000E+00 0. -1.
</event>
<event>
 5    1  0.4866530E-005  0.4131926E+03  0.7818608E-02  0.1011154E+00
         -4   -1    0    0    0  501 -0.00000000000E+00  0.00000000000E+00  0.29970668920E+04  0.29970668920E+04  0.00000000000E+00 0. -1.
         21   -1    0    0  501  502  0.00000000000E+00 -0.00000000000E+00 -0.12033663464E+03  0.12033663464E+03  0.00000000000E+00 0. -1.
        -13    1    1    2    0    0  0.92144126263E+02 -0.42439364896E+02  0.47825665558E+02  0.11215589662E+03  0.10566000000E+00 0.  1.
         13    1    1    2    0    0 -0.45688287774E+03 -0.11823141941E+03  0.22715231792E+04  0.23200297837E+04  0.10566000000E+00 0. -1.
         -4    1    1    2    0  502  0.36473875148E+03  0.16067078431E+03  0.55738141258E+03  0.68521784627E+03  0.00000000000E+00 0. -1.
</event>
<event>
 5    1  0.4866530E-005  0.6351049E+02  0.7818608E-02  0.1244858E+00
          4   -1    0    0  502    0 -0.00000000000E+00  0.00000000000E+00  0.10529251437E+02  0.10529251437E+02  0.00000000000E+00 0.  1.
         21   -1    0    0  501  502  0.00000000000E+00 -0.00000000000E+00 -0.54236211821E+03  0.54236211821E+03  0.00000000000E+00 0. -1.
        -13    1    1    2    0    0  0.11232156220E+02 -0.64275339773E+02 -0.14869093432E+03  0.16237760237E+03  0.10566000000E+00 0.  1.
         13    1    1    2    0    0 -0.22134138671E+02  0.56945672637E+02 -0.28342982000E+03  0.28994000026E+03  0.10566000000E+00 0. -1.
          4    1    1    2  501    0  0.10901982451E+02  0.73296671367E+01 -0.99712112452E+02  0.10057376701E+03  0.00000000000E+00 0.  1.
</event>
<event>
 5    1  0.4866530E-005  0.3884904E+03  0.7818608E-02  0.9909751E-01
          4   -1    0    0  502    0 -0.00000000000E+00  0.00000000000E+00  0.20871025953E+04  0.20871025953E+04  0.00000000000E+00 0.  1.
         21   -1    0    0  501  502  0.00000000000E+00 -0.00000000000E+00 -0.21190381014E+03  0.21190381014E+03  0.00000000000E+00 0.  1.
        -13    1    1    2    0    0 -0.20880191827E+03 -0.66045993084E+01  0.12344735732E+04  0.12520251099E+04  0.10566000000E+00 0.  1.
         13    1    1    2    0    0 -0.20231158041E+03  0.12183872471E+03  0.56631761040E+03  0.61358805188E+03  0.10566000000E+00 0. -1.
          4    1    1    2  501    0  0.41111349868E+03 -0.11523412540E+03  0.74407601565E+02  0.43339324363E+03  0.00000000000E+00 0.  1.
</event>
<event>
 5    1  0.4866530E-005  0.9640121E+02  0.7818608E-02  0.1170651E+00
         21   -1    0    0  501  502  0.00000000000E+00  0.00000000000E+00  0.32830002435E+03  0.32830002435E+03  0.00000000000E+00 0.  1.
         -4   -1    0    0    0  501 -0.00000000000E+00 -0.00000000000E+00 -0.66108617271E+02  0.66108617271E+02  0.00000000000E+00 0. -1.
        -13    1    1    2    0    0  0.28401823065E+02  0.12130819982E+03  0.10661984633E+03  0.16398215052E+03  0.10566000000E+00 0.  1.
         13    1    1    2    0    0 -0.61350644189E+02 -0.62634785274E+02  0.39287803958E+02  0.96075806386E+02  0.10566000000E+00 0. -1.
         -4    1    1    2    0  502  0.32948821124E+02 -0.58673414542E+02  0.11628375679E+03  0.13435068471E+03  0.00000000000E+00 0. -1.
</event>
<event>
 5    1  0.4866530E-005  0.1819900E+03  0.7818608E-02  0.1073237E+00
          4   -1    0    0  502    0 -0.00000000000E+00  0.00000000000E+00  0.16451942438E+03  0.16451942438E+03  0.00000000000E+00 0.  1.
         21   -1    0    0  501  502  0.00000000000E+00 -0.00000000000E+00 -0.68865565034E+03  0.68865565034E+03  0.00000000000E+00 0. -1.
        -13    1    1    2    0    0  0.15668953453E+03  0.94669622637E+02  0.73342375014E+02  0.19721324199E+03  0.10566000000E+00 0.  1.
         13    1    1    2    0    0 -0.15687782672E+03 -0.83074664805E+02 -0.24113562579E+03  0.29943021498E+03  0.10566000000E+00 0. -1.
          4    1    1    2  501    0  0.18829219338E+00 -0.11594957832E+02 -0.35634297518E+03  0.35653161776E+03  0.00000000000E+00 0.  1.
</event>
<event>
 5    1  0.4866530E-005  0.1560227E+03  0.7818608E-02  0.1095319E+00
          4   -1    0    0  502    0 -0.00000000000E+00  0.00000000000E+00  0.12032012662E+04  0.12032012662E+04  0.00000000000E+00 0.  1.
         21   -1    0    0  501  502  0.00000000000E+00 -0.00000000000E+00 -0.31847188003E+02  0.31847188003E+02  0.00000000000E+00 0. -1.
        -13    1    1    2    0    0  0.64456747331E+02  0.14422114901E+03  0.80496068683E+03  0.82031465341E+03  0.10566000000E+00 0.  1.
         13    1    1    2    0    0 -0.89952967828E+02 -0.12500221799E+03  0.34020587178E+03  0.37343960325E+03  0.10566000000E+00 0. -1.
          4    1    1    2  501    0  0.25496220497E+02 -0.19218931024E+02  0.26187519640E+02  0.41294197586E+02  0.00000000000E+00 0.  1.
</event>
<event>
 5    1  0.4866530E-005  0.2360129E+03  0.7818608E-02  0.1037907E+00
         -4   -1    0    0    0  501 -0.00000000000E+00  0.00000000000E+00  0.11860687432E+03  0.11860687432E+03  0.00000000000E+00 0. -1.
         21   -1    0    0  501  502  0.00000000000E+00 -0.00000000000E+00 -0.15818744586E+04  0.15818744586E+04  0.00000000000E+00 0. -1.
        -13    1    1    2    0    0 -0.14099289939E+03 -0.18033689048E+03 -0.19452913420E+03  0.30040304087E+03  0.10566000000E+00 0.  1.
         13    1    1    2    0    0  0.14365749447E+03  0.19535637537E+03 -0.15841405762E+03  0.28964912210E+03  0.10566000000E+00 0. -1.
         -4    1    1    2    0  502 -0.26645950896E+01 -0.15019484888E+02 -0.11103243925E+04  0.11104291700E+04  0.00000000000E+00 0. -1.
</event>
<event>
 5    1  0.4866530E-005  0.2137748E+03  0.7818608E-02  0.1093051E+00
         21   -1    0    0  501  502  0.00000000000E+00  0.00000000000E+00  0.22941789915E+03  0.22941789915E+03  0.00000000000E+00 0. -1.
         -4   -1    0    0    0  501 -0.00000000000E+00 -0.00000000000E+00 -0.75723725264E+03  0.75723725264E+03  0.00000000000E+00 0. -1.
        -13    1    1    2    0    0  0.62123366847E+02  0.17515295363E+02  0.21516391070E+01  0.64581258852E+02  0.10566000000E+00 0.  1.
         13    1    1    2    0    0 -0.27030759067E+03 -0.21746578370E+02 -0.63381337324E+03  0.68938995533E+03  0.10566000000E+00 0. -1.
         -4    1    1    2    0  502  0.20818422382E+03  0.42312830076E+01  0.10384238064E+03  0.23268393761E+03  0.00000000000E+00 0. -1.
</event>
<event>
 5    1  0.4866530E-005  0.1706328E+03  0.7818608E-02  0.1082373E+00
         -4   -1    0    0    0  501 -0.00000000000E+00  0.00000000000E+00  0.68797904752E+02  0.68797904752E+02  0.00000000000E+00 0. -1.
         21   -1    0    0  501  502  0.00000000000E+00 -0.00000000000E+00 -0.15029057322E+04  0.15029057322E+04  0.00000000000E+00 0. -1.
        -13    1    1    2    0    0  0.14170177190E+03  0.10437828219E+03 -0.60934335842E+03  0.63425039028E+03  0.10566000000E+00 0.  1.
         13    1    1    2    0    0 -0.15769559466E+03 -0.64623950867E+02 -0.74549652407E+02  0.18601563762E+03  0.10566000000E+00 0. -1.
         -4    1    1    2    0  502  0.15993822765E+02 -0.39754331318E+02 -0.75021481661E+03  0.75143760905E+03  0.00000000000E+00 0. -1.
</event>
<event>
 5    1  0.4866530E-005  0.4489303E+03  0.7818608E-02  0.9597532E-01
         21   -1    0    0  501  502  0.00000000000E+00  0.00000000000E+00  0.10196385849E+04  0.10196385849E+04  0.00000000000E+00 0. -1.
          4   -1    0    0  502    0 -0.00000000000E+00 -0.00000000000E+00 -0.72806909146E+03  0.72806909146E+03  0.00000000000E+00 0.  1.
        -13    1    1    2    0    0  0.36789523999E+03 -0.15883860653E+03 -0.27155526854E+03  0.48406496007E+03  0.10566000000E+00 0.  1.
         13    1    1    2    0    0 -0.53526369000E+03  0.14664686335E+03 -0.11353666694E+03  0.56648310325E+03  0.10566000000E+00 0. -1.
          4    1    1    2  501    0  0.16736845001E+03  0.12191743178E+02  0.67666142888E+03  0.69715961300E+03  0.00000000000E+00 0.  1.
</event>
<event>
 5    1  0.4866530E-005  0.1866847E+03  0.7818608E-02  0.1069668E+00
         21   -1    0    0  501  502  0.00000000000E+00  0.00000000000E+00  0.76850340492E+02  0.76850340492E+02  0.00000000000E+00 0. -1.
         -4   -1    0    0    0  501 -0.00000000000E+00 -0.00000000000E+00 -0.10354120510E+04  0.10354120510E+04  0.00000000000E+00 0. -1.
        -13    1    1    2    0    0  0.13456989825E+03  0.11061389239E+03 -0.29772823166E+03  0.34494434594E+03  0.10566000000E+00 0.  1.
         13    1    1    2    0    0 -0.17454061144E+03 -0.88093699569E+02 -0.68715337934E+03  0.71442613534E+03  0.10566000000E+00 0. -1.
         -4    1    1    2    0  502  0.39970713192E+02 -0.22520192817E+02  0.26319900535E+02  0.52891910173E+02  0.00000000000E+00 0. -1.
</event>
<event>
 5    1  0.4866530E-005  0.2685256E+03  0.7818608E-02  0.1046624E+00
          4   -1    0    0  502    0 -0.00000000000E+00  0.00000000000E+00  0.22996048209E+04  0.22996048209E+04  0.00000000000E+00 0.  1.
         21   -1    0    0  501  502  0.00000000000E+00 -0.00000000000E+00 -0.13933085925E+03  0.13933085925E+03  0.00000000000E+00 0.  1.
        -13    1    1    2    0    0  0.61937790033E+02  0.36019797650E+03  0.19140997502E+04  0.19486807683E+04  0.10566000000E+00 0.  1.
         13    1    1    2    0    0  0.35170925308E+02 -0.11806095348E+03  0.18505397942E+03  0.22230692564E+03  0.10566000000E+00 0. -1.
          4    1    1    2  501    0 -0.97108715341E+02 -0.24213702302E+03  0.61120232019E+02  0.26794798613E+03  0.00000000000E+00 0.  1.
</event>
<event>
 5    1  0.4866530E-005  0.1407181E+03  0.7818608E-02  0.1110645E+00
         21   -1    0    0  501  502  0.00000000000E+00  0.00000000000E+00  0.63108073885E+03  0.63108073885E+03  0.00000000000E+00 0. -1.
         -4   -1    0    0    0  501 -0.00000000000E+00 -0.00000000000E+00 -0.50764065688E+03  0.50764065688E+03  0.00000000000E+00 0. -1.
        -13    1    1    2    0    0 -0.13781336388E+02  0.16912057034E+03 -0.16786795155E+03  0.23868672537E+03  0.10566000000E+00 0.  1.
         13    1    1    2    0    0  0.16514789258E+02 -0.12841844790E+03 -0.28984613344E+03  0.31745051309E+03  0.10566000000E+00 0. -1.
         -4    1    1    2    0  502 -0.27334528703E+01 -0.40702122439E+02  0.58115416696E+03  0.58258415728E+03  0.00000000000E+00 0. -1.
</event>
<event>
 5    1  0.4866530E-005  0.5051998E+03  0.7818608E-02  0.9807401E-01
         21   -1    0    0  501  502  0.00000000000E+00  0.00000000000E+00  0.24800557084E+03  0.24800557084E+03  0.00000000000E+00 0.  1.
          4   -1    0    0  502    0 -0.00000000000E+00 -0.00000000000E+00 -0.18084214464E+04  0.18084214464E+04  0.00000000000E+00 0.  1.
        -13    1    1    2    0    0  0.74846220632E+02 -0.46283751575E+03 -0.47246747979E+03  0.66561704707E+03  0.10566000000E+00 0.  1.
         13    1    1    2    0    0 -0.12824920650E+03 -0.80991143390E+02 -0.71091296496E+03  0.72691449235E+03  0.10566000000E+00 0. -1.
          4    1    1    2  501    0  0.53402985867E+02  0.54382865914E+03 -0.37703543082E+03  0.66389547784E+03  0.00000000000E+00 0.  1.
</event>
<event>
 5    1  0.4866530E-005  0.4714155E+03  0.7818608E-02  0.9548758E-01
         21   -1    0    0  501  502  0.00000000000E+00  0.00000000000E+00  0.53590120306E+03  0.53590120306E+03  0.00000000000E+00 0.  1.
         -4   -1    0    0    0  501 -0.00000000000E+00 -0.00000000000E+00 -0.12330907456E+04  0.12330907456E+04  0.00000000000E+00 0. -1.
        -13    1    1    2    0    0 -0.11989441655E+03 -0.44578176096E+03 -0.26305198407E+03  0.53131196769E+03  0.10566000000E+00 0.  1.
         13    1    1    2    0    0 -0.34745519977E+03  0.50731889780E+03 -0.45640675297E+03  0.76577066752E+03  0.10566000000E+00 0. -1.
         -4    1    1    2    0  502  0.46734961633E+03 -0.61537136841E+02  0.22269194500E+02  0.47190931344E+03  0.00000000000E+00 0. -1.
</event>
<event>
 5    1  0.4866530E-005  0.3441041E+03  0.7818608E-02  0.9906028E-01
         21   -1    0    0  501  502  0.00000000000E+00  0.00000000000E+00  0.15961427498E+03  0.15961427498E+03  0.00000000000E+00 0. -1.
         -4   -1    0    0    0  501 -0.00000000000E+00 -0.00000000000E+00 -0.35118431707E+04  0.35118431707E+04  0.00000000000E+00 0. -1.
        -13    1    1    2    0    0 -0.22195131070E+03  0.20285035822E+03 -0.18026269401E+04  0.18275323659E+04  0.10566000000E+00 0.  1.
         13    1    1    2    0    0  0.36513058557E+03 -0.27282894024E+03 -0.16101681430E+04  0.16734388053E+04  0.10566000000E+00 0. -1.
         -4    1    1    2    0  502 -0.14317927487E+03  0.69978582018E+02  0.60566187456E+02  0.17048627440E+03  0.00000000000E+00 0. -1.
</event>
<event>
 5    1  0.4866530E-005  0.6021071E+03  0.7818608E-02  0.9278542E-01
         21   -1    0    0  501  502  0.00000000000E+00  0.00000000000E+00  0.10227260151E+04  0.10227260151E+04  0.00000000000E+00 0.  1.
          4   -1    0    0  502    0 -0.00000000000E+00 -0.00000000000E+00 -0.81914100532E+03  0.81914100532E+03  0.00000000000E+00 0.  1.
        -13    1    1    2    0    0 -0.43528112260E+03 -0.68498606713E+03  0.26864186150E+03  0.85489416232E+03  0.10566000000E+00 0.  1.
         13    1    1    2    0    0  0.39696447128E+03  0.37303589958E+03 -0.27379901937E+03  0.60967408343E+03  0.10566000000E+00 0. -1.
          4    1    1    2  501    0  0.38316651318E+02  0.31195016756E+03  0.20874216764E+03  0.37729877466E+03  0.00000000000E+00 0.  1.
</event>
<event>
 5    1  0.4866530E-005  0.2530743E+03  0.7818608E-02  0.1028812E+00
          4   -1    0    0  502    0 -0.00000000000E+00  0.00000000000E+00  0.89186888502E+03  0.89186888502E+03  0.00000000000E+00 0.  1.
         21   -1    0    0  501  502  0.00000000000E+00 -0.00000000000E+00 -0.38627701804E+03  0.38627701804E+03  0.00000000000E+00 0.  1.
        -13    1    1    2    0    0 -0.15042719626E+03 -0.21199549841E+03  0.69482140940E+03  0.74185391745E+03  0.10566000000E+00 0.  1.
         13    1    1    2    0    0  0.94349602517E+02  0.21357654745E+03  0.90931020935E+02  0.25056985224E+03  0.10566000000E+00 0. -1.
          4    1    1    2  501    0  0.56077593742E+02 -0.15810490450E+01 -0.28016056335E+03  0.28572213337E+03  0.00000000000E+00 0.  1.
</event>
<event>
 5    1  0.4866530E-005  0.4297721E+03  0.7818608E-02  0.9646803E-01
         21   -1    0    0  501  502  0.00000000000E+00  0.00000000000E+00  0.50010615016E+03  0.50010615016E+03  0.00000000000E+00 0. -1.
          4   -1    0    0  502    0 -0.00000000000E+00 -0.00000000000E+00 -0.48822673461E+03  0.48822673461E+03  0.00000000000E+00 0.  1.
        -13    1    1    2    0    0  0.44652978198E+03 -0.18067632219E+03 -0.51048332044E+02  0.48439521361E+03  0.10566000000E+00 0.  1.
         13    1    1    2    0    0 -0.36618342734E+03  0.91739786809E+02  0.69743818162E+02  0.38388891920E+03  0.10566000000E+00 0. -1.
          4    1    1    2  501    0 -0.80346354639E+02  0.88936535386E+02 -0.68160705686E+01  0.12004875196E+03  0.00000000000E+00 0.  1.
</event>
<event>
 5    1  0.4866530E-005  0.5008464E+03  0.7818608E-02  0.9548950E-01
         21   -1    0    0  501  502  0.00000000000E+00  0.00000000000E+00  0.36411987140E+03  0.36411987140E+03  0.00000000000E+00 0. -1.
         -4   -1    0    0    0  501 -0.00000000000E+00 -0.00000000000E+00 -0.21696225885E+04  0.21696225885E+04  0.00000000000E+00 0. -1.
        -13    1    1    2    0    0 -0.37920213156E+03 -0.64613047098E+02 -0.12434011188E+04  0.13015434898E+04  0.10566000000E+00 0.  1.
         13    1    1    2    0    0 -0.25930590376E+03  0.31679764175E+03 -0.23017868191E+03  0.46966214912E+03  0.10566000000E+00 0. -1.
         -4    1    1    2    0  502  0.63850803532E+03 -0.25218459466E+03 -0.33192291639E+03  0.76253682099E+03  0.00000000000E+00 0. -1.
</event>
<event>
 5    1  0.4866530E-005  0.5261020E+03  0.7818608E-02  0.9422527E-01
          4   -1    0    0  502    0 -0.00000000000E+00  0.00000000000E+00  0.47494651737E+03  0.47494651737E+03  0.00000000000E+00 0.  1.
         21   -1    0    0  501  502  0.00000000000E+00 -0.00000000000E+00 -0.15860206506E+04  0.15860206506E+04  0.00000000000E+00 0. -1.
        -13    1    1    2    0    0 -0.49800963489E+03 -0.17624005505E+03  0.10384830929E+03  0.53838521149E+03  0.10566000000E+00 0.  1.
         13    1    1    2    0    0  0.39194300503E+03  0.40377181422E+03 -0.45935192639E+03  0.72639878895E+03  0.10566000000E+00 0. -1.
          4    1    1    2  501    0  0.10606662985E+03 -0.22753175917E+03 -0.75557051609E+03  0.79618316749E+03  0.00000000000E+00 0.  1.
</event>
<event>
 5    1  0.4866530E-005  0.4974814E+03  0.7818608E-02  0.9831356E-01
         21   -1    0    0  501  502  0.00000000000E+00  0.00000000000E+00  0.15543530162E+03  0.15543530162E+03  0.00000000000E+00 0.  1.
          4   -1    0    0  502    0 -0.00000000000E+00 -0.00000000000E+00 -0.25183393545E+04  0.25183393545E+04  0.00000000000E+00 0.  1.
        -13    1    1    2    0    0 -0.16099470376E+03  0.42073326800E+03 -0.84475972877E+03  0.95736867922E+03  0.10566000000E+00 0.  1.
         13    1    1    2    0    0 -0.14288855263E+03  0.31986348516E+02 -0.80758924391E+03  0.82075615320E+03  0.10566000000E+00 0. -1.
          4    1    1    2  501    0  0.30388325640E+03 -0.45271961651E+03 -0.71055508016E+03  0.89564982367E+03  0.00000000000E+00 0.  1.
</event>
<event>
 5    1  0.4866530E-005  0.4735642E+03  0.7818608E-02  0.1004646E+00
          4   -1    0    0  502    0 -0.00000000000E+00  0.00000000000E+00  0.59652333356E+03  0.59652333356E+03  0.00000000000E+00 0.  1.
         21   -1    0    0  501  502  0.00000000000E+00 -0.00000000000E+00 -0.74377334416E+03  0.74377334416E+03  0.00000000000E+00 0.  1.
        -13    1    1    2    0    0  0.25639611873E+03 -0.42438487158E+03 -0.41224594763E+03  0.64481642460E+03  0.10566000000E+00 0.  1.
         13    1    1    2    0    0  0.89051482153E+01  0.82650223372E+02  0.24905098685E+03  0.26255811986E+03  0.10566000000E+00 0. -1.
          4    1    1    2  501    0 -0.26530126695E+03  0.34173464821E+03  0.15944950193E+02  0.43292213326E+03  0.00000000000E+00 0.  1.
</event>
<event>
 5    1  0.4866530E-005  0.3218422E+03  0.7818608E-02  0.1056037E+00
         21   -1    0    0  501  502  0.00000000000E+00  0.00000000000E+00  0.78089316821E+03  0.78089316821E+03  0.00000000000E+00 0.  1.
          4   -1    0    0  502    0 -0.00000000000E+00 -0.00000000000E+00 -0.45248289409E+03  0.45248289409E+03  0.00000000000E+00 0.  1.
        -13    1    1    2    0    0 -0.27117159318E+03  0.10961580749E+03 -0.23422931539E+03  0.37471728216E+03  0.10566000000E+00 0.  1.
         13    1    1    2    0    0 -0.44819929396E+02 -0.30327880914E+02 -0.10368281880E+03  0.11695616490E+03  0.10566000000E+00 0. -1.
          4    1    1    2  501    0  0.31599152258E+03 -0.79287926574E+02  0.66632240830E+03  0.74170261524E+03  0.00000000000E+00 0.  1.
</event>
<event>
 5    1  0.4866530E-005  0.5886899E+03  0.7818608E-02  0.9577183E-01
         -4   -1    0    0    0  501 -0.00000000000E+00  0.00000000000E+00  0.18655461677E+04  0.18655461677E+04  0.00000000000E+00 0. -1.
         21   -1    0    0  501  502  0.00000000000E+00 -0.00000000000E+00 -0.26909273674E+03  0.26909273674E+03  0.00000000000E+00 0. -1.
        -13    1    1    2    0    0 -0.17030567012E+03 -0.12971779020E+03  0.17741100323E+03  0.27803848942E+03  0.10566000000E+00 0.  1.
         13    1    1    2    0    0 -0.16079381869E+03 -0.47308318584E+03  0.71596087308E+03  0.87307636310E+03  0.10566000000E+00 0. -1.
         -4    1    1    2    0  502  0.33109948881E+03  0.60280097604E+03  0.70308155465E+03  0.98352405191E+03  0.00000000000E+00 0. -1.
</event>
<event>
 5    1  0.4866530E-005  0.2577387E+03  0.7818608E-02  0.1026459E+00
         21   -1    0    0  501  502  0.00000000000E+00  0.00000000000E+00  0.15279793292E+04  0.15279793292E+04  0.00000000000E+00 0. -1.
         -4   -1    0    0    0  501 -0.00000000000E+00 -0.00000000000E+00 -0.10083849332E+03  0.10083849332E+03  0.00000000000E+00 0. -1.
        -13    1    1    2    0    0 -0.26346625434E+03  0.29427555514E+02  0.41553605148E+03  0.49290026318E+03  0.10566000000E+00 0.  1.
         13    1    1    2    0    0  0.23092947025E+03  0.18433282867E+03  0.50485849926E+03  0.58496933885E+03  0.10566000000E+00 0. -1.
         -4    1    1    2    0  502  0.32536784091E+02 -0.21376038418E+03  0.50674628517E+03  0.55094822052E+03  0.00000000000E+00 0. -1.
</event>
<event>
 5    1  0.4866530E-005  0.2396803E+03  0.7818608E-02  0.1039972E+00
          4   -1    0    0  502    0 -0.00000000000E+00  0.00000000000E+00  0.20658195951E+04  0.20658195951E+04  0.00000000000E+00 0.  1.
         21   -1    0    0  501  502  0.00000000000E+00 -0.00000000000E+00 -0.18368610904E+03  0.18368610904E+03  0.00000000000E+00 0.  1.
        -13    1    1    2    0    0 -0.11875845866E+03 -0.21372440514E+03  0.14672610537E+04  0.14874934299E+04  0.10566000000E+00 0.  1.
         13    1    1    2    0    0  0.21122783692E+03 -0.13370582521E+02  0.46575476069E+03  0.51158917096E+03  0.10566000000E+00 0. -1.
          4    1    1    2  501    0 -0.92469378263E+02  0.22709498766E+03 -0.50882328377E+02  0.25042310332E+03  0.00000000000E+00 0.  1.
</event>
<event>
 5    1  0.4866530E-005  0.4715491E+03  0.7818608E-02  0.9967258E-01
         21   -1    0    0  501  502  0.00000000000E+00  0.00000000000E+00  0.24753086499E+03  0.24753086499E+03  0.00000000000E+00 0. -1.
         -4   -1    0    0    0  501 -0.00000000000E+00 -0.00000000000E+00 -0.15806091376E+04  0.15806091376E+04  0.00000000000E+00 0. -1.
        -13    1    1    2    0    0 -0.17833384264E+02  0.10764724883E+03 -0.52072357368E+03  0.53203290418E+03  0.10566000000E+00 0.  1.
         13    1    1    2    0    0  0.62907642526E+02 -0.50344439658E+03 -0.16044923181E+03  0.53212554824E+03  0.10566000000E+00 0. -1.
         -4    1    1    2    0  502 -0.45074258262E+02  0.39579714775E+03 -0.65190546709E+03  0.76398155014E+03  0.00000000000E+00 0. -1.
</event>
<event>
 5    1  0.4866530E-005  0.4888161E+03  0.7818608E-02  0.9502827E-01
          4   -1    0    0  502    0 -0.00000000000E+00  0.00000000000E+00  0.26495587275E+04  0.26495587275E+04  0.00000000000E+00 0.  1.
         21   -1    0    0  501  502  0.00000000000E+00 -0.00000000000E+00 -0.24029225497E+03  0.24029225497E+03  0.00000000000E+00 0. -1.
        -13    1    1    2    0    0  0.29876602444E+03  0.47464106381E+03  0.39451337738E+03  0.68570116881E+03  0.10566000000E+00 0.  1.
         13    1    1    2    0    0 -0.43409787118E+03 -0.20451006906E+03  0.65934868702E+03  0.81547902018E+03  0.10566000000E+00 0. -1.
          4    1    1    2  501    0  0.13533184673E+03 -0.27013099475E+03  0.13554044082E+04  0.13886707935E+04  0.00000000000E+00 0.  1.
</event>
<event>
 5    1  0.4866530E-005  0.1736581E+03  0.7818608E-02  0.1079866E+00
         21   -1    0    0  501  502  0.00000000000E+00  0.00000000000E+00  0.64299223387E+02  0.64299223387E+02  0.00000000000E+00 0. -1.
          4   -1    0    0  502    0 -0.00000000000E+00 -0.00000000000E+00 -0.71509211056E+03  0.71509211056E+03  0.00000000000E+00 0.  1.
        -13    1    1    2    0    0  0.82035272738E+02  0.16123572157E+03 -0.29681723688E+03  0.34760211040E+03  0.10566000000E+00 0.  1.
         13    1    1    2    0    0 -0.81729737849E+02 -0.14737065861E+03 -0.37238531869E+03  0.40874037947E+03  0.10566000000E+00 0. -1.
          4    1    1    2  501    0 -0.30553488887E+00 -0.13865062964E+02  0.18409668398E+02  0.23048844073E+02  0.00000000000E+00 0.  1.
</event>
<event>
 5    1  0.4866530E-005  0.4136727E+03  0.7818608E-02  0.1003861E+00
          4   -1    0    0  502    0 -0.00000000000E+00  0.00000000000E+00  0.13782028964E+04  0.13782028964E+04  0.00000000000E+00 0.  1.
         21   -1    0    0  501  502  0.00000000000E+00 -0.00000000000E+00 -0.25255082808E+03  0.25255082808E+03  0.00000000000E+00 0.  1.
        -13    1    1    2    0    0 -0.23845337022E+02  0.47042454041E+03  0.72543106872E+03  0.86493820296E+03  0.10566000000E+00 0.  1.
         13    1    1    2    0    0  0.10134023769E+03 -0.78092594088E+02  0.33760123088E+03  0.36103033014E+03  0.10566000000E+00 0. -1.
          4    1    1    2  501    0 -0.77494900669E+02 -0.39233194633E+03  0.62619768753E+02  0.40478519140E+03  0.00000000000E+00 0.  1.
</event>
<event>
 5    1  0.4866530E-005  0.1928496E+03  0.7818608E-02  0.1065151E+00
         -4   -1    0    0    0  501 -0.00000000000E+00  0.00000000000E+00  0.23357952249E+03  0.23357952249E+03  0.00000000000E+00 0. -1.
         21   -1    0    0  501  502  0.00000000000E+00 -0.00000000000E+00 -0.21129327475E+04  0.21129327475E+04  0.00000000000E+00 0. -1.
        -13    1    1    2    0    0 -0.60637001371E+02  0.16419120012E+03  0.53353498802E+02  0.18298142838E+03  0.10566000000E+00 0.  1.
         13    1    1    2    0    0  0.18661324420E+03 -0.16396503457E+03 -0.22781496629E+02  0.24945549347E+03  0.10566000000E+00 0. -1.
         -4    1    1    2    0  502 -0.12597624282E+03 -0.22616554864E+00 -0.19099252272E+04  0.19140753481E+04  0.00000000000E+00 0. -1.
</event>
<event>
 5    1  0.4866530E-005  0.4924434E+03  0.7818608E-02  0.1005020E+00
         21   -1    0    0  501  502  0.00000000000E+00  0.00000000000E+00  0.39538828905E+03  0.39538828905E+03  0.00000000000E+00 0. -1.
         -4   -1    0    0    0  501 -0.00000000000E+00 -0.00000000000E+00 -0.81896293641E+03  0.81896293641E+03  0.00000000000E+00 0. -1.
        -13    1    1    2    0    0 -0.34920561524E+01 -0.72953499614E+02 -0.17589582221E+03  0.19045671161E+03  0.10566000000E+00 0.  1.
         13    1    1    2    0    0  0.29401584933E+03  0.42868893611E+03 -0.44693224693E+02  0.52174420849E+03  0.10566000000E+00 0. -1.
         -4    1    1    2    0  502 -0.29052379318E+03 -0.35573543649E+03 -0.20298560046E+03  0.50215030536E+03  0.00000000000E+00 0. -1.
</event>
<event>
 5    1  0.4866530E-005  0.2458195E+03  0.7818608E-02  0.1032582E+00
         21   -1    0    0  501  502  0.00000000000E+00  0.00000000000E+00  0.23449116950E+03  0.23449116950E+03  0.00000000000E+00 0. -1.
          4   -1    0    0  502    0 -0.00000000000E+00 -0.00000000000E+00 -0.37750569519E+03  0.37750569519E+03  0.00000000000E+00 0.  1.
        -13    1    1    2    0    0  0.46940040537E+02  0.24406151488E+03 -0.19376864425E+03  0.31514391809E+03  0.10566000000E+00 0.  1.
         13    1    1    2    0    0 -0.36901324933E+02 -0.23778739061E+03 -0.41677377775E+01  0.24066975738E+03  0.10566000000E+00 0. -1.
          4    1    1    2  501    0 -0.10038715604E+02 -0.62741242677E+01  0.54921856344E+02  0.56183189216E+02  0.00000000000E+00 0.  1.
</event>
<event>
 5    1  0.4866530E-005  0.5878665E+03  0.7818608E-02  0.9537053E-01
          4   -1    0    0  502    0 -0.00000000000E+00  0.00000000000E+00  0.30173815808E+04  0.30173815808E+04  0.00000000000E+00 0.  1.
         21   -1    0    0  501  502  0.00000000000E+00 -0.00000000000E+00 -0.59798590266E+03  0.59798590266E+03  0.00000000000E+00 0.  1.
        -13    1    1    2    0    0 -0.18785454540E+03  0.22680059680E+03  0.45766513681E+03  0.54422902307E+03  0.10566000000E+00 0.  1.
         13    1    1    2    0    0  0.84632146686E+03  0.39339426163E+03  0.19552397451E+04  0.21665598405E+04  0.10566000000E+00 0. -1.
          4    1    1    2  501    0 -0.65846692146E+03 -0.62019485843E+03  0.64907961646E+01  0.90457861986E+03  0.00000000000E+00 0.  1.
</event>
<event>
 5    1  0.4866530E-005  0.4410971E+03  0.7818608E-02  0.9887330E-01
         -4   -1    0    0    0  501 -0.00000000000E+00  0.00000000000E+00  0.17147517439E+04  0.17147517439E+04  0.00000000000E+00 0. -1.
         21   -1    0    0  501  502  0.00000000000E+00 -0.00000000000E+00 -0.21589912263E+03  0.21589912263E+03  0.00000000000E+00 0. -1.
        -13    1    1    2    0    0 -0.76949112641E+02  0.15596760531E+03  0.38011252334E+03  0.41801028863E+03  0.10566000000E+00 0.  1.
         13    1    1    2    0    0 -0.20733681032E+03 -0.46838066190E+03  0.90342324175E+03  0.10385290377E+04  0.10566000000E+00 0. -1.
         -4    1    1    2    0  502  0.28428592296E+03  0.31241305659E+03  0.21531685614E+03  0.47411154011E+03  0.00000000000E+00 0. -1.
</event>
<event>
 5    1  0.4866530E-005  0.2571488E+03  0.7818608E-02  0.1036535E+00
          4   -1    0    0  502    0 -0.00000000000E+00  0.00000000000E+00  0.28816017521E+04  0.28816017521E+04  0.00000000000E+00 0.  1.
         21   -1    0    0  501  502  0.00000000000E+00 -0.00000000000E+00 -0.12835129694E+03  0.12835129694E+03  0.00000000000E+00 0.  1.
        -13    1    1    2    0    0 -0.41432329187E+03 -0.10472045432E+03  0.22804938629E+04  0.23201901719E+04  0.10566000000E+00 0.  1.
         13    1    1    2    0    0  0.17045632216E+03  0.84514025740E+02  0.38563406028E+03  0.43001350900E+03  0.10566000000E+00 0. -1.
          4    1    1    2  501    0  0.24386696971E+03  0.20206428577E+02  0.87122531937E+02  0.25974936813E+03  0.00000000000E+00 0.  1.
</event>
<event>
 5    1  0.4866530E-005  0.3221609E+03  0.7818608E-02  0.9985557E-01
         21   -1    0    0  501  502  0.00000000000E+00  0.00000000000E+00  0.32633705544E+03  0.32633705544E+03  0.00000000000E+00 0. -1.
          4   -1    0    0  502    0 -0.00000000000E+00 -0.00000000000E+00 -0.54468793911E+03  0.54468793911E+03  0.00000000000E+00 0.  1.
        -13    1    1    2    0    0  0.12673095075E+03  0.29586918134E+03  0.10374702280E+03  0.33817563817E+03  0.10566000000E+00 0.  1.
         13    1    1    2    0    0 -0.14784197248E+03 -0.28652779951E+03 -0.36322698886E+03  0.48568434741E+03  0.10566000000E+00 0. -1.
          4    1    1    2  501    0  0.21111021731E+02 -0.93413818334E+01  0.41129082398E+02  0.47165008979E+02  0.00000000000E+00 0.  1.
</event>
<event>
 5    1  0.4866530E-005  0.3487489E+03  0.7818608E-02  0.9890003E-01
         21   -1    0    0  501  502  0.00000000000E+00  0.00000000000E+00  0.58327859084E+02  0.58327859084E+02  0.00000000000E+00 0.  1.
         -4   -1    0    0    0  501 -0.00000000000E+00 -0.00000000000E+00 -0.29014938945E+04  0.29014938945E+04  0.00000000000E+00 0. -1.
        -13    1    1    2    0    0 -0.16199252910E+03 -0.31397644503E+03 -0.19676602724E+04  0.19991272461E+04  0.10566000000E+00 0.  1.
         13    1    1    2    0    0  0.15928900798E+03  0.29995715883E+03 -0.88191005112E+03  0.94504636639E+03  0.10566000000E+00 0. -1.
         -4    1    1    2    0  502  0.27035211263E+01  0.14019286195E+02  0.64042881136E+01  0.15648141044E+02  0.00000000000E+00 0. -1.
</event>
<event>
 5    1  0.4866530E-005  0.8147047E+02  0.7818608E-02  0.1242068E+00
          4   -1    0    0  502    0 -0.00000000000E+00  0.00000000000E+00  0.26123643997E+02  0.26123643997E+02  0.00000000000E+00 0.  1.
         21   -1    0    0  501  502  0.00000000000E+00 -0.00000000000E+00 -0.41787988643E+03  0.41787988643E+03  0.00000000000E+00 0.  1.
        -13    1    1    2    0    0  0.91143359947E+02  0.78538451865E+01 -0.21599476389E+03  0.23456884733E+03  0.10566000000E+00 0.  1.
         13    1    1    2    0    0 -0.18933481263E+02 -0.25699126398E+02 -0.22428341906E+02  0.39012350545E+02  0.10566000000E+00 0. -1.
          4    1    1    2  501    0 -0.72209878684E+02  0.17845281212E+02 -0.15333313664E+03  0.17042233256E+03  0.00000000000E+00 0.  1.
</event>
<event>
 5    1  0.4866530E-005  0.2658472E+03  0.7818608E-02  0.1022493E+00
         21   -1    0    0  501  502  0.00000000000E+00  0.00000000000E+00  0.78363875472E+02  0.78363875472E+02  0.00000000000E+00 0. -1.
          4   -1    0    0  502    0 -0.00000000000E+00 -0.00000000000E+00 -0.15130240148E+04  0.15130240148E+04  0.00000000000E+00 0.  1.
        -13    1    1    2    0    0 -0.23652979347E+03 -0.12590186915E+03 -0.12144928199E+04  0.12437003034E+04  0.10566000000E+00 0.  1.
         13    1    1    2    0    0  0.22920470746E+03  0.11659681859E+03 -0.21232541252E+03  0.33348419452E+03  0.10566000000E+00 0. -1.
          4    1    1    2  501    0  0.73250860074E+01  0.93050505534E+01 -0.78419068807E+01  0.14203392353E+02  0.00000000000E+00 0.  1.
</event>
<event>
 5    1  0.4866530E-005  0.1619343E+03  0.7818608E-02  0.1089903E+00
         -4   -1    0    0    0  501 -0.00000000000E+00  0.00000000000E+00  0.75735799925E+02  0.75735799925E+02  0.00000000000E+00 0. -1.
         21   -1    0    0  501  502  0.00000000000E+00 -0.00000000000E+00 -0.44451327704E+03  0.44451327704E+03  0.00000000000E+00 0.  1.
        -13    1    1    2    0    0  0.12751648390E+03  0.91870716337E+02 -0.27650351536E+03  0.31804856132E+03  0.10566000000E+00 0.  1.
         13    1    1    2    0    0 -0.14045080567E+03 -0.85008942106E+02 -0.78031107616E+02  0.18177407398E+03  0.10566000000E+00 0. -1.
         -4    1    1    2    0  502  0.12934321772E+02 -0.68617742313E+01 -0.14242854142E+02  0.20426441672E+02  0.00000000000E+00 0. -1.
</event>
<event>
 5    1  0.4866530E-005  0.8024057E+03  0.7818608E-02  0.8986367E-01
         21   -1    0    0  501  502  0.00000000000E+00  0.00000000000E+00  0.48596313079E+03  0.48596313079E+03  0.00000000000E+00 0. -1.
         -4   -1    0    0    0  501 -0.00000000000E+00 -0.00000000000E+00 -0.28566999250E+04  0.28566999250E+04  0.00000000000E+00 0. -1.
        -13    1    1    2    0    0  0.68697226272E+03  0.32304192240E+03 -0.18106387200E+04  0.19633388803E+04  0.10566000000E+00 0.  1.
         13    1    1    2    0    0 -0.81683264066E+03 -0.55888759699E+03 -0.46771072423E+03  0.10946799723E+04  0.10566000000E+00 0. -1.
         -4    1    1    2    0  502  0.12986037794E+03  0.23584567459E+03 -0.92387349918E+02  0.28464420319E+03  0.00000000000E+00 0. -1.
</event>
<event>
 5    1  0.4866530E-005  0.4872723E+03  0.7818608E-02  0.9602574E-01
         21   -1    0    0  501  502  0.00000000000E+00  0.00000000000E+00  0.86881802685E+03  0.86881802685E+03  0.00000000000E+00 0.  1.
          4   -1    0    0  502    0 -0.00000000000E+00 -0.00000000000E+00 -0.55518648621E+03  0.55518648621E+03  0.00000000000E+00 0.  1.
        -13    1    1    2    0    0  0.39181799272E+03 -0.23679154940E+03  0.36743911357E+02  0.45928390291E+03  0.10566000000E+00 0.  1.
         13    1    1    2    0    0  0.16616852098E+03  0.30215732448E+03  0.15753516035E+02  0.34519445322E+03  0.10566000000E+00 0. -1.
          4    1    1    2  501    0 -0.55798651370E+03 -0.65365775078E+02  0.26113411324E+03  0.61952615694E+03  0.00000000000E+00 0.  1.
</event>
<event>
 5    1  0.4866530E-005  0.7003174E+02  0.7818608E-02  0.1226644E+00
         21   -1    0    0  501  502  0.00000000000E+00  0.00000000000E+00  0.24661763028E+02  0.24661763028E+02  0.00000000000E+00 0. -1.
         -4   -1    0    0    0  501 -0.00000000000E+00 -0.00000000000E+00 -0.39316157383E+03  0.39316157383E+03  0.00000000000E+00 0. -1.
        -13    1    1    2    0    0 -0.58537385507E+02 -0.32559863353E+02 -0.14509858470E+03  0.15981358093E+03  0.10566000000E+00 0.  1.
         13    1    1    2    0    0  0.72537172955E+02  0.14618032681E+02 -0.22331190474E+03  0.23525209096E+03  0.10566000000E+00 0. -1.
         -4    1    1    2    0  502 -0.13999787448E+02  0.17941830672E+02 -0.89321363440E-01  0.22757664967E+02  0.00000000000E+00 0. -1.
</event>
<event>
 5    1  0.4866530E-005  0.4929333E+03  0.7818608E-02  0.1012497E+00
         -4   -1    0    0    0  501 -0.00000000000E+00  0.00000000000E+00  0.46849055976E+03  0.46849055976E+03  0.00000000000E+00 0. -1.
         21   -1    0    0  501  502  0.00000000000E+00 -0.00000000000E+00 -0.12366841844E+04  0.12366841844E+04  0.00000000000E+00 0. -1.
        -13    1    1    2    0    0  0.51256818518E+02 -0.25464247761E+02  0.25579794642E+03  0.26212266196E+03  0.10566000000E+00 0.  1.
         13    1    1    2    0    0 -0.23571570805E+03  0.46452029712E+03 -0.39304510589E+03  0.65255303837E+03  0.10566000000E+00 0. -1.
         -4    1    1    2    0  502  0.18445888953E+03 -0.43905604936E+03 -0.63094646514E+03  0.79049904382E+03  0.00000000000E+00 0. -1.
</event>
<event>
 5    1  0.4866530E-005  0.1938196E+02  0.7818608E-02  0.1542671E+00
         -4   -1    0    0    0  501 -0.00000000000E+00  0.00000000000E+00  0.31730632516E+02  0.31730632516E+02  0.00000000000E+00 0. -1.
         21   -1    0    0  501  502  0.00000000000E+00 -0.00000000000E+00 -0.25003753078E+02  0.25003753078E+02  0.00000000000E+00 0. -1.
        -13    1    1    2    0    0 -0.11709033518E+02 -0.73896311073E+01 -0.27433009919E+00  0.13848990392E+02  0.10566000000E+00 0.  1.
         13    1    1    2    0    0  0.73835194885E+01 -0.16363712630E+02  0.86319274426E+00  0.17973416949E+02  0.10566000000E+00 0. -1.
         -4    1    1    2    0  502  0.43255140296E+01  0.23753343738E+02  0.61380167926E+01  0.24911978253E+02  0.00000000000E+00 0. -1.
</event>
<event>
 5    1  0.4866530E-005  0.3522831E+03  0.7818608E-02  0.1028489E+00
         -4   -1    0    0    0  501 -0.00000000000E+00  0.00000000000E+00  0.12074076927E+04  0.12074076927E+04  0.00000000000E+00 0. -1.
         21   -1    0    0  501  502  0.00000000000E+00 -0.00000000000E+00 -0.35214634323E+03  0.35214634323E+03  0.00000000000E+00 0. -1.
        -13    1    1    2    0    0 -0.30696128797E+02  0.89658820602E+02  0.40291643105E+03  0.41391136492E+03  0.10566000000E+00 0.  1.
         13    1    1    2    0    0  0.37664133784E+03 -0.37363841783E+02  0.64379561978E+03  0.74681159957E+03  0.10566000000E+00 0. -1.
         -4    1    1    2    0  502 -0.34594520904E+03 -0.52294978819E+02 -0.19145070138E+03  0.39883107142E+03  0.00000000000E+00 0. -1.
</event>
<event>
 5    1  0.4866530E-005  0.4867384E+03  0.7818608E-02  0.1005336E+00
         -4   -1    0    0    0  501 -0.00000000000E+00  0.00000000000E+00  0.91922809586E+03  0.91922809586E+03  0.00000000000E+00 0. -1.
         21   -1    0    0  501  502  0.00000000000E+00 -0.00000000000E+00 -0.32530405674E+03  0.32530405674E+03  0.00000000000E+00 0. -1.
        -13    1    1    2    0    0  0.64720487369E+02 -0.37631581911E+02  0.13929284433E+03  0.15813723498E+03  0.10566000000E+00 0.  1.
         13    1    1    2    0    0 -0.51398102603E+03  0.11874173013E+03  0.28331744931E+03  0.59878617372E+03  0.10566000000E+00 0. -1.
         -4    1    1    2    0  502  0.44926053866E+03 -0.81110148218E+02  0.17131374548E+03  0.48760874390E+03  0.00000000000E+00 0. -1.
</event>
<event>
 5    1  0.4866530E-005  0.4657882E+03  0.7818608E-02  0.9756118E-01
          4   -1    0    0  502    0 -0.00000000000E+00  0.00000000000E+00  0.16895440887E+04  0.16895440887E+04  0.00000000000E+00 0.  1.
         21   -1    0    0  501  502  0.00000000000E+00 -0.00000000000E+00 -0.22813829626E+03  0.22813829626E+03  0.00000000000E+00 0.  1.
        -13    1    1    2    0    0 -0.50231945641E+03 -0.50660379295E+02  0.31328937877E+03  0.59417300202E+03  0.10566000000E+00 0.  1.
         13    1    1    2    0    0  0.10409859670E+03  0.20589383705E+03  0.38388925883E+03  0.44788365027E+03  0.10566000000E+00 0. -1.
          4    1    1    2  501    0  0.39822085971E+03 -0.15523345775E+03  0.76422715481E+03  0.87562573264E+03  0.00000000000E+00 0.  1.
</event>
<event>
 5    1  0.4866530E-005  0.3649214E+03  0.7818608E-02  0.9993608E-01
         21   -1    0    0  501  502  0.00000000000E+00  0.00000000000E+00  0.16558140098E+04  0.16558140098E+04  0.00000000000E+00 0. -1.
         -4   -1    0    0    0  501 -0.00000000000E+00 -0.00000000000E+00 -0.27124673391E+03  0.27124673391E+03  0.00000000000E+00 0. -1.
        -13    1    1    2    0    0  0.33238403297E+02 -0.21330440032E+03  0.24194085019E+02  0.21723011661E+03  0.10566000000E+00 0.  1.
         13    1    1    2    0    0 -0.35982284414E+03  0.11832742030E+03  0.13128643573E+04  0.13664138060E+04  0.10566000000E+00 0. -1.
         -4    1    1    2    0  502  0.32658444085E+03  0.94976980025E+02  0.47508833641E+02  0.34341682110E+03  0.00000000000E+00 0. -1.
</event>
<event>
 5    1  0.4866530E-005  0.4661929E+03  0.7818608E-02  0.9740135E-01
         21   -1    0    0  501  502  0.00000000000E+00  0.00000000000E+00  0.74005289419E+03  0.74005289419E+03  0.00000000000E+00 0.  1.
          4   -1    0    0  502    0 -0.00000000000E+00 -0.00000000000E+00 -0.66446808091E+03  0.66446808091E+03  0.00000000000E+00 0.  1.
        -13    1    1    2    0    0  0.30163156929E+03 -0.34179486343E+03  0.32431762675E+02  0.45700893061E+03  0.10566000000E+00 0.  1.
         13    1    1    2    0    0  0.16692407699E+03  0.17680878152E+03 -0.26759512550E+03  0.36156901839E+03  0.10566000000E+00 0. -1.
          4    1    1    2  501    0 -0.46855564628E+03  0.16498608191E+03  0.31074817611E+03  0.58594302611E+03  0.00000000000E+00 0.  1.
</event>
<event>
 5    1  0.5210895E-005  0.3037814E+03  0.7818608E-02  0.1023722E+00
          4   -1    0    0  502    0 -0.00000000000E+00  0.00000000000E+00  0.25853127195E+04  0.25853127195E+04  0.00000000000E+00 0.  1.
         21   -1    0    0  501  502  0.00000000000E+00 -0.00000000000E+00 -0.14819029057E+03  0.14819029057E+03  0.00000000000E+00 0.  1.
        -13    1    1    2    0    0 -0.28079902318E+03 -0.31635446730E+02  0.16717439666E+04  0.16954576945E+04  0.10566000000E+00 0.  1.
         13    1    1    2    0    0  0.41069391021E+02 -0.16644968051E+03  0.69944998754E+03  0.72015448846E+03  0.10566000000E+00 0. -1.
          4    1    1    2  501    0  0.23972963216E+03  0.19808512724E+03  0.65928474841E+02  0.31789082712E+03  0.00000000000E+00 0.  1.
</event>
<event>
 5    1  0.4866530E-005  0.4493378E+03  0.7818608E-02  0.1003232E+00
         21   -1    0    0  501  502  0.00000000000E+00  0.00000000000E+00  0.48554154873E+03  0.48554154873E+03  0.00000000000E+00 0.  1.
          4   -1    0    0  502    0 -0.00000000000E+00 -0.00000000000E+00 -0.63959880323E+03  0.63959880323E+03  0.00000000000E+00 0.  1.
        -13    1    1    2    0    0  0.18171993081E+02 -0.37547897369E+03 -0.34845882895E+03  0.51257999147E+03  0.10566000000E+00 0.  1.
         13    1    1    2    0    0  0.42716630513E+01 -0.10180030486E+03  0.19441827618E+02  0.10372822663E+03  0.10566000000E+00 0. -1.
          4    1    1    2  501    0 -0.22443656132E+02  0.47727927855E+03  0.17495974684E+03  0.50883213386E+03  0.00000000000E+00 0.  1.
</event>
<event>
 5    1  0.4866530E-005  0.4441427E+03  0.7818608E-02  0.1024752E+00
         -4   -1    0    0    0  501 -0.00000000000E+00  0.00000000000E+00  0.10406569048E+04  0.10406569048E+04  0.00000000000E+00 0. -1.
         21   -1    0    0  501  502  0.00000000000E+00 -0.00000000000E+00 -0.29534141080E+03  0.29534141080E+03  0.00000000000E+00 0. -1.
        -13    1    1    2    0    0 -0.40354883979E+02  0.34543350064E+02  0.83382196885E+02  0.98865371167E+02  0.10566000000E+00 0.  1.
         13    1    1    2    0    0 -0.90695768749E+02  0.42447289188E+03  0.16518003251E+02  0.43436829305E+03  0.10566000000E+00 0. -1.
         -4    1    1    2    0  502  0.13105065273E+03 -0.45901624194E+03  0.64541529381E+03  0.80276465134E+03  0.00000000000E+00 0. -1.
</event>
<event>
 5    1  0.4866530E-005  0.1699214E+03  0.7818608E-02  0.1101534E+00
         21   -1    0    0  501  502  0.00000000000E+00  0.00000000000E+00  0.32357313395E+03  0.32357313395E+03  0.00000000000E+00 0. -1.
         -4   -1    0    0    0  501 -0.00000000000E+00 -0.00000000000E+00 -0.85283072828E+03  0.85283072828E+03  0.00000000000E+00 0. -1.
        -13    1    1    2    0    0 -0.25367262679E+02  0.98810682723E+02 -0.23616059678E+03  0.25725257564E+03  0.10566000000E+00 0.  1.
         13    1    1    2    0    0 -0.11181967441E+03 -0.19648454739E+03 -0.55980158286E+03  0.60372811785E+03  0.10566000000E+00 0. -1.
         -4    1    1    2    0  502  0.13718693709E+03  0.97673864665E+02  0.26670458531E+03  0.31542316873E+03  0.00000000000E+00 0. -1.
</event>
<event>
 5    1  0.4866530E-005  0.3729510E+02  0.7818608E-02  0.1354371E+00
         -4   -1    0    0    0  501 -0.00000000000E+00  0.00000000000E+00  0.93976342399E+01  0.93976342399E+01  0.00000000000E+00 0. -1.
         21   -1    0    0  501  502  0.00000000000E+00 -0.00000000000E+00 -0.80475662381E+03  0.80475662381E+03  0.00000000000E+00 0. -1.
        -13    1    1    2    0    0 -0.13364590529E+02  0.34935977782E+02 -0.22190511823E+03  0.22503561382E+03  0.10566000000E+00 0.  1.
         13    1    1    2    0    0  0.37352712117E+02 -0.13860953784E+02 -0.46650473459E+02  0.61348422802E+02  0.10566000000E+00 0. -1.
         -4    1    1    2    0  502 -0.23988121588E+02 -0.21075023998E+02 -0.52680339788E+03  0.52777022143E+03  0.00000000000E+00 0. -1.
</event>
<event>
 5    1  0.4866530E-005  0.3549897E+03  0.7818608E-02  0.9868885E-01
         21   -1    0    0  501  502  0.00000000000E+00  0.00000000000E+00  0.14533853873E+03  0.14533853873E+03  0.00000000000E+00 0. -1.
         -4   -1    0    0    0  501 -0.00000000000E+00 -0.00000000000E+00 -0.19548175946E+04  0.19548175946E+04  0.00000000000E+00 0. -1.
        -13    1    1    2    0    0 -0.26800641609E+03  0.18653989082E+03 -0.35808764071E+03  0.48461462991E+03  0.10566000000E+00 0.  1.
         13    1    1    2    0    0  0.37674584865E+03 -0.40551493241E+02 -0.13600998954E+04  0.14118971615E+04  0.10566000000E+00 0. -1.
         -4    1    1    2    0  502 -0.10873943256E+03 -0.14598839758E+03 -0.91291519820E+02  0.20364434196E+03  0.00000000000E+00 0. -1.
</event>
<event>
 5    1  0.4866530E-005  0.4535922E+03  0.7818608E-02  0.9940001E-01
         21   -1    0    0  501  502  0.00000000000E+00  0.00000000000E+00  0.21832146982E+03  0.21832146982E+03  0.00000000000E+00 0. -1.
         -4   -1    0    0    0  501 -0.00000000000E+00 -0.00000000000E+00 -0.15245626083E+04  0.15245626083E+04  0.00000000000E+00 0. -1.
        -13    1    1    2    0    0  0.11762335588E+03  0.64534303656E+02 -0.20891771151E+03  0.24828723597E+03  0.10566000000E+00 0.  1.
         13    1    1    2    0    0  0.25883132525E+03  0.25055755949E+03 -0.89287431297E+03  0.96280698765E+03  0.10566000000E+00 0. -1.
         -4    1    1    2    0  502 -0.37645468114E+03 -0.31509186314E+03 -0.20444911404E+03  0.53178985455E+03  0.00000000000E+00 0. -1.
</event>
<event>
 5    1  0.4866530E-005  0.4779547E+03  0.7818608E-02  0.9527645E-01
         21   -1    0    0  501  502  0.00000000000E+00  0.00000000000E+00  0.32833671357E+04  0.32833671357E+04  0.00000000000E+00 0.  1.
          4   -1    0    0  502    0 -0.00000000000E+00 -0.00000000000E+00 -0.20473883500E+03  0.20473883500E+03  0.00000000000E+00 0.  1.
        -13    1    1    2    0    0 -0.60840214539E+03 -0.17638587901E+03  0.18400365403E+04  0.19460214875E+04  0.10566000000E+00 0.  1.
         13    1    1    2    0    0  0.23497588861E+03  0.40549502238E+03  0.51607514591E+03  0.69711795903E+03  0.10566000000E+00 0. -1.
          4    1    1    2  501    0  0.37342625678E+03 -0.22910914337E+03  0.72251661449E+03  0.84496652422E+03  0.00000000000E+00 0.  1.
</event>
<event>
 5    1  0.4866530E-005  0.3222752E+03  0.7818608E-02  0.9985125E-01
          4   -1    0    0  502    0 -0.00000000000E+00  0.00000000000E+00  0.16788998121E+04  0.16788998121E+04  0.00000000000E+00 0.  1.
         21   -1    0    0  501  502  0.00000000000E+00 -0.00000000000E+00 -0.54002237069E+03  0.54002237069E+03  0.00000000000E+00 0.  1.
        -13    1    1    2    0    0 -0.17070155671E+03 -0.47437382878E+03 -0.36374557566E+03  0.62167548276E+03  0.10566000000E+00 0.  1.
         13    1    1    2    0    0  0.15764197955E+03  0.27234937944E+03  0.11321324708E+04  0.11750528162E+04  0.10566000000E+00 0. -1.
          4    1    1    2  501    0  0.13059577159E+02  0.20202444934E+03  0.37049054628E+03  0.42219388386E+03  0.00000000000E+00 0.  1.
</event>
<event>
 5    1  0.4866530E-005  0.1058043E+03  0.7818608E-02  0.1155294E+00
          4   -1    0    0  502    0 -0.00000000000E+00  0.00000000000E+00  0.34984782198E+03  0.34984782198E+03  0.00000000000E+00 0.  1.
         21   -1    0    0  501  502  0.00000000000E+00 -0.00000000000E+00 -0.10593278496E+03  0.10593278496E+03  0.00000000000E+00 0.  1.
        -13    1    1    2    0    0  0.77607681793E+02  0.79691306545E+02  0.28787588688E+03  0.30861982118E+03  0.10566000000E+00 0.  1.
         13    1    1    2    0    0 -0.79717183581E+02 -0.23177774970E+02 -0.34127663944E+02  0.89759385141E+02  0.10566000000E+00 0. -1.
          4    1    1    2  501    0  0.21095017880E+01 -0.56513531575E+02 -0.98331859183E+01  0.57401400629E+02  0.00000000000E+00 0.  1.
</event>
<event>
 5    1  0.4866530E-005  0.1236801E+03  0.7818608E-02  0.1130416E+00
         21   -1    0    0  501  502  0.00000000000E+00  0.00000000000E+00  0.73677912250E+03  0.73677912250E+03  0.00000000000E+00 0. -1.
         -4   -1    0    0    0  501 -0.00000000000E+00 -0.00000000000E+00 -0.49068797209E+03  0.49068797209E+03  0.00000000000E+00 0. -1.
        -13    1    1    2    0    0 -0.80418815461E+02  0.90251839376E+02 -0.10687303645E+03  0.16135190571E+03  0.10566000000E+00 0.  1.
         13    1    1    2    0    0  0.17733158101E+03 -0.10346960439E+03  0.68753765552E+03  0.71753779523E+03  0.10566000000E+00 0. -1.
         -4    1    1    2    0  502 -0.96912765547E+02  0.13217765019E+02 -0.33457346865E+03  0.34857739365E+03  0.00000000000E+00 0. -1.
</event>
<event>
 5    1  0.4866530E-005  0.5449356E+03  0.7818608E-02  0.9431739E-01
         21   -1    0    0  501  502  0.00000000000E+00  0.00000000000E+00  0.35754359242E+03  0.35754359242E+03  0.00000000000E+00 0.  1.
          4   -1    0    0  502    0 -0.00000000000E+00 -0.00000000000E+00 -0.23360789733E+04  0.23360789733E+04  0.00000000000E+00 0.  1.
        -13    1    1    2    0    0 -0.31743250985E+03 -0.41333229810E+03 -0.62707920969E+03  0.81537435166E+03  0.10566000000E+00 0.  1.
         13    1    1    2    0    0 -0.29161773221E+03  0.51825593194E+03 -0.10102901212E+04  0.11723123530E+04  0.10566000000E+00 0. -1.
          4    1    1    2  501    0  0.60905024206E+03 -0.10492363384E+03 -0.34116604996E+03  0.70593586107E+03  0.00000000000E+00 0.  1.
</event>
<event>
 5    1  0.4866530E-005  0.3793420E+03  0.7818608E-02  0.9916992E-01
         21   -1    0    0  501  502  0.00000000000E+00  0.00000000000E+00  0.10565315422E+03  0.10565315422E+03  0.00000000000E+00 0.  1.
          4   -1    0    0  502    0 -0.00000000000E+00 -0.00000000000E+00 -0.30279014172E+04  0.30279014172E+04  0.00000000000E+00 0.  1.
        -13    1    1    2    0    0  0.97633554643E+01  0.41869767231E+03 -0.91840826052E+03  0.10093942778E+04  0.10566000000E+00 0.  1.
         13    1    1    2    0    0  0.22018982494E+03 -0.11326549346E+03 -0.12982137219E+04  0.13216170058E+04  0.10566000000E+00 0. -1.
          4    1    1    2  501    0 -0.22995318041E+03 -0.30543217886E+03 -0.70562628052E+03  0.80254328782E+03  0.00000000000E+00 0.  1.
</event>
<event>
 5    1  0.4866530E-005  0.5510293E+02  0.7818608E-02  0.1272300E+00
         21   -1    0    0  501  502  0.00000000000E+00  0.00000000000E+00  0.86361206602E+02  0.86361206602E+02  0.00000000000E+00 0. -1.
          4   -1    0    0  502    0 -0.00000000000E+00 -0.00000000000E+00 -0.28016768203E+03  0.28016768203E+03  0.00000000000E+00 0.  1.
        -13    1    1    2    0    0  0.55349560742E+02  0.19306887302E+01 -0.26591376775E+03  0.27162003695E+03  0.10566000000E+00 0.  1.
         13    1    1    2    0    0 -0.47745853621E+02 -0.11385299231E+02  0.62265826524E+02  0.79286416827E+02  0.10566000000E+00 0. -1.
          4    1    1    2  501    0 -0.76037071214E+01  0.94546105006E+01  0.98414657946E+01  0.15622434852E+02  0.00000000000E+00 0.  1.
</event>
<event>
 5    1  0.4866530E-005  0.4974439E+02  0.7818608E-02  0.1308254E+00
          4   -1    0    0  502    0 -0.00000000000E+00  0.00000000000E+00  0.45132696479E+02  0.45132696479E+02  0.00000000000E+00 0.  1.
         21   -1    0    0  501  502  0.00000000000E+00 -0.00000000000E+00 -0.16977378040E+03  0.16977378040E+03  0.00000000000E+00 0. -1.
        -13    1    1    2    0    0  0.20489188616E+02 -0.40428771464E+02 -0.47251147943E+01  0.45570059097E+02  0.10566000000E+00 0.  1.
         13    1    1    2    0    0 -0.60589680610E+02 -0.11470608239E+01 -0.49415724268E+02  0.78194309984E+02  0.10566000000E+00 0. -1.
          4    1    1    2  501    0  0.40100491994E+02  0.41575832288E+02 -0.70500244858E+02  0.91142107797E+02  0.00000000000E+00 0.  1.
</event>
<event>
 5    1  0.4866530E-005  0.3921994E+03  0.7818608E-02  0.1009509E+00
          4   -1    0    0  502    0 -0.00000000000E+00  0.00000000000E+00  0.17222231443E+04  0.17222231443E+04  0.00000000000E+00 0.  1.
         21   -1    0    0  501  502  0.00000000000E+00 -0.00000000000E+00 -0.22040613403E+03  0.22040613403E+03  0.00000000000E+00 0.  1.
        -13    1    1    2    0    0 -0.32083178414E+03 -0.22983479115E+02  0.96907884651E+03  0.10210656668E+04  0.10566000000E+00 0.  1.
         13    1    1    2    0    0 -0.68890328667E+02 -0.10437325485E+03  0.49417141766E+03  0.50974999255E+03  0.10566000000E+00 0. -1.
          4    1    1    2  501    0  0.38972211281E+03  0.12735673396E+03  0.38566746146E+02  0.41181361902E+03  0.00000000000E+00 0.  1.
</event>
<event>
 5    1  0.4866530E-005  0.4900518E+03  0.7818608E-02  0.9674755E-01
         21   -1    0    0  501  502  0.00000000000E+00  0.00000000000E+00  0.39869600555E+03  0.39869600555E+03  0.00000000000E+00 0. -1.
         -4   -1    0    0    0  501 -0.00000000000E+00 -0.00000000000E+00 -0.10931732445E+04  0.10931732445E+04  0.00000000000E+00 0. -1.
        -13    1    1    2    0    0  0.81279419759E+02 -0.24989811557E+03 -0.42119677126E+02  0.26613810439E+03  0.10566000000E+00 0.  1.
         13    1    1    2    0    0 -0.47197744276E+03 -0.96222082923E+02 -0.46955649841E+03  0.67268470481E+03  0.10566000000E+00 0. -1.
         -4    1    1    2    0  502  0.39069802300E+03  0.34612019850E+03 -0.18280106344E+03  0.55304644089E+03  0.00000000000E+00 0. -1.
</event>
<event>
 5    1  0.4866530E-005  0.4619891E+03  0.7818608E-02  0.9838201E-01
          4   -1    0    0  502    0 -0.00000000000E+00  0.00000000000E+00  0.33769408497E+04  0.33769408497E+04  0.00000000000E+00 0.  1.
         21   -1    0    0  501  502  0.00000000000E+00 -0.00000000000E+00 -0.10304646026E+03  0.10304646026E+03  0.00000000000E+00 0.  1.
        -13    1    1    2    0    0  0.35363463842E+03 -0.39246111685E+03  0.17103204685E+04  0.17900500836E+04  0.10566000000E+00 0.  1.
         13    1    1    2    0    0  0.25309540126E+02  0.17683520200E+03  0.70141129837E+03  0.72380182518E+03  0.10566000000E+00 0. -1.
          4    1    1    2  501    0 -0.37894417855E+03  0.21562591485E+03  0.86216262261E+03  0.96613540119E+03  0.00000000000E+00 0.  1.
</event>
<event>
 5    1  0.4866530E-005  0.1922352E+03  0.7818608E-02  0.1065593E+00
         21   -1    0    0  501  502  0.00000000000E+00  0.00000000000E+00  0.33730560123E+03  0.33730560123E+03  0.00000000000E+00 0. -1.
          4   -1    0    0  502    0 -0.00000000000E+00 -0.00000000000E+00 -0.20223594458E+03  0.20223594458E+03  0.00000000000E+00 0.  1.
        -13    1    1    2    0    0 -0.76036506399E+02  0.20251231966E+03 -0.77615992518E+02  0.22981958876E+03  0.10566000000E+00 0.  1.
         13    1    1    2    0    0  0.40702638551E+02 -0.12530157352E+03  0.16883723221E+03  0.21415697807E+03  0.10566000000E+00 0. -1.
          4    1    1    2  501    0  0.35333867848E+02 -0.77210746139E+02  0.43848416963E+02  0.95564978975E+02  0.00000000000E+00 0.  1.
</event>
<event>
 5    1  0.4866530E-005  0.6681856E+02  0.7818608E-02  0.1235331E+00
         21   -1    0    0  501  502  0.00000000000E+00  0.00000000000E+00  0.11167126225E+03  0.11167126225E+03  0.00000000000E+00 0.  1.
          4   -1    0    0  502    0 -0.00000000000E+00 -0.00000000000E+00 -0.28439948050E+03  0.28439948050E+03  0.00000000000E+00 0.  1.
        -13    1    1    2    0    0  0.61329523519E+02  0.25100749372E+02 -0.25655928555E+03  0.26497931286E+03  0.10566000000E+00 0.  1.
         13    1    1    2    0    0 -0.65861625223E+02 -0.37127707900E+02  0.40244842011E+02  0.85649745145E+02  0.10566000000E+00 0. -1.
          4    1    1    2  501    0  0.45321017037E+01  0.12026958528E+02  0.43586225297E+02  0.45441684750E+02  0.00000000000E+00 0.  1.
</event>
<event>
 5    1  0.4866530E-005  0.4993656E+03  0.7818608E-02  0.9730288E-01
         -4   -1    0    0    0  501 -0.00000000000E+00  0.00000000000E+00  0.85297955271E+03  0.85297955271E+03  0.00000000000E+00 0. -1.
         21   -1    0    0  501  502  0.00000000000E+00 -0.00000000000E+00 -0.11707746825E+04  0.11707746825E+04  0.00000000000E+00 0. -1.
        -13    1    1    2    0    0  0.19084289851E+03 -0.74031531777E+02  0.55707598154E+03  0.59349417855E+03  0.10566000000E+00 0.  1.
         13    1    1    2    0    0 -0.51354083389E+03 -0.17315983789E+03 -0.86849621059E+03  0.10237158768E+04  0.10566000000E+00 0. -1.
         -4    1    1    2    0  502  0.32269793538E+03  0.24719136967E+03 -0.63749006845E+01  0.40654417976E+03  0.00000000000E+00 0. -1.
</event>
<event>
 5    1  0.4866530E-005  0.4748683E+03  0.7818608E-02  0.9534825E-01
         -4   -1    0    0    0  501 -0.00000000000E+00  0.00000000000E+00  0.55785370846E+03  0.55785370846E+03  0.00000000000E+00 0. -1.
         21   -1    0    0  501  502  0.00000000000E+00 -0.00000000000E+00 -0.11484393509E+04  0.11484393509E+04  0.00000000000E+00 0.  1.
        -13    1    1    2    0    0  0.23445996977E+03  0.47822154012E+03  0.12517088677E+02  0.53275135620E+03  0.10566000000E+00 0.  1.
         13    1    1    2    0    0 -0.26379399105E+03 -0.35199674629E+03  0.10618848898E+03  0.45250965235E+03  0.10566000000E+00 0. -1.
         -4    1    1    2    0  502  0.29334021277E+02 -0.12622479383E+03 -0.70929122008E+03  0.72103205078E+03  0.00000000000E+00 0. -1.
</event>
<event>
 5    1  0.4866530E-005  0.9242331E+02  0.7818608E-02  0.1188175E+00
         21   -1    0    0  501  502  0.00000000000E+00  0.00000000000E+00  0.19066116568E+03  0.19066116568E+03  0.00000000000E+00 0.  1.
          4   -1    0    0  502    0 -0.00000000000E+00 -0.00000000000E+00 -0.41036532490E+03  0.41036532490E+03  0.00000000000E+00 0.  1.
        -13    1    1    2    0    0  0.94057800039E+02 -0.96172566508E+02 -0.33602945980E+03  0.36195557920E+03  0.10566000000E+00 0.  1.
         13    1    1    2    0    0 -0.71997411849E+02  0.74304514972E+01 -0.19840292948E+02  0.75049898806E+02  0.10566000000E+00 0. -1.
          4    1    1    2  501    0 -0.22060388189E+02  0.88742115011E+02  0.13616559353E+03  0.16402101257E+03  0.00000000000E+00 0.  1.
</event>
<event>
 5    1  0.4866530E-005  0.3244645E+03  0.7818608E-02  0.1024371E+00
         21   -1    0    0  501  502  0.00000000000E+00  0.00000000000E+00  0.86431736670E+02  0.86431736670E+02  0.00000000000E+00 0.  1.
          4   -1    0    0  502    0 -0.00000000000E+00 -0.00000000000E+00 -0.25723013338E+04  0.25723013338E+04  0.00000000000E+00 0.  1.
        -13    1    1    2    0    0  0.40223914379E+03 -0.82315285772E+02 -0.12529895287E+04  0.13185427203E+04  0.10566000000E+00 0.  1.
         13    1    1    2    0    0 -0.10609233728E+03  0.88055692655E+02 -0.82309335949E+03  0.83456100954E+03  0.10566000000E+00 0. -1.
          4    1    1    2  501    0 -0.29614680652E+03 -0.57404068830E+01 -0.40978670895E+03  0.50562934063E+03  0.00000000000E+00 0.  1.
</event>
<event>
 5    1  0.4866530E-005  0.8037875E+03  0.7818608E-02  0.8984672E-01
          4   -1    0    0  502    0 -0.00000000000E+00  0.00000000000E+00  0.85946699001E+03  0.85946699001E+03  0.00000000000E+00 0.  1.
         21   -1    0    0  501  502  0.00000000000E+00 -0.00000000000E+00 -0.16356344147E+04  0.16356344147E+04  0.00000000000E+00 0.  1.
        -13    1    1    2    0    0 -0.86894564310E+03  0.43506887489E+00  0.40993178926E+03  0.96078655432E+03  0.10566000000E+00 0.  1.
         13    1    1    2    0    0  0.61781163784E+03  0.17484911620E+03 -0.63042155520E+03  0.89983041831E+03  0.10566000000E+00 0. -1.
          4    1    1    2  501    0  0.25113400526E+03 -0.17528418508E+03 -0.55567765873E+03  0.63448443207E+03  0.00000000000E+00 0.  1.
</event>
<event>
 5    1  0.4866530E-005  0.4813483E+03  0.7818608E-02  0.9706260E-01
         21   -1    0    0  501  502  0.00000000000E+00  0.00000000000E+00  0.13850189589E+03  0.13850189589E+03  0.00000000000E+00 0. -1.
         -4   -1    0    0    0  501 -0.00000000000E+00 -0.00000000000E+00 -0.29530283142E+04  0.29530283142E+04  0.00000000000E+00 0. -1.
        -13    1    1    2    0    0  0.83502130121E+02 -0.23397634789E+03 -0.48979302882E+03  0.54919464614E+03  0.10566000000E+00 0.  1.
         13    1    1    2    0    0 -0.13196714505E+03  0.55642931361E+03 -0.80152972042E+03  0.98462115167E+03  0.10566000000E+00 0. -1.
         -4    1    1    2    0  502  0.48465014933E+02 -0.32245296572E+03 -0.15232036691E+04  0.15577144123E+04  0.00000000000E+00 0. -1.
</event>
<event>
 5    1  0.4866530E-005  0.1758573E+03  0.7818608E-02  0.1078078E+00
         21   -1    0    0  501  502  0.00000000000E+00  0.00000000000E+00  0.12398893608E+04  0.12398893608E+04  0.00000000000E+00 0.  1.
         -4   -1    0    0    0  501 -0.00000000000E+00 -0.00000000000E+00 -0.74801010201E+02  0.74801010201E+02  0.00000000000E+00 0. -1.
        -13    1    1    2    0    0  0.16889861055E+03  0.33650442767E+02  0.79148139023E+03  0.81000116987E+03  0.10566000000E+00 0.  1.
         13    1    1    2    0    0 -0.17549606464E+03 -0.18708251380E+02  0.53860714420E+02  0.18452602823E+03  0.10566000000E+00 0. -1.
         -4    1    1    2    0  502  0.65974540902E+01 -0.14942191387E+02  0.31974624596E+03  0.32016317291E+03  0.00000000000E+00 0. -1.
</event>
<event>
 5    1  0.4866530E-005  0.4853262E+03  0.7818608E-02  0.9510727E-01
         21   -1    0    0  501  502  0.00000000000E+00  0.00000000000E+00  0.51091721672E+03  0.51091721672E+03  0.00000000000E+00 0. -1.
          4   -1    0    0  502    0 -0.00000000000E+00 -0.00000000000E+00 -0.14794082757E+04  0.14794082757E+04  0.00000000000E+00 0.  1.
        -13    1    1    2    0    0  0.17030489225E+03  0.47746234405E+03 -0.70871249957E+03  0.87134807311E+03  0.10566000000E+00 0.  1.
         13    1    1    2    0    0  0.28575516579E+03 -0.50011648947E+03 -0.31915991490E+03  0.65851012161E+03  0.10566000000E+00 0. -1.
          4    1    1    2  501    0 -0.45606005804E+03  0.22654145424E+02  0.59381355510E+02  0.46046729767E+03  0.00000000000E+00 0.  1.
</event>
<event>
 5    1  0.4866530E-005  0.4597568E+03  0.7818608E-02  0.9644394E-01
          4   -1    0    0  502    0 -0.00000000000E+00  0.00000000000E+00  0.25210274253E+04  0.25210274253E+04  0.00000000000E+00 0.  1.
         21   -1    0    0  501  502  0.00000000000E+00 -0.00000000000E+00 -0.20912309297E+03  0.20912309297E+03  0.00000000000E+00 0. -1.
        -13    1    1    2    0    0 -0.27596020252E+03  0.22952488293E+03  0.42121472469E+03  0.55340542166E+03  0.10566000000E+00 0.  1.
         13    1    1    2    0    0 -0.17535894461E+03  0.30756323043E+03  0.85933677131E+03  0.92941142550E+03  0.10566000000E+00 0. -1.
          4    1    1    2  501    0  0.45131914713E+03 -0.53708811337E+03  0.10313528364E+04  0.12473336711E+04  0.00000000000E+00 0.  1.
</event>
<event>
 5    1  0.4866530E-005  0.4960481E+03  0.7818608E-02  0.9691511E-01
         -4   -1    0    0    0  501 -0.00000000000E+00  0.00000000000E+00  0.86613262651E+03  0.86613262651E+03  0.00000000000E+00 0. -1.
         21   -1    0    0  501  502  0.00000000000E+00 -0.00000000000E+00 -0.53179575781E+03  0.53179575781E+03  0.00000000000E+00 0. -1.
        -13    1    1    2    0    0 -0.23398006496E+03 -0.48525391299E+02  0.26957353892E+03  0.36023782207E+03  0.10566000000E+00 0.  1.
         13    1    1    2    0    0  0.39337968368E+03 -0.39644685168E+03  0.83258339913E+02  0.56466772890E+03  0.10566000000E+00 0. -1.
         -4    1    1    2    0  502 -0.15939961871E+03  0.44497224298E+03 -0.18495010134E+02  0.47302283335E+03  0.00000000000E+00 0. -1.
</event>
<event>
 5    1  0.4866530E-005  0.2089212E+03  0.7818608E-02  0.1079992E+00
         21   -1    0    0  501  502  0.00000000000E+00  0.00000000000E+00  0.89200278580E+02  0.89200278580E+02  0.00000000000E+00 0.  1.
          4   -1    0    0  502    0 -0.00000000000E+00 -0.00000000000E+00 -0.12521239906E+04  0.12521239906E+04  0.00000000000E+00 0.  1.
        -13    1    1    2    0    0 -0.23072602411E+03 -0.17702388914E+02 -0.79804552993E+03  0.83091789714E+03  0.10566000000E+00 0.  1.
         13    1    1    2    0    0  0.36550721589E+02  0.92413749923E+02 -0.25806079082E+03  0.27653505988E+03  0.10566000000E+00 0. -1.
          4    1    1    2  501    0  0.19417530252E+03 -0.74711361009E+02 -0.10681739126E+03  0.23387131215E+03  0.00000000000E+00 0.  1.
</event>
<event>
 5    1  0.4866530E-005  0.5874603E+02  0.7818608E-02  0.1259777E+00
         21   -1    0    0  501  502  0.00000000000E+00  0.00000000000E+00  0.26051492161E+03  0.26051492161E+03  0.00000000000E+00 0.  1.
         -4   -1    0    0    0  501 -0.00000000000E+00 -0.00000000000E+00 -0.24550074706E+02  0.24550074706E+02  0.00000000000E+00 0. -1.
        -13    1    1    2    0    0 -0.61959391547E+02  0.25038878531E+02  0.58411581612E+02  0.88757172496E+02  0.10566000000E+00 0.  1.
         13    1    1    2    0    0  0.48947003705E+02 -0.13590119408E+02  0.65338701890E+02  0.82762658524E+02  0.10566000000E+00 0. -1.
         -4    1    1    2    0  502  0.13012387842E+02 -0.11448759124E+02  0.11221456340E+03  0.11354516530E+03  0.00000000000E+00 0. -1.
</event>
<event>
 5    1  0.4866530E-005  0.2258866E+03  0.7818608E-02  0.1043706E+00
          4   -1    0    0  502    0 -0.00000000000E+00  0.00000000000E+00  0.35023289266E+03  0.35023289266E+03  0.00000000000E+00 0.  1.
         21   -1    0    0  501  502  0.00000000000E+00 -0.00000000000E+00 -0.34291542915E+03  0.34291542915E+03  0.00000000000E+00 0. -1.
        -13    1    1    2    0    0  0.23162170249E+03  0.44611734963E+02  0.23510134558E+03  0.33303374277E+03  0.10566000000E+00 0.  1.
         13    1    1    2    0    0 -0.18747969258E+03 -0.55176329040E+02 -0.90209007659E+02  0.21524576335E+03  0.10566000000E+00 0. -1.
          4    1    1    2  501    0 -0.44142009918E+02  0.10564594078E+02 -0.13757487442E+03  0.14486881569E+03  0.00000000000E+00 0.  1.
</event>
<event>
 5    1  0.4866530E-005  0.4727032E+03  0.7818608E-02  0.1012915E+00
          4   -1    0    0  502    0 -0.00000000000E+00  0.00000000000E+00  0.23581683182E+04  0.23581683182E+04  0.00000000000E+00 0.  1.
         21   -1    0    0  501  502  0.00000000000E+00 -0.00000000000E+00 -0.12028044173E+03  0.12028044173E+03  0.00000000000E+00 0. -1.
        -13    1    1    2    0    0 -0.22172236281E+03  0.39647073642E+03  0.14454958352E+04  0.15151924207E+04  0.10566000000E+00 0.  1.
         13    1    1    2    0    0 -0.63728199371E+02 -0.63169200666E+01  0.10200757865E+03  0.12044394605E+03  0.10566000000E+00 0. -1.
          4    1    1    2  501    0  0.28545056218E+03 -0.39015381635E+03  0.69038446259E+03  0.84281239315E+03  0.00000000000E+00 0.  1.
</event>
<event>
 5    1  0.4866530E-005  0.1303713E+03  0.7818608E-02  0.1122262E+00
          4   -1    0    0  502    0 -0.00000000000E+00  0.00000000000E+00  0.21384190183E+03  0.21384190183E+03  0.00000000000E+00 0.  1.
         21   -1    0    0  501  502  0.00000000000E+00 -0.00000000000E+00 -0.16876884646E+03  0.16876884646E+03  0.00000000000E+00 0. -1.
        -13    1    1    2    0    0 -0.72109293215E+02 -0.10916475007E+03  0.12386579203E+03  0.18016503108E+03  0.10566000000E+00 0.  1.
         13    1    1    2    0    0  0.80033925769E+02  0.10189113986E+03 -0.68962305474E+01  0.12974899929E+03  0.10566000000E+00 0. -1.
          4    1    1    2  501    0 -0.79246325548E+01  0.72736102059E+01 -0.71896506108E+02  0.72696717925E+02  0.00000000000E+00 0.  1.
</event>
<event>
 5    1  0.4866530E-005  0.4836507E+03  0.7818608E-02  0.9936575E-01
         21   -1    0    0  501  502  0.00000000000E+00  0.00000000000E+00  0.26657005557E+03  0.26657005557E+03  0.00000000000E+00 0. -1.
         -4   -1    0    0    0  501 -0.00000000000E+00 -0.00000000000E+00 -0.12331534431E+04  0.12331534431E+04  0.00000000000E+00 0. -1.
        -13    1    1    2    0    0  0.62952338830E+02 -0.92558059451E+02 -0.22947595366E+03  0.25532178874E+03  0.10566000000E+00 0.  1.
         13    1    1    2    0    0  0.41447033872E+02 -0.44402230655E+03 -0.24466820802E+03  0.50866119226E+03  0.10566000000E+00 0. -1.
         -4    1    1    2    0  502 -0.10439937270E+03  0.53658036600E+03 -0.49243922588E+03  0.73574051770E+03  0.00000000000E+00 0. -1.
</event>
<event>
 5    1  0.4866530E-005  0.4766691E+03  0.7818608E-02  0.9737855E-01
         -4   -1    0    0    0  501 -0.00000000000E+00  0.00000000000E+00  0.21613354029E+04  0.21613354029E+04  0.00000000000E+00 0. -1.
         21   -1    0    0  501  502  0.00000000000E+00 -0.00000000000E+00 -0.21147420268E+03  0.21147420268E+03  0.00000000000E+00 0. -1.
        -13    1    1    2    0    0  0.13166465193E+03 -0.18769774500E+03  0.82215073849E+03  0.85352086794E+03  0.10566000000E+00 0.  1.
         13    1    1    2    0    0 -0.52361989815E+03 -0.64518708630E+02  0.76216442353E+03  0.92694934121E+03  0.10566000000E+00 0. -1.
         -4    1    1    2    0  502  0.39195524622E+03  0.25221645363E+03  0.36554603818E+03  0.59233939642E+03  0.00000000000E+00 0. -1.
</event>
<event>
 5    1  0.4866530E-005  0.4800180E+03  0.7818608E-02  0.1008822E+00
         21   -1    0    0  501  502  0.00000000000E+00  0.00000000000E+00  0.38032001269E+03  0.38032001269E+03  0.00000000000E+00 0.  1.
          4   -1    0    0  502    0 -0.00000000000E+00 -0.00000000000E+00 -0.79093044638E+03  0.79093044638E+03  0.00000000000E+00 0.  1.
        -13    1    1    2    0    0  0.52089155328E+03  0.47080877334E+02 -0.26822802008E+03  0.58778474054E+03  0.10566000000E+00 0.  1.
         13    1    1    2    0    0 -0.66256977540E+02 -0.21759646208E+02 -0.10572404924E+03  0.12665328669E+03  0.10566000000E+00 0. -1.
          4    1    1    2  501    0 -0.45463457574E+03 -0.25321231126E+02 -0.36658364368E+02  0.45681243184E+03  0.00000000000E+00 0.  1.
</event>
<event>
 5    1  0.4866530E-005  0.5001515E+03  0.7818608E-02  0.9844546E-01
         21   -1    0    0  501  502  0.00000000000E+00  0.00000000000E+00  0.35293778013E+03  0.35293778013E+03  0.00000000000E+00 0.  1.
          4   -1    0    0  502    0 -0.00000000000E+00 -0.00000000000E+00 -0.11480035439E+04  0.11480035439E+04  0.00000000000E+00 0.  1.
        -13    1    1    2    0    0  0.13342721749E+03  0.54593972838E+03 -0.16444948151E+03  0.58557378060E+03  0.10566000000E+00 0.  1.
         13    1    1    2    0    0 -0.86081271732E+02 -0.10759905211E+03 -0.38884401023E+03  0.41253753382E+03  0.10566000000E+00 0. -1.
          4    1    1    2  501    0 -0.47345945762E+02 -0.43834067627E+03 -0.24177227204E+03  0.50283000962E+03  0.00000000000E+00 0.  1.
</event>
<event>
 5    1  0.4866530E-005  0.6075760E+02  0.7818608E-02  0.1253292E+00
         21   -1    0    0  501  502  0.00000000000E+00  0.00000000000E+00  0.39901933354E+03  0.39901933354E+03  0.00000000000E+00 0. -1.
          4   -1    0    0  502    0 -0.00000000000E+00 -0.00000000000E+00 -0.49833243620E+02  0.49833243620E+02  0.00000000000E+00 0.  1.
        -13    1    1    2    0    0 -0.58063200741E+02 -0.57259250009E+01 -0.87711678712E+01  0.59000559720E+02  0.10566000000E+00 0.  1.
         13    1    1    2    0    0  0.81779442419E+02  0.52709447700E+02  0.27401187446E+03  0.29077255989E+03  0.10566000000E+00 0. -1.
          4    1    1    2  501    0 -0.23716241678E+02 -0.46983522699E+02  0.83945383329E+02  0.99079457542E+02  0.00000000000E+00 0.  1.
</event>
<event>
 5    1  0.4866530E-005  0.5657936E+02  0.7818608E-02  0.1267097E+00
         21   -1    0    0  501  502  0.00000000000E+00  0.00000000000E+00  0.70222003677E+02  0.70222003677E+02  0.00000000000E+00 0. -1.
          4   -1    0    0  502    0 -0.00000000000E+00 -0.00000000000E+00 -0.17315900281E+03  0.17315900281E+03  0.00000000000E+00 0.  1.
        -13    1    1    2    0    0  0.47105684921E+02 -0.35562802015E+02 -0.15314327585E+03  0.16412352830E+03  0.10566000000E+00 0.  1.
         13    1    1    2    0    0 -0.26292027517E+02  0.29531357072E+02  0.30052723597E+02  0.49664364700E+02  0.10566000000E+00 0. -1.
          4    1    1    2  501    0 -0.20813657405E+02  0.60314449429E+01  0.20153553119E+02  0.29593113489E+02  0.00000000000E+00 0.  1.
</event>
<event>
 5    1  0.4866530E-005  0.3716027E+03  0.7818608E-02  0.1007281E+00
          4   -1    0    0  502    0 -0.00000000000E+00  0.00000000000E+00  0.27322213090E+04  0.27322213090E+04  0.00000000000E+00 0.  1.
         21   -1    0    0  501  502  0.00000000000E+00 -0.00000000000E+00 -0.13060138496E+03  0.13060138496E+03  0.00000000000E+00 0.  1.
        -13    1    1    2    0    0  0.83344034072E+02  0.39480721662E+03  0.20808785385E+04  0.21196401745E+04  0.10566000000E+00 0.  1.
         13    1    1    2    0    0 -0.15486132405E+03 -0.31226545022E+02  0.18363129517E+03  0.24223457749E+03  0.10566000000E+00 0. -1.
          4    1    1    2  501    0  0.71517289974E+02 -0.36358067159E+03  0.33711009036E+03  0.50094794195E+03  0.00000000000E+00 0.  1.
</event>
<event>
 5    1  0.4866530E-005  0.4029823E+03  0.7818608E-02  0.9763901E-01
         21   -1    0    0  501  502  0.00000000000E+00  0.00000000000E+00  0.10230565024E+04  0.10230565024E+04  0.00000000000E+00 0. -1.
         -4   -1    0    0    0  501 -0.00000000000E+00 -0.00000000000E+00 -0.57073543422E+03  0.57073543422E+03  0.00000000000E+00 0. -1.
        -13    1    1    2    0    0 -0.26791460109E+03  0.22029602019E+03 -0.19565744419E+03  0.39823412287E+03  0.10566000000E+00 0.  1.
         13    1    1    2    0    0  0.19595952150E+03 -0.57023695260E+03  0.22911997558E+03  0.64503200738E+03  0.10566000000E+00 0. -1.
         -4    1    1    2    0  502  0.71955079590E+02  0.34994093240E+03  0.41885853680E+03  0.55052580639E+03  0.00000000000E+00 0. -1.
</event>
<event>
 5    1  0.4866530E-005  0.4270209E+03  0.7818608E-02  0.9654103E-01
         21   -1    0    0  501  502  0.00000000000E+00  0.00000000000E+00  0.95534282732E+03  0.95534282732E+03  0.00000000000E+00 0.  1.
          4   -1    0    0  502    0 -0.00000000000E+00 -0.00000000000E+00 -0.93992132821E+03  0.93992132821E+03  0.00000000000E+00 0.  1.
        -13    1    1    2    0    0 -0.12545266603E+03  0.41337799762E+03 -0.57697495160E+03  0.72077725149E+03  0.10566000000E+00 0.  1.
         13    1    1    2    0    0  0.12635992095E+03 -0.39710399606E+03 -0.14174048973E+03  0.44016904810E+03  0.10566000000E+00 0. -1.
          4    1    1    2  501    0 -0.90725492281E+00 -0.16274001561E+02  0.73413694044E+03  0.73431785594E+03  0.00000000000E+00 0.  1.
</event>
<event>
 5    1  0.4866530E-005  0.1782996E+03  0.7818608E-02  0.1076125E+00
         -4   -1    0    0    0  501 -0.00000000000E+00  0.00000000000E+00  0.98747941924E+02  0.98747941924E+02  0.00000000000E+00 0. -1.
         21   -1    0    0  501  502  0.00000000000E+00 -0.00000000000E+00 -0.60609149294E+03  0.60609149294E+03  0.00000000000E+00 0.  1.
        -13    1    1    2    0    0 -0.94261757602E+02  0.18880411323E+03 -0.12946849620E+03  0.24757700780E+03  0.10566000000E+00 0.  1.
         13    1    1    2    0    0  0.46441261370E+02 -0.14396125579E+03 -0.12561575983E+03  0.19662391566E+03  0.10566000000E+00 0. -1.
         -4    1    1    2    0  502  0.47820496231E+02 -0.44842857445E+02 -0.25225929498E+03  0.26063851141E+03  0.00000000000E+00 0. -1.
</event>
<event>
 5    1  0.4866530E-005  0.6277727E+02  0.7818608E-02  0.1247057E+00
         21   -1    0    0  501  502  0.00000000000E+00  0.00000000000E+00  0.18462710582E+02  0.18462710582E+02  0.00000000000E+00 0. -1.
          4   -1    0    0  502    0 -0.00000000000E+00 -0.00000000000E+00 -0.38747252725E+03  0.38747252725E+03  0.00000000000E+00 0.  1.
        -13    1    1    2    0    0  0.20902351342E+00 -0.70612973824E+02 -0.26077791473E+03  0.27016914653E+03  0.10566000000E+00 0.  1.
         13    1    1    2    0    0  0.19015631593E+02  0.46089373503E+02 -0.56304291880E+02  0.75206442829E+02  0.10566000000E+00 0. -1.
          4    1    1    2  501    0 -0.19224655107E+02  0.24523600321E+02 -0.51927610061E+02  0.60559648474E+02  0.00000000000E+00 0.  1.
</event>
<event>
 5    1  0.4866530E-005  0.2444217E+03  0.7818608E-02  0.1033325E+00
         21   -1    0    0  501  502  0.00000000000E+00  0.00000000000E+00  0.40778012053E+02  0.40778012053E+02  0.00000000000E+00 0. -1.
          4   -1    0    0  502    0 -0.00000000000E+00 -0.00000000000E+00 -0.24930983670E+04  0.24930983670E+04  0.00000000000E+00 0.  1.
        -13    1    1    2    0    0  0.27724161618E+03  0.10003766197E+03 -0.10522645946E+04  0.10927631197E+04  0.10566000000E+00 0.  1.
         13    1    1    2    0    0 -0.20411061739E+03 -0.84924500037E+02 -0.12854724415E+04  0.13043437906E+04  0.10566000000E+00 0. -1.
          4    1    1    2  501    0 -0.73130998789E+02 -0.15113161933E+02 -0.11458331879E+03  0.13676946879E+03  0.00000000000E+00 0.  1.
</event>
<event>
 5    1  0.4866530E-005  0.5347371E+02  0.7818608E-02  0.1328049E+00
         21   -1    0    0  501  502  0.00000000000E+00  0.00000000000E+00  0.14035308674E+02  0.14035308674E+02  0.00000000000E+00 0. -1.
         -4   -1    0    0    0  501 -0.00000000000E+00 -0.00000000000E+00 -0.38509514733E+03  0.38509514733E+03  0.00000000000E+00 0. -1.
        -13    1    1    2    0    0  0.20425005059E+02  0.86122952068E+00 -0.13292776280E+02  0.24385069474E+02  0.10566000000E+00 0.  1.
         13    1    1    2    0    0 -0.24735116820E+02 -0.52570523325E+02 -0.21962060119E+03  0.22717549506E+03  0.10566000000E+00 0. -1.
         -4    1    1    2    0  502  0.43101117607E+01  0.51709293805E+02 -0.13814646118E+03  0.14756989146E+03  0.00000000000E+00 0. -1.
</event>
<event>
 5    1  0.4866530E-005  0.3014132E+03  0.7818608E-02  0.1015690E+00
         -4   -1    0    0    0  501 -0.00000000000E+00  0.00000000000E+00  0.24537949868E+04  0.24537949868E+04  0.00000000000E+00 0. -1.
         21   -1    0    0  501  502  0.00000000000E+00 -0.00000000000E+00 -0.17461786939E+03  0.17461786939E+03  0.00000000000E+00 0.  1.
        -13    1    1    2    0    0  0.13210109048E+03 -0.18351179790E+03  0.14799609771E+03  0.27024088176E+03  0.10566000000E+00 0.  1.
         13    1    1    2    0    0 -0.40304298980E+03  0.65565035377E+02  0.19885618378E+04  0.20300543391E+04  0.10566000000E+00 0. -1.
         -4    1    1    2    0  502  0.27094189932E+03  0.11794676252E+03  0.14261918186E+03  0.32811763535E+03  0.00000000000E+00 0. -1.
</event>
<event>
 5    1  0.4866530E-005  0.4580226E+03  0.7818608E-02  0.9578199E-01
          4   -1    0    0  502    0 -0.00000000000E+00  0.00000000000E+00  0.28249451755E+04  0.28249451755E+04  0.00000000000E+00 0.  1.
         21   -1    0    0  501  502  0.00000000000E+00 -0.00000000000E+00 -0.23520079198E+03  0.23520079198E+03  0.00000000000E+00 0.  1.
        -13    1    1    2    0    0  0.41075731197E+03 -0.29900580305E+03  0.10283448880E+04  0.11470044722E+04  0.10566000000E+00 0.  1.
         13    1    1    2    0    0 -0.40568377785E+03 -0.20133699111E+03  0.12357678379E+04  0.13161451561E+04  0.10566000000E+00 0. -1.
          4    1    1    2  501    0 -0.50735341176E+01  0.50034279416E+03  0.32563165759E+03  0.59699633905E+03  0.00000000000E+00 0.  1.
</event>
<event>
 5    1  0.4866530E-005  0.6728362E+02  0.7818608E-02  0.1234040E+00
         -4   -1    0    0    0  501 -0.00000000000E+00  0.00000000000E+00  0.32127230476E+03  0.32127230476E+03  0.00000000000E+00 0. -1.
         21   -1    0    0  501  502  0.00000000000E+00 -0.00000000000E+00 -0.12768782082E+03  0.12768782082E+03  0.00000000000E+00 0.  1.
        -13    1    1    2    0    0  0.32714686639E+02 -0.20639431240E+02 -0.82060655969E+02  0.90720445688E+02  0.10566000000E+00 0.  1.
         13    1    1    2    0    0 -0.57471933782E+02  0.37334231060E+02  0.30722598394E+03  0.31477719795E+03  0.10566000000E+00 0. -1.
         -4    1    1    2    0  502  0.24757247143E+02 -0.16694799820E+02 -0.31580844026E+02  0.43462481942E+02  0.00000000000E+00 0. -1.
</event>
<event>
 5    1  0.4866530E-005  0.5216503E+03  0.7818608E-02  0.9652508E-01
         -4   -1    0    0    0  501 -0.00000000000E+00  0.00000000000E+00  0.99475870111E+03  0.99475870111E+03  0.00000000000E+00 0. -1.
         21   -1    0    0  501  502  0.00000000000E+00 -0.00000000000E+00 -0.54648518384E+03  0.54648518384E+03  0.00000000000E+00 0. -1.
        -13    1    1    2    0    0 -0.81899540737E+02 -0.22085963581E+03  0.34770335333E+03  0.41998112646E+03  0.10566000000E+00 0.  1.
         13    1    1    2    0    0 -0.28914022903E+03 -0.25085682355E+03  0.30266594438E+03  0.48799375305E+03  0.10566000000E+00 0. -1.
         -4    1    1    2    0  502  0.37103976976E+03  0.47171645936E+03 -0.20209578044E+03  0.63326900544E+03  0.00000000000E+00 0. -1.
</event>
<event>
 5    1  0.4866530E-005  0.6021193E+03  0.7818608E-02  0.9278521E-01
          4   -1    0    0  502    0 -0.00000000000E+00  0.00000000000E+00  0.86706310688E+03  0.86706310688E+03  0.00000000000E+00 0.  1.
         21   -1    0    0  501  502  0.00000000000E+00 -0.00000000000E+00 -0.90715306888E+03  0.90715306888E+03  0.00000000000E+00 0. -1.
        -13    1    1    2    0    0 -0.40954048261E+03 -0.56220169536E+03  0.69444099764E+02  0.69901119256E+03  0.10566000000E+00 0.  1.
         13    1    1    2    0    0  0.51776616824E+03  0.24656644733E+03  0.21239806151E+03  0.61154702650E+03  0.10566000000E+00 0. -1.
          4    1    1    2  501    0 -0.10822568563E+03  0.31563524803E+03 -0.32193212327E+03  0.46365795671E+03  0.00000000000E+00 0.  1.
</event>
<event>
 5    1  0.4866530E-005  0.4623721E+03  0.7818608E-02  0.9905761E-01
         21   -1    0    0  501  502  0.00000000000E+00  0.00000000000E+00  0.13459402235E+03  0.13459402235E+03  0.00000000000E+00 0. -1.
         -4   -1    0    0    0  501 -0.00000000000E+00 -0.00000000000E+00 -0.28107240662E+04  0.28107240662E+04  0.00000000000E+00 0. -1.
        -13    1    1    2    0    0  0.13751337709E+03 -0.35260704385E+02 -0.80158301762E+03  0.81405687237E+03  0.10566000000E+00 0.  1.
         13    1    1    2    0    0  0.36558552087E+03  0.58358371734E+02 -0.13670093700E+04  0.14162531912E+04  0.10566000000E+00 0. -1.
         -4    1    1    2    0  502 -0.50309889795E+03 -0.23097667350E+02 -0.50753765622E+03  0.71500802502E+03  0.00000000000E+00 0. -1.
</event>
<event>
 5    1  0.4866530E-005  0.4858647E+03  0.7818608E-02  0.9870784E-01
         21   -1    0    0  501  502  0.00000000000E+00  0.00000000000E+00  0.28337126865E+03  0.28337126865E+03  0.00000000000E+00 0.  1.
         -4   -1    0    0    0  501 -0.00000000000E+00 -0.00000000000E+00 -0.12774108493E+04  0.12774108493E+04  0.00000000000E+00 0. -1.
        -13    1    1    2    0    0  0.12806375268E+03 -0.50266104871E+02 -0.38762721485E+01  0.13763009372E+03  0.10566000000E+00 0.  1.
         13    1    1    2    0    0 -0.53043818000E+03 -0.18598120424E+02 -0.27037922930E+03  0.59566390833E+03  0.10566000000E+00 0. -1.
         -4    1    1    2    0  502  0.40237442732E+03  0.68864225295E+02 -0.71978407920E+03  0.82748811591E+03  0.00000000000E+00 0. -1.
</event>
<event>
 5    1  0.4866530E-005  0.5052913E+03  0.7818608E-02  0.9849835E-01
         21   -1    0    0  501  502  0.00000000000E+00  0.00000000000E+00  0.13299183837E+04  0.13299183837E+04  0.00000000000E+00 0. -1.
         -4   -1    0    0    0  501 -0.00000000000E+00 -0.00000000000E+00 -0.33514743959E+03  0.33514743959E+03  0.00000000000E+00 0. -1.
        -13    1    1    2    0    0 -0.10959216105E+03 -0.72247737444E+02 -0.76121890067E+02  0.15173902148E+03  0.10566000000E+00 0.  1.
         13    1    1    2    0    0  0.53544472126E+03  0.11423126545E+03  0.89813293107E+03  0.10518519880E+04  0.10566000000E+00 0. -1.
         -4    1    1    2    0  502 -0.42585256022E+03 -0.41983528010E+02  0.17275990307E+03  0.46147481380E+03  0.00000000000E+00 0. -1.
</event>
<event>
 5    1  0.4866530E-005  0.8134851E+03  0.7818608E-02  0.9443979E-01
         21   -1    0    0  501  502  0.00000000000E+00  0.00000000000E+00  0.15317757259E+04  0.15317757259E+04  0.00000000000E+00 0. -1.
         -4   -1    0    0    0  501 -0.00000000000E+00 -0.00000000000E+00 -0.11297851940E+04  0.11297851940E+04  0.00000000000E+00 0. -1.
        -13    1    1    2    0    0 -0.75601429972E+03 -0.35392131723E+03 -0.59556820877E+03  0.10254362109E+04  0.10566000000E+00 0.  1.
         13    1    1    2    0    0  0.71521535881E+02 -0.85655306149E+02 -0.17587729787E+03  0.20829065422E+03  0.10566000000E+00 0. -1.
         -4    1    1    2    0  502  0.68449276384E+03  0.43957662338E+03  0.11734360385E+04  0.14278340548E+04  0.00000000000E+00 0. -1.
</event>
<event>
 5    1  0.4866530E-005  0.4042246E+03  0.7818608E-02  0.1037520E+00
         21   -1    0    0  501  502  0.00000000000E+00  0.00000000000E+00  0.14502712808E+03  0.14502712808E+03  0.00000000000E+00 0. -1.
         -4   -1    0    0    0  501 -0.00000000000E+00 -0.00000000000E+00 -0.21395040791E+04  0.21395040791E+04  0.00000000000E+00 0. -1.
        -13    1    1    2    0    0  0.15615662354E+02  0.44893893155E+02 -0.22331555891E+03  0.22831811266E+03  0.10566000000E+00 0.  1.
         13    1    1    2    0    0 -0.30178320605E+03  0.24594622885E+03 -0.15375028188E+04  0.15860257185E+04  0.10566000000E+00 0. -1.
         -4    1    1    2    0  502  0.28616754369E+03 -0.29084012201E+03 -0.23365857332E+03  0.47018737597E+03  0.00000000000E+00 0. -1.
</event>
<event>
 5    1  0.4866530E-005  0.2114245E+03  0.7818608E-02  0.1052574E+00
         21   -1    0    0  501  502  0.00000000000E+00  0.00000000000E+00  0.12001119704E+03  0.12001119704E+03  0.00000000000E+00 0. -1.
          4   -1    0    0  502    0 -0.00000000000E+00 -0.00000000000E+00 -0.77230076804E+03  0.77230076804E+03  0.00000000000E+00 0.  1.
        -13    1    1    2    0    0  0.20809970264E+03 -0.11436282644E+02 -0.49658827052E+03  0.53855008717E+03  0.10566000000E+00 0.  1.
         13    1    1    2    0    0 -0.21844451919E+03 -0.11350081811E+01 -0.20638779539E+03  0.30052492319E+03  0.10566000000E+00 0. -1.
          4    1    1    2  501    0  0.10344816546E+02  0.12571290825E+02  0.50686494907E+02  0.53236954724E+02  0.00000000000E+00 0.  1.
</event>
<event>
 5    1  0.4866530E-005  0.1249327E+03  0.7818608E-02  0.1128848E+00
         21   -1    0    0  501  502  0.00000000000E+00  0.00000000000E+00  0.45124476605E+03  0.45124476605E+03  0.00000000000E+00 0. -1.
          4   -1    0    0  502    0 -0.00000000000E+00 -0.00000000000E+00 -0.63791915509E+02  0.63791915509E+02  0.00000000000E+00 0.  1.
        -13    1    1    2    0    0 -0.99003807959E+02  0.59805417613E+02  0.53831033732E+02  0.12757834190E+03  0.10566000000E+00 0.  1.
         13    1    1    2    0    0  0.11878862792E+03 -0.88153213483E+02  0.19596964688E+03  0.24553175117E+03  0.10566000000E+00 0. -1.
          4    1    1    2  501    0 -0.19784819965E+02  0.28347795870E+02  0.13765216993E+03  0.14192658848E+03  0.00000000000E+00 0.  1.
</event>
<event>
 5    1  0.4866530E-005  0.2781610E+03  0.7818608E-02  0.1016750E+00
          4   -1    0    0  502    0 -0.00000000000E+00  0.00000000000E+00  0.33148956922E+03  0.33148956922E+03  0.00000000000E+00 0.  1.
         21   -1    0    0  501  502  0.00000000000E+00 -0.00000000000E+00 -0.10574041702E+04  0.10574041702E+04  0.00000000000E+00 0.  1.
        -13    1    1    2    0    0 -0.16399714020E+03  0.26701024524E+03  0.11405647228E+03  0.33346427558E+03  0.10566000000E+00 0.  1.
         13    1    1    2    0    0  0.76315901508E+02 -0.22586687375E+03 -0.30696129343E+02  0.24037933564E+03  0.10566000000E+00 0. -1.
          4    1    1    2  501    0  0.87681238690E+02 -0.41143371489E+02 -0.80927494391E+03  0.81505012819E+03  0.00000000000E+00 0.  1.
</event>
<event>
 5    1  0.4866530E-005  0.2394227E+03  0.7818608E-02  0.1036025E+00
          4   -1    0    0  502    0 -0.00000000000E+00  0.00000000000E+00  0.22712446507E+03  0.22712446507E+03  0.00000000000E+00 0.  1.
         21   -1    0    0  501  502  0.00000000000E+00 -0.00000000000E+00 -0.31182845515E+03  0.31182845515E+03  0.00000000000E+00 0. -1.
        -13    1    1    2    0    0  0.22241186102E+03 -0.94286833104E+02  0.47888239255E+02  0.24627289222E+03  0.10566000000E+00 0.  1.
         13    1    1    2    0    0 -0.22542068774E+03  0.70218917529E+02 -0.11439455064E+03  0.26235721302E+03  0.10566000000E+00 0. -1.
          4    1    1    2  501    0  0.30088267180E+01  0.24067915575E+02 -0.18197678702E+02  0.30322814982E+02  0.00000000000E+00 0.  1.
</event>
<event>
 5    1  0.4866530E-005  0.4880714E+03  0.7818608E-02  0.9986261E-01
         21   -1    0    0  501  502  0.00000000000E+00  0.00000000000E+00  0.24894595607E+03  0.24894595607E+03  0.00000000000E+00 0.  1.
          4   -1    0    0  502    0 -0.00000000000E+00 -0.00000000000E+00 -0.14467426198E+04  0.14467426198E+04  0.00000000000E+00 0.  1.
        -13    1    1    2    0    0  0.40447480838E+03  0.30495137037E+03 -0.74817901067E+03  0.90353032714E+03  0.10566000000E+00 0.  1.
         13    1    1    2    0    0  0.26786446366E+02 -0.88468527531E+02 -0.25607078595E+03  0.27224337027E+03  0.10566000000E+00 0. -1.
          4    1    1    2  501    0 -0.43126125474E+03 -0.21648284284E+03 -0.19354686714E+03  0.51991487848E+03  0.00000000000E+00 0.  1.
</event>
<event>
 5    1  0.6329478E-005  0.3961242E+03  0.7818608E-02  0.9840285E-01
          4   -1    0    0  502    0 -0.00000000000E+00  0.00000000000E+00  0.21217061266E+04  0.21217061266E+04  0.00000000000E+00 0.  1.
         21   -1    0    0  501  502  0.00000000000E+00 -0.00000000000E+00 -0.55062014799E+03  0.55062014799E+03  0.00000000000E+00 0.  1.
        -13    1    1    2    0    0  0.86708513482E+01 -0.21072108361E+03  0.37597243472E+03  0.43108449471E+03  0.10566000000E+00 0.  1.
         13    1    1    2    0    0  0.22355976432E+03 -0.17088398724E+03  0.16083046029E+04  0.16327351323E+04  0.10566000000E+00 0. -1.
          4    1    1    2  501    0 -0.23223061567E+03  0.38160507085E+03 -0.41319105900E+03  0.60850664762E+03  0.00000000000E+00 0.  1.
</event>
<event>
 5    1  0.4866530E-005  0.4415628E+03  0.7818608E-02  0.9708581E-01
          4   -1    0    0  502    0 -0.00000000000E+00  0.00000000000E+00  0.25803633408E+04  0.25803633408E+04  0.00000000000E+00 0.  1.
         21   -1    0    0  501  502  0.00000000000E+00 -0.00000000000E+00 -0.26953423327E+03  0.26953423327E+03  0.00000000000E+00 0.  1.
        -13    1    1    2    0    0 -0.15879098674E+03  0.37052573021E+03  0.78905902642E+03  0.88606887574E+03  0.10566000000E+00 0.  1.
         13    1    1    2    0    0  0.30695881461E+03  0.87647731107E+02  0.14405435937E+04  0.14754903237E+04  0.10566000000E+00 0. -1.
          4    1    1    2  501    0 -0.14816782787E+03 -0.45817346132E+03  0.81226487335E+02  0.48833837461E+03  0.00000000000E+00 0.  1.
</event>
<event>
 5    1  0.4866530E-005  0.4239245E+03  0.7818608E-02  0.9777744E-01
         -4   -1    0    0    0  501 -0.00000000000E+00  0.00000000000E+00  0.11427256566E+04  0.11427256566E+04  0.00000000000E+00 0. -1.
         21   -1    0    0  501  502  0.00000000000E+00 -0.00000000000E+00 -0.41546427112E+03  0.41546427112E+03  0.00000000000E+00 0. -1.
        -13    1    1    2    0    0  0.19365522324E+03  0.20789377043E+03  0.31909551842E+03  0.42725183008E+03  0.10566000000E+00 0.  1.
         13    1    1    2    0    0 -0.19272803516E+03  0.26059310910E+03  0.55264421350E+03  0.64067815784E+03  0.10566000000E+00 0. -1.
         -4    1    1    2    0  502 -0.92718808196E+00 -0.46848687953E+03 -0.14447834645E+03  0.49025993979E+03  0.00000000000E+00 0. -1.
</event>
<event>
 5    1  0.4866530E-005  0.2486590E+03  0.7818608E-02  0.1031090E+00
         21   -1    0    0  501  502  0.00000000000E+00  0.00000000000E+00  0.40576643196E+03  0.40576643196E+03  0.00000000000E+00 0. -1.
         -4   -1    0    0    0  501 -0.00000000000E+00 -0.00000000000E+00 -0.13214534607E+04  0.13214534607E+04  0.00000000000E+00 0. -1.
        -13    1    1    2    0    0 -0.23863228286E+03 -0.11996273427E+03 -0.68380801435E+03  0.73411840713E+03  0.10566000000E+00 0.  1.
         13    1    1    2    0    0  0.55653890017E+02  0.28411700919E+03 -0.53168604441E+03  0.60540060403E+03  0.10566000000E+00 0. -1.
         -4    1    1    2    0  502  0.18297839284E+03 -0.16415427492E+03  0.29980703005E+03  0.38770088146E+03  0.00000000000E+00 0. -1.
</event>
<event>
 5    1  0.4866530E-005  0.2112411E+03  0.7818608E-02  0.1088443E+00
         -4   -1    0    0    0  501 -0.00000000000E+00  0.00000000000E+00  0.33148669396E+03  0.33148669396E+03  0.00000000000E+00 0. -1.
         21   -1    0    0  501  502  0.00000000000E+00 -0.00000000000E+00 -0.27665716529E+03  0.27665716529E+03  0.00000000000E+00 0. -1.
        -13    1    1    2    0    0  0.20709862908E+02 -0.73076468042E+02 -0.11116937559E+03  0.13463918388E+03  0.10566000000E+00 0.  1.
         13    1    1    2    0    0  0.18598676017E+03 -0.25073524637E+02  0.15671816341E+03  0.24450020553E+03  0.10566000000E+00 0. -1.
         -4    1    1    2    0  502 -0.20669662308E+03  0.98149992679E+02  0.92807408532E+01  0.22900446984E+03  0.00000000000E+00 0. -1.
</event>
<event>
 5    1  0.4866530E-005  0.1112766E+03  0.7818608E-02  0.1147136E+00
         21   -1    0    0  501  502  0.00000000000E+00  0.00000000000E+00  0.11160936632E+04  0.11160936632E+04  0.00000000000E+00 0.  1.
         -4   -1    0    0    0  501 -0.00000000000E+00 -0.00000000000E+00 -0.35848112731E+02  0.35848112731E+02  0.00000000000E+00 0. -1.
        -13    1    1    2    0    0 -0.47261471961E+02  0.78449526040E+02  0.47652294319E+03  0.48524437289E+03  0.10566000000E+00 0.  1.
         13    1    1    2    0    0  0.53595992897E+02 -0.10253930238E+03  0.76094908102E+02  0.13848207534E+03  0.10566000000E+00 0. -1.
         -4    1    1    2    0  502 -0.63345209368E+01  0.24089776343E+02  0.52762769919E+03  0.52821532771E+03  0.00000000000E+00 0. -1.
</event>
<event>
 5    1  0.7250806E-005  0.4776044E+03  0.7818608E-02  0.9883761E-01
         -4   -1    0    0    0  501 -0.00000000000E+00  0.00000000000E+00  0.23780698084E+04  0.23780698084E+04  0.00000000000E+00 0. -1.
         21   -1    0    0  501  502  0.00000000000E+00 -0.00000000000E+00 -0.15373325196E+03  0.15373325196E+03  0.00000000000E+00 0. -1.
        -13    1    1    2    0    0 -0.35630913770E+02  0.13400034767E+03  0.62562730486E+03  0.64080823258E+03  0.10566000000E+00 0.  1.
         13    1    1    2    0    0 -0.41539127373E+03  0.10236540771E+03  0.10911961037E+04  0.11720654994E+04  0.10566000000E+00 0. -1.
         -4    1    1    2    0  502  0.45102218750E+03 -0.23636575537E+03  0.50751314784E+03  0.71892932835E+03  0.00000000000E+00 0. -1.
</event>
<event>
 5    1  0.4866530E-005  0.4510168E+03  0.7818608E-02  0.9688755E-01
         21   -1    0    0  501  502  0.00000000000E+00  0.00000000000E+00  0.10067498244E+04  0.10067498244E+04  0.00000000000E+00 0.  1.
          4   -1    0    0  502    0 -0.00000000000E+00 -0.00000000000E+00 -0.51454414945E+03  0.51454414945E+03  0.00000000000E+00 0.  1.
        -13    1    1    2    0    0  0.55694356909E+03  0.50049494497E+02  0.12784462397E+03  0.57361603019E+03  0.10566000000E+00 0.  1.
         13    1    1    2    0    0 -0.17956474175E+03 -0.26606711240E+03 -0.74878162628E+02  0.32960879112E+03  0.10566000000E+00 0. -1.
          4    1    1    2  501    0 -0.37737882734E+03  0.21601761790E+03  0.43923921363E+03  0.61806915257E+03  0.00000000000E+00 0.  1.
</event>
<event>
 5    1  0.4866530E-005  0.7520525E+02  0.7818608E-02  0.1213697E+00
         -4   -1    0    0    0  501 -0.00000000000E+00  0.00000000000E+00  0.41928515508E+03  0.41928515508E+03  0.00000000000E+00 0. -1.
         21   -1    0    0  501  502  0.00000000000E+00 -0.00000000000E+00 -0.44831233331E+02  0.44831233331E+02  0.00000000000E+00 0.  1.
        -13    1    1    2    0    0  0.27216753601E+02 -0.49586651229E+02  0.56101488140E+02  0.79667909425E+02  0.10566000000E+00 0.  1.
         13    1    1    2    0    0 -0.36131619658E+02  0.74899049397E+02  0.33996710424E+03  0.34999000653E+03  0.10566000000E+00 0. -1.
         -4    1    1    2    0  502  0.89148660568E+01 -0.25312398168E+02 -0.21614670629E+02  0.34458472459E+02  0.00000000000E+00 0. -1.
</event>
<event>
 5    1  0.4866530E-005  0.4556309E+03  0.7818608E-02  0.1024300E+00
          4   -1    0    0  502    0 -0.00000000000E+00  0.00000000000E+00  0.17467642450E+04  0.17467642450E+04  0.00000000000E+00 0.  1.
         21   -1    0    0  501  502  0.00000000000E+00 -0.00000000000E+00 -0.16956782202E+03  0.16956782202E+03  0.00000000000E+00 0.  1.
        -13    1    1    2    0    0 -0.94519846768E+02 -0.46109999111E+03  0.32907527962E+03  0.57431503032E+03  0.10566000000E+00 0.  1.
         13    1    1    2    0    0  0.22060025441E+02  0.44760752427E+02  0.29803974847E+03  0.30218847184E+03  0.10566000000E+00 0. -1.
          4    1    1    2  501    0  0.72459821327E+02  0.41633923868E+03  0.95008139485E+03  0.10398285648E+04  0.00000000000E+00 0.  1.
</event>
<event>
 5    1  0.4866530E-005  0.1949077E+03  0.7818608E-02  0.1063684E+00
         21   -1    0    0  501  502  0.00000000000E+00  0.00000000000E+00  0.74931498885E+02  0.74931498885E+02  0.00000000000E+00 0. -1.
         -4   -1    0    0    0  501 -0.00000000000E+00 -0.00000000000E+00 -0.12114895402E+04  0.12114895402E+04  0.00000000000E+00 0. -1.
        -13    1    1    2    0    0  0.52888484308E+02  0.17521044419E+03 -0.54800814127E+03  0.57776191082E+03  0.10566000000E+00 0.  1.
         13    1    1    2    0    0 -0.64606918916E+02 -0.19812070861E+03 -0.62793619150E+03  0.66161147278E+03  0.10566000000E+00 0. -1.
         -4    1    1    2    0  502  0.11718434609E+02  0.22910264423E+02  0.39386291495E+02  0.47047655450E+02  0.00000000000E+00 0. -1.
</event>
<event>
 5    1  0.4866530E-005  0.2625787E+03  0.7818608E-02  0.1049929E+00
          4   -1    0    0  502    0 -0.00000000000E+00  0.00000000000E+00  0.30061058253E+03  0.30061058253E+03  0.00000000000E+00 0.  1.
         21   -1    0    0  501  502  0.00000000000E+00 -0.00000000000E+00 -0.45967219653E+03  0.45967219653E+03  0.00000000000E+00 0.  1.
        -13    1    1    2    0    0 -0.32161845858E+03  0.13621481710E+03 -0.20754840040E+02  0.34989095994E+03  0.10566000000E+00 0.  1.
         13    1    1    2    0    0  0.10204370954E+03 -0.61950396820E+02  0.31016472690E+02  0.12334019241E+03  0.10566000000E+00 0. -1.
          4    1    1    2  501    0  0.21957474905E+03 -0.74264420279E+02 -0.16932324665E+03  0.28705162671E+03  0.00000000000E+00 0.  1.
</event>
<event>
 5    1  0.4866530E-005  0.4969131E+03  0.7818608E-02  0.9891283E-01
         21   -1    0    0  501  502  0.00000000000E+00  0.00000000000E+00  0.86737349384E+02  0.86737349384E+02  0.00000000000E+00 0. -1.
         -4   -1    0    0    0  501 -0.00000000000E+00 -0.00000000000E+00 -0.36736110495E+04  0.36736110495E+04  0.00000000000E+00 0. -1.
        -13    1    1    2    0    0 -0.59719996302E+02  0.10413693157E+03 -0.53261749329E+03  0.54597837302E+03  0.10566000000E+00 0.  1.
         13    1    1    2    0    0  0.20838524279E+03  0.41003835420E+03 -0.15975808307E+04  0.16624741752E+04  0.10566000000E+00 0. -1.
         -4    1    1    2    0  502 -0.14866524649E+03 -0.51417528577E+03 -0.14566753761E+04  0.15518958507E+04  0.00000000000E+00 0. -1.
</event>
<event>
 5    1  0.4866530E-005  0.5084122E+03  0.7818608E-02  0.9476821E-01
         21   -1    0    0  501  502  0.00000000000E+00  0.00000000000E+00  0.51477462354E+03  0.51477462354E+03  0.00000000000E+00 0.  1.
          4   -1    0    0  502    0 -0.00000000000E+00 -0.00000000000E+00 -0.20462433714E+04  0.20462433714E+04  0.00000000000E+00 0.  1.
        -13    1    1    2    0    0  0.82284705211E+02 -0.41406688121E+03 -0.13232597074E+03  0.44241646502E+03  0.10566000000E+00 0.  1.
         13    1    1    2    0    0  0.52145223063E+03  0.57019424553E+02 -0.13105288949E+04  0.14116124253E+04  0.10566000000E+00 0. -1.
          4    1    1    2  501    0 -0.60373693584E+03  0.35704745666E+03 -0.88613882223E+02  0.70698910467E+03  0.00000000000E+00 0.  1.
</event>
<event>
 5    1  0.4866530E-005  0.4962030E+03  0.7818608E-02  0.9559759E-01
         -4   -1    0    0    0  501 -0.00000000000E+00  0.00000000000E+00  0.14996789582E+04  0.14996789582E+04  0.00000000000E+00 0. -1.
         21   -1    0    0  501  502  0.00000000000E+00 -0.00000000000E+00 -0.57739911430E+03  0.57739911430E+03  0.00000000000E+00 0. -1.
        -13    1    1    2    0    0  0.37727728461E+03 -0.49447658524E+02  0.93407211249E+03  0.10085999915E+04  0.10566000000E+00 0.  1.
         13    1    1    2    0    0  0.66990040975E+02  0.43964680763E+03  0.12421661018E+03  0.46174317370E+03  0.10566000000E+00 0. -1.
         -4    1    1    2    0  502 -0.44426732559E+03 -0.39019914911E+03 -0.13600887879E+03  0.60673490724E+03  0.00000000000E+00 0. -1.
</event>
<event>
 5    1  0.4866530E-005  0.2313047E+03  0.7818608E-02  0.1040564E+00
          4   -1    0    0  502    0 -0.00000000000E+00  0.00000000000E+00  0.21032719081E+03  0.21032719081E+03  0.00000000000E+00 0.  1.
         21   -1    0    0  501  502  0.00000000000E+00 -0.00000000000E+00 -0.32901312727E+03  0.32901312727E+03  0.00000000000E+00 0. -1.
        -13    1    1    2    0    0  0.18558639204E+03 -0.12146009103E+03 -0.29004203530E+01  0.22181813773E+03  0.10566000000E+00 0.  1.
         13    1    1    2    0    0 -0.19766497820E+03  0.14353981038E+03 -0.53122917355E+02  0.24999435251E+03  0.10566000000E+00 0. -1.
          4    1    1    2  501    0  0.12078586163E+02 -0.22079719353E+02 -0.62662598758E+02  0.67527827845E+02  0.00000000000E+00 0.  1.
</event>
<event>
 5    1  0.4866530E-005  0.5036641E+03  0.7818608E-02  0.9538800E-01
         21   -1    0    0  501  502  0.00000000000E+00  0.00000000000E+00  0.34107628627E+03  0.34107628627E+03  0.00000000000E+00 0. -1.
          4   -1    0    0  502    0 -0.00000000000E+00 -0.00000000000E+00 -0.18641863017E+04  0.18641863017E+04  0.00000000000E+00 0.  1.
        -13    1    1    2    0    0 -0.40878225644E+03 -0.35245041713E+02 -0.73405461741E+03  0.84094074622E+03  0.10566000000E+00 0.  1.
         13    1    1    2    0    0 -0.15529027589E+03  0.36028098841E+03 -0.77535012461E+02  0.39991142734E+03  0.10566000000E+00 0. -1.
          4    1    1    2  501    0  0.56407253233E+03 -0.32503594669E+03 -0.71152038557E+03  0.96441041443E+03  0.00000000000E+00 0.  1.
</event>
<event>
 5    1  0.4866530E-005  0.2319708E+03  0.7818608E-02  0.1040184E+00
          4   -1    0    0  502    0 -0.00000000000E+00  0.00000000000E+00  0.16966423035E+03  0.16966423035E+03  0.00000000000E+00 0.  1.
         21   -1    0    0  501  502  0.00000000000E+00 -0.00000000000E+00 -0.10484492692E+04  0.10484492692E+04  0.00000000000E+00 0. -1.
        -13    1    1    2    0    0  0.28295543749E+02  0.22860855420E+03  0.62961058303E+02  0.23880245995E+03  0.10566000000E+00 0.  1.
         13    1    1    2    0    0 -0.21389683513E+02 -0.24755041932E+03 -0.87119460128E+03  0.90593530295E+03  0.10566000000E+00 0. -1.
          4    1    1    2  501    0 -0.69058602366E+01  0.18941865114E+02 -0.70551495848E+02  0.73375736630E+02  0.00000000000E+00 0.  1.
</event>
<event>
 5    1  0.4866530E-005  0.4812392E+03  0.7818608E-02  0.9807942E-01
          4   -1    0    0  502    0 -0.00000000000E+00  0.00000000000E+00  0.16776183375E+04  0.16776183375E+04  0.00000000000E+00 0.  1.
         21   -1    0    0  501  502  0.00000000000E+00 -0.00000000000E+00 -0.26494797338E+03  0.26494797338E+03  0.00000000000E+00 0.  1.
        -13    1    1    2    0    0  0.22777745228E+03  0.36035751746E+03  0.23391647788E+03  0.48626848340E+03  0.10566000000E+00 0.  1.
         13    1    1    2    0    0  0.18275364341E+02  0.17420604226E+03  0.62198724872E+03  0.64618099851E+03  0.10566000000E+00 0. -1.
          4    1    1    2  501    0 -0.24605281662E+03 -0.53456355972E+03  0.55676663751E+03  0.81011682897E+03  0.00000000000E+00 0.  1.
</event>
<event>
 5    1  0.4866530E-005  0.4513110E+03  0.7818608E-02  0.9739248E-01
          4   -1    0    0  502    0 -0.00000000000E+00  0.00000000000E+00  0.50778774783E+03  0.50778774783E+03  0.00000000000E+00 0.  1.
         21   -1    0    0  501  502  0.00000000000E+00 -0.00000000000E+00 -0.11268585647E+04  0.11268585647E+04  0.00000000000E+00 0.  1.
        -13    1    1    2    0    0 -0.36963513771E+03  0.27838735146E+03 -0.67462773907E+03  0.81807838865E+03  0.10566000000E+00 0.  1.
         13    1    1    2    0    0  0.20706727984E+03  0.17145041367E+03  0.17851214209E+03  0.32270528159E+03  0.10566000000E+00 0. -1.
          4    1    1    2  501    0  0.16256785787E+03 -0.44983776513E+03 -0.12295521987E+03  0.49386264228E+03  0.00000000000E+00 0.  1.
</event>
<event>
 5    1  0.4866530E-005  0.1587228E+03  0.7818608E-02  0.1105901E+00
         21   -1    0    0  501  502  0.00000000000E+00  0.00000000000E+00  0.79142878071E+03  0.79142878071E+03  0.00000000000E+00 0.  1.
          4   -1    0    0  502    0 -0.00000000000E+00 -0.00000000000E+00 -0.10299689362E+03  0.10299689362E+03  0.00000000000E+00 0.  1.
        -13    1    1    2    0    0 -0.78584565889E+02  0.59276113868E+02 -0.41878929853E+02  0.10697218144E+03  0.10566000000E+00 0.  1.
         13    1    1    2    0    0 -0.99887244445E+02 -0.49066271947E+02  0.34910225072E+03  0.36641145351E+03  0.10566000000E+00 0. -1.
          4    1    1    2  501    0  0.17847181033E+03 -0.10209841921E+02  0.38120856623E+03  0.42104203938E+03  0.00000000000E+00 0.  1.
</event>
<event>
 5    1  0.4866530E-005  0.1481752E+03  0.7818608E-02  0.1102925E+00
         21   -1    0    0  501  502  0.00000000000E+00  0.00000000000E+00  0.98795010739E+02  0.98795010739E+02  0.00000000000E+00 0.  1.
         -4   -1    0    0    0  501 -0.00000000000E+00 -0.00000000000E+00 -0.77484462430E+03  0.77484462430E+03  0.00000000000E+00 0. -1.
        -13    1    1    2    0    0  0.15525181809E+03 -0.92116352656E+02 -0.81502507500E+02  0.19806872378E+03  0.10566000000E+00 0.  1.
         13    1    1    2    0    0 -0.14389522477E+03  0.18836332307E+02 -0.58267042863E+03  0.60047105067E+03  0.10566000000E+00 0. -1.
         -4    1    1    2    0  502 -0.11356593323E+02  0.73280020348E+02 -0.11876677431E+02  0.75099860592E+02  0.00000000000E+00 0. -1.
</event>
<event>
 5    1  0.4866530E-005  0.8804186E+02  0.7818608E-02  0.1186017E+00
         21   -1    0    0  501  502  0.00000000000E+00  0.00000000000E+00  0.12180273236E+03  0.12180273236E+03  0.00000000000E+00 0. -1.
         -4   -1    0    0    0  501 -0.00000000000E+00 -0.00000000000E+00 -0.34345410763E+03  0.34345410763E+03  0.00000000000E+00 0. -1.
        -13    1    1    2    0    0  0.89019509860E+02  0.11797241649E+01 -0.76226495008E+02  0.11720219533E+03  0.10566000000E+00 0.  1.
         13    1    1    2    0    0 -0.85126822209E+02 -0.24312752772E+02 -0.23727666632E+03  0.25325464132E+03  0.10566000000E+00 0. -1.
         -4    1    1    2    0  502 -0.38926876507E+01  0.23133028607E+02  0.91851786061E+02  0.94800003335E+02  0.00000000000E+00 0. -1.
</event>
<event>
 5    1  0.4866530E-005  0.4464620E+03  0.7818608E-02  0.9603732E-01
         -4   -1    0    0    0  501 -0.00000000000E+00  0.00000000000E+00  0.32799430687E+04  0.32799430687E+04  0.00000000000E+00 0. -1.
         21   -1    0    0  501  502  0.00000000000E+00 -0.00000000000E+00 -0.96809700782E+02  0.96809700782E+02  0.00000000000E+00 0.  1.
        -13    1    1    2    0    0 -0.26143036658E+03  0.30004552202E+03  0.50658050558E+03  0.64420258587E+03  0.10566000000E+00 0.  1.
         13    1    1    2    0    0  0.27750580461E+03 -0.36885589252E+03  0.25022499652E+04  0.25444683217E+04  0.10566000000E+00 0. -1.
         -4    1    1    2    0  502 -0.16075438028E+02  0.68810370505E+02  0.17430289717E+03  0.18808186185E+03  0.00000000000E+00 0. -1.
</event>
<event>
 5    1  0.4866530E-005  0.3034062E+03  0.7818608E-02  0.1019174E+00
          4   -1    0    0  502    0 -0.00000000000E+00  0.00000000000E+00  0.57354355043E+03  0.57354355043E+03  0.00000000000E+00 0.  1.
         21   -1    0    0  501  502  0.00000000000E+00 -0.00000000000E+00 -0.65737780310E+03  0.65737780310E+03  0.00000000000E+00 0.  1.
        -13    1    1    2    0    0 -0.15081641875E+02 -0.28314103771E+03 -0.38622447504E+03  0.47913010701E+03  0.10566000000E+00 0.  1.
         13    1    1    2    0    0 -0.47392357936E+02 -0.19277968695E+03  0.32644253728E+02  0.20118573944E+03  0.10566000000E+00 0. -1.
          4    1    1    2  501    0  0.62473999811E+02  0.47592072466E+03  0.26974596865E+03  0.55060550707E+03  0.00000000000E+00 0.  1.
</event>
<event>
 5    1  0.4866530E-005  0.6648121E+03  0.7818608E-02  0.9175648E-01
         -4   -1    0    0    0  501 -0.00000000000E+00  0.00000000000E+00  0.25768509843E+04  0.25768509843E+04  0.00000000000E+00 0. -1.
         21   -1    0    0  501  502  0.00000000000E+00 -0.00000000000E+00 -0.40202633691E+03  0.40202633691E+03  0.00000000000E+00 0. -1.
        -13    1    1    2    0    0  0.70089398405E+03 -0.49189762912E+02  0.73537637603E+03  0.10170793653E+04  0.10566000000E+00 0.  1.
         13    1    1    2    0    0 -0.64875212429E+03 -0.32484676629E+02  0.16263500009E+04  0.17512706557E+04  0.10566000000E+00 0. -1.
         -4    1    1    2    0  502 -0.52141859767E+02  0.81674439541E+02 -0.18690172956E+03  0.21052730020E+03  0.00000000000E+00 0. -1.
</event>
<event>
 5    1  0.4866530E-005  0.4865208E+03  0.7818608E-02  0.9592616E-01
         21   -1    0    0  501  502  0.00000000000E+00  0.00000000000E+00  0.29532411578E+03  0.29532411578E+03  0.00000000000E+00 0.  1.
         -4   -1    0    0    0  501 -0.00000000000E+00 -0.00000000000E+00 -0.19214659530E+04  0.19214659530E+04  0.00000000000E+00 0. -1.
        -13    1    1    2    0    0  0.15832115583E+03  0.32212930670E+03 -0.14786285183E+03  0.38819622968E+03  0.10566000000E+00 0.  1.
         13    1    1    2    0    0 -0.30463614677E+03  0.30322315439E+03 -0.51428684480E+03  0.67025251448E+03  0.10566000000E+00 0. -1.
         -4    1    1    2    0  502  0.14631499094E+03 -0.62535246110E+03 -0.96399214057E+03  0.11583413246E+04  0.00000000000E+00 0. -1.
</event>
<event>
 5    1  0.4866530E-005  0.3162516E+03  0.7818608E-02  0.1015053E+00
         -4   -1    0    0    0  501 -0.00000000000E+00  0.00000000000E+00  0.14537417753E+04  0.14537417753E+04  0.00000000000E+00 0. -1.
         21   -1    0    0  501  502  0.00000000000E+00 -0.00000000000E+00 -0.32329603567E+03  0.32329603567E+03  0.00000000000E+00 0. -1.
        -13    1    1    2    0    0 -0.18636464765E+03 -0.71922948032E+02  0.76256228793E+03  0.78829305876E+03  0.10566000000E+00 0.  1.
         13    1    1    2    0    0 -0.99194020419E+02  0.30039285478E+03 -0.15371460085E+03  0.35171509858E+03  0.10566000000E+00 0. -1.
         -4    1    1    2    0  502  0.28555866806E+03 -0.22846990675E+03  0.52159805260E+03  0.63702965368E+03  0.00000000000E+00 0. -1.
</event>
<event>
 5    1  0.4866530E-005  0.3506293E+03  0.7818608E-02  0.9883591E-01
         21   -1    0    0  501  502  0.00000000000E+00  0.00000000000E+00  0.24697288245E+03  0.24697288245E+03  0.00000000000E+00 0. -1.
         -4   -1    0    0    0  501 -0.00000000000E+00 -0.00000000000E+00 -0.26065637094E+04  0.26065637094E+04  0.00000000000E+00 0. -1.
        -13    1    1    2    0    0  0.29896152075E+03  0.91048481271E+02 -0.13951754882E+04  0.14297490937E+04  0.10566000000E+00 0.  1.
         13    1    1    2    0    0 -0.40302025404E+03 -0.38003004222E+03 -0.96950820113E+03  0.11165994454E+04  0.10566000000E+00 0. -1.
         -4    1    1    2    0  502  0.10405873329E+03  0.28898156095E+03  0.50928623875E+01  0.30718805281E+03  0.00000000000E+00 0. -1.
</event>
<event>
 5    1  0.4866530E-005  0.2010299E+03  0.7818608E-02  0.1059432E+00
          4   -1    0    0  502    0 -0.00000000000E+00  0.00000000000E+00  0.35305738938E+03  0.35305738938E+03  0.00000000000E+00 0.  1.
         21   -1    0    0  501  502  0.00000000000E+00 -0.00000000000E+00 -0.19215292720E+03  0.19215292720E+03  0.00000000000E+00 0.  1.
        -13    1    1    2    0    0  0.38868056583E+02 -0.23767519051E+03  0.85835644547E+02  0.25567164693E+03  0.10566000000E+00 0.  1.
         13    1    1    2    0    0 -0.49751297895E+02  0.17158994069E+03  0.11413480187E+03  0.21200250836E+03  0.10566000000E+00 0. -1.
          4    1    1    2  501    0  0.10883241312E+02  0.66085249813E+02 -0.39065984234E+02  0.77536161296E+02  0.00000000000E+00 0.  1.
</event>
<event>
 5    1  0.4866530E-005  0.5889835E+02  0.7818608E-02  0.1259276E+00
         21   -1    0    0  501  502  0.00000000000E+00  0.00000000000E+00  0.55151379348E+02  0.55151379348E+02  0.00000000000E+00 0. -1.
         -4   -1    0    0    0  501 -0.00000000000E+00 -0.00000000000E+00 -0.21172137788E+03  0.21172137788E+03  0.00000000000E+00 0. -1.
        -13    1    1    2    0    0  0.65356566783E+02 -0.28402132517E+01 -0.82190197898E+01  0.65932625333E+02  0.10566000000E+00 0.  1.
         13    1    1    2    0    0 -0.51016498712E+02  0.29292448732E+02 -0.15859565360E+03  0.16915473152E+03  0.10566000000E+00 0. -1.
         -4    1    1    2    0  502 -0.14340068071E+02 -0.26452235480E+02  0.10244674850E+02  0.31785400375E+02  0.00000000000E+00 0. -1.
</event>
<event>
 5    1  0.4866530E-005  0.4810421E+03  0.7818608E-02  0.9558497E-01
          4   -1    0    0  502    0 -0.00000000000E+00  0.00000000000E+00  0.80462475730E+03  0.80462475730E+03  0.00000000000E+00 0.  1.
         21   -1    0    0  501  502  0.00000000000E+00 -0.00000000000E+00 -0.83461199444E+03  0.83461199444E+03  0.00000000000E+00 0.  1.
        -13    1    1    2    0    0  0.10374192172E+03 -0.35171811197E+03 -0.69806342373E+02  0.37328401146E+03  0.10566000000E+00 0.  1.
         13    1    1    2    0    0  0.39141729679E+03 -0.15096837512E+03  0.29800872667E+03  0.51459514460E+03  0.10566000000E+00 0. -1.
          4    1    1    2  501    0 -0.49515921851E+03  0.50268648709E+03 -0.25818962144E+03  0.75135759568E+03  0.00000000000E+00 0.  1.
</event>
<event>
 5    1  0.4866530E-005  0.4935921E+03  0.7818608E-02  0.9689459E-01
         21   -1    0    0  501  502  0.00000000000E+00  0.00000000000E+00  0.50474298898E+03  0.50474298898E+03  0.00000000000E+00 0.  1.
          4   -1    0    0  502    0 -0.00000000000E+00 -0.00000000000E+00 -0.96828192208E+03  0.96828192208E+03  0.00000000000E+00 0.  1.
        -13    1    1    2    0    0 -0.43153853100E+03  0.38616890842E+03 -0.73444029165E+02  0.58373449971E+03  0.10566000000E+00 0.  1.
         13    1    1    2    0    0  0.47809209319E+01 -0.24423983107E+03 -0.36454311442E+03  0.43882530205E+03  0.10566000000E+00 0. -1.
          4    1    1    2  501    0  0.42675761007E+03 -0.14192907734E+03 -0.25551789516E+02  0.45046510930E+03  0.00000000000E+00 0.  1.
</event>
<event>
 5    1  0.4866530E-005  0.4743442E+03  0.7818608E-02  0.9714574E-01
         21   -1    0    0  501  502  0.00000000000E+00  0.00000000000E+00  0.24431728137E+03  0.24431728137E+03  0.00000000000E+00 0.  1.
          4   -1    0    0  502    0 -0.00000000000E+00 -0.00000000000E+00 -0.16951855284E+04  0.16951855284E+04  0.00000000000E+00 0.  1.
        -13    1    1    2    0    0 -0.60890072437E+03  0.17018941406E+03 -0.73854535118E+03  0.97220048123E+03  0.10566000000E+00 0.  1.
         13    1    1    2    0    0  0.25219755918E+03 -0.19276031385E+01 -0.35246955355E+03  0.43340757014E+03  0.10566000000E+00 0. -1.
          4    1    1    2  501    0  0.35670316519E+03 -0.16826181092E+03 -0.35985334228E+03  0.53389475838E+03  0.00000000000E+00 0.  1.
</event>
<event>
 5    1  0.4866530E-005  0.4467363E+03  0.7818608E-02  0.9827158E-01
         21   -1    0    0  501  502  0.00000000000E+00  0.00000000000E+00  0.56855913595E+03  0.56855913595E+03  0.00000000000E+00 0. -1.
         -4   -1    0    0    0  501 -0.00000000000E+00 -0.00000000000E+00 -0.68948826923E+03  0.68948826923E+03  0.00000000000E+00 0. -1.
        -13    1    1    2    0    0  0.10443920232E+03  0.17652545333E+03 -0.12418326872E+03  0.23977130364E+03  0.10566000000E+00 0.  1.
         13    1    1    2    0    0  0.38836484788E+03  0.11024902168E+03  0.14805899002E+03  0.43000415991E+03  0.10566000000E+00 0. -1.
         -4    1    1    2    0  502 -0.49280405019E+03 -0.28677447501E+03 -0.14480485458E+03  0.58827194163E+03  0.00000000000E+00 0. -1.
</event>
<event>
 5    1  0.4866530E-005  0.2308790E+03  0.7818608E-02  0.1052458E+00
         -4   -1    0    0    0  501 -0.00000000000E+00  0.00000000000E+00  0.48756102749E+03  0.48756102749E+03  0.00000000000E+00 0. -1.
         21   -1    0    0  501  502  0.00000000000E+00 -0.00000000000E+00 -0.15150113946E+04  0.15150113946E+04  0.00000000000E+00 0. -1.
        -13    1    1    2    0    0 -0.15156706825E+03 -0.59734623583E+02  0.27443260556E+03  0.31914584063E+03  0.10566000000E+00 0.  1.
         13    1    1    2    0    0  0.37054929827E+03  0.12633116466E+02 -0.85734522279E+01  0.37086371260E+03  0.10566000000E+00 0. -1.
         -4    1    1    2    0  502 -0.21898223002E+03  0.47101507117E+02 -0.12933095205E+04  0.13125628689E+04  0.00000000000E+00 0. -1.
</event>
<event>
 5    1  0.4866530E-005  0.3163966E+03  0.7818608E-02  0.1000758E+00
         21   -1    0    0  501  502  0.00000000000E+00  0.00000000000E+00  0.54253923342E+03  0.54253923342E+03  0.00000000000E+00 0.  1.
         -4   -1    0    0    0  501 -0.00000000000E+00 -0.00000000000E+00 -0.30839639063E+03  0.30839639063E+03  0.00000000000E+00 0. -1.
        -13    1    1    2    0    0  0.65929792025E+02 -0.28495244413E+03  0.16294642020E+03  0.33480767600E+03  0.10566000000E+00 0.  1.
         13    1    1    2    0    0 -0.79772521004E+02  0.31829706401E+03 -0.98521567405E+02  0.34261229760E+03  0.10566000000E+00 0. -1.
         -4    1    1    2    0  502  0.13842728979E+02 -0.33344619878E+02  0.16971798999E+03  0.17351565044E+03  0.00000000000E+00 0. -1.
</event>
<event>
 5    1  0.4866530E-005  0.4149332E+03  0.7818608E-02  0.9686881E-01
          4   -1    0    0  502    0 -0.00000000000E+00  0.00000000000E+00  0.27706478173E+04  0.27706478173E+04  0.00000000000E+00 0.  1.
         21   -1    0    0  501  502  0.00000000000E+00 -0.00000000000E+00 -0.16238330168E+03  0.16238330168E+03  0.00000000000E+00 0. -1.
        -13    1    1    2    0    0 -0.36930574672E+03  0.29038390478E+03  0.20742124535E+04  0.21267503051E+04  0.10566000000E+00 0.  1.
         13    1    1    2    0    0  0.28770445476E+03 -0.15356779339E+03  0.55688395584E+03  0.64535003827E+03  0.10566000000E+00 0. -1.
          4    1    1    2  501    0  0.81601291952E+02 -0.13681611139E+03 -0.22831893693E+02  0.16093077566E+03  0.00000000000E+00 0.  1.
</event>
<event>
 5    1  0.4866530E-005  0.6013667E+03  0.7818608E-02  0.9457358E-01
         21   -1    0    0  501  502  0.00000000000E+00  0.00000000000E+00  0.14283660279E+04  0.14283660279E+04  0.00000000000E+00 0.  1.
          4   -1    0    0  502    0 -0.00000000000E+00 -0.00000000000E+00 -0.62173125635E+03  0.62173125635E+03  0.00000000000E+00 0.  1.
        -13    1    1    2    0    0  0.23378956758E+03 -0.32481775685E+03 -0.40565073355E+02  0.40225573137E+03  0.10566000000E+00 0.  1.
         13    1    1    2    0    0  0.78062123485E+02 -0.29989846841E+03 -0.21466794098E+03  0.37698159441E+03  0.10566000000E+00 0. -1.
          4    1    1    2  501    0 -0.31185169107E+03  0.62471622526E+03  0.10618677859E+04  0.12708599585E+04  0.00000000000E+00 0.  1.
</event>
<event>
 5    1  0.2528745E-004  0.9141709E+03  0.7818608E-02  0.8859704E-01
          4   -1    0    0  502    0 -0.00000000000E+00  0.00000000000E+00  0.11681679179E+04  0.11681679179E+04  0.00000000000E+00 0.  1.
         21   -1    0    0  501  502  0.00000000000E+00 -0.00000000000E+00 -0.13787508900E+04  0.13787508900E+04  0.00000000000E+00 0. -1.
        -13    1    1    2    0    0  0.38147079873E+03 -0.82435483707E+03  0.67312799850E+03  0.11305671945E+04  0.10566000000E+00 0.  1.
         13    1    1    2    0    0 -0.30155709654E+03  0.89064357867E+03 -0.60297974066E+03  0.11170350243E+04  0.10566000000E+00 0. -1.
          4    1    1    2  501    0 -0.79913702193E+02 -0.66288741609E+02 -0.28073122993E+03  0.29931658912E+03  0.00000000000E+00 0.  1.
</event>
<event>
 5    1  0.4866530E-005  0.1023463E+03  0.7818608E-02  0.1160731E+00
         -4   -1    0    0    0  501 -0.00000000000E+00  0.00000000000E+00  0.33799260835E+03  0.33799260835E+03  0.00000000000E+00 0. -1.
         21   -1    0    0  501  502  0.00000000000E+00 -0.00000000000E+00 -0.62230791600E+02  0.62230791600E+02  0.00000000000E+00 0. -1.
        -13    1    1    2    0    0  0.47013659340E+02  0.73103486410E+02  0.52818819536E+02  0.10170665048E+03  0.10566000000E+00 0.  1.
         13    1    1    2    0    0 -0.55167886854E+02 -0.94966728381E+02  0.24368818854E+03  0.26729406959E+03  0.10566000000E+00 0. -1.
         -4    1    1    2    0  502  0.81542275140E+01  0.21863241972E+02 -0.20745191328E+02  0.31222679884E+02  0.00000000000E+00 0. -1.
</event>
<event>
 5    1  0.4866530E-005  0.5971352E+02  0.7818608E-02  0.1256622E+00
         21   -1    0    0  501  502  0.00000000000E+00  0.00000000000E+00  0.31043410273E+03  0.31043410273E+03  0.00000000000E+00 0.  1.
         -4   -1    0    0    0  501 -0.00000000000E+00 -0.00000000000E+00 -0.24202869951E+02  0.24202869951E+02  0.00000000000E+00 0. -1.
        -13    1    1    2    0    0 -0.30360247782E+02  0.55838710538E+02  0.63936367775E+02  0.90153072760E+02  0.10566000000E+00 0.  1.
         13    1    1    2    0    0  0.54218856591E+02 -0.27442356557E+02  0.10336002189E+03  0.11990026119E+03  0.10566000000E+00 0. -1.
         -4    1    1    2    0  502 -0.23858608809E+02 -0.28396353981E+02  0.11893484311E+03  0.12458363873E+03  0.00000000000E+00 0. -1.
</event>
<event>
 5    1  0.4866530E-005  0.3708005E+03  0.7818608E-02  0.1036610E+00
          4   -1    0    0  502    0 -0.00000000000E+00  0.00000000000E+00  0.90217775065E+03  0.90217775065E+03  0.00000000000E+00 0.  1.
         21   -1    0    0  501  502  0.00000000000E+00 -0.00000000000E+00 -0.31001249591E+03  0.31001249591E+03  0.00000000000E+00 0.  1.
        -13    1    1    2    0    0 -0.35571985179E+03 -0.50060640704E+02  0.63735105964E+03  0.73161401374E+03  0.10566000000E+00 0.  1.
         13    1    1    2    0    0 -0.18162842810E+02  0.60650553815E+02  0.64913311990E+02  0.90675949261E+02  0.10566000000E+00 0. -1.
          4    1    1    2  501    0  0.37388269460E+03 -0.10589913111E+02 -0.11009911690E+03  0.38990028356E+03  0.00000000000E+00 0.  1.
</event>
<event>
 5    1  0.4866530E-005  0.1935483E+02  0.7818608E-02  0.1519031E+00
         -4   -1    0    0    0  501 -0.00000000000E+00  0.00000000000E+00  0.12697472710E+02  0.12697472710E+02  0.00000000000E+00 0. -1.
         21   -1    0    0  501  502  0.00000000000E+00 -0.00000000000E+00 -0.15263488777E+03  0.15263488777E+03  0.00000000000E+00 0.  1.
        -13    1    1    2    0    0  0.78891773277E+01  0.19606844201E+02 -0.72716638252E+02  0.75725742659E+02  0.10566000000E+00 0.  1.
         13    1    1    2    0    0 -0.16139346349E+02 -0.10987829816E+02  0.17577149186E+01  0.19603867741E+02  0.10566000000E+00 0. -1.
         -4    1    1    2    0  502  0.82501690214E+01 -0.86190143847E+01 -0.68978491729E+02  0.70002750082E+02  0.00000000000E+00 0. -1.
</event>
<event>
 5    1  0.4866530E-005  0.5443391E+03  0.7818608E-02  0.9443606E-01
         21   -1    0    0  501  502  0.00000000000E+00  0.00000000000E+00  0.49674696331E+03  0.49674696331E+03  0.00000000000E+00 0.  1.
         -4   -1    0    0    0  501 -0.00000000000E+00 -0.00000000000E+00 -0.21395498050E+04  0.21395498050E+04  0.00000000000E+00 0. -1.
        -13    1    1    2    0    0 -0.21859012509E+03  0.56499427659E+03 -0.12845681100E+04  0.14202518846E+04  0.10566000000E+00 0.  1.
         13    1    1    2    0    0 -0.37056804367E+03 -0.39692397174E+03 -0.10482979035E+03  0.55304485391E+03  0.10566000000E+00 0. -1.
         -4    1    1    2    0  502  0.58915816877E+03 -0.16807030485E+03 -0.25340494135E+03  0.66300002979E+03  0.00000000000E+00 0. -1.
</event>
<event>
 5    1  0.4866530E-005  0.3279085E+02  0.7818608E-02  0.1383807E+00
         21   -1    0    0  501  502  0.00000000000E+00  0.00000000000E+00  0.22467834861E+02  0.22467834861E+02  0.00000000000E+00 0. -1.
         -4   -1    0    0    0  501 -0.00000000000E+00 -0.00000000000E+00 -0.18426140036E+03  0.18426140036E+03  0.00000000000E+00 0. -1.
        -13    1    1    2    0    0 -0.27810717784E+02 -0.14706051918E+02 -0.47255555525E+02  0.56769733827E+02  0.10566000000E+00 0.  1.
         13    1    1    2    0    0  0.35792500266E+02 -0.10554105373E+02 -0.11751877523E+03  0.12330111886E+03  0.10566000000E+00 0. -1.
         -4    1    1    2    0  502 -0.79817824814E+01  0.25260157291E+02  0.29807652576E+01  0.26658382537E+02  0.00000000000E+00 0. -1.
</event>
<event>
 5    1  0.4866530E-005  0.5223269E+02  0.7818608E-02  0.1282956E+00
         21   -1    0    0  501  502  0.00000000000E+00  0.00000000000E+00  0.48172850574E+03  0.48172850574E+03  0.00000000000E+00 0.  1.
          4   -1    0    0  502    0 -0.00000000000E+00 -0.00000000000E+00 -0.12788780344E+02  0.12788780344E+02  0.00000000000E+00 0.  1.
        -13    1    1    2    0    0  0.49017778845E+02  0.17155154739E+02  0.80553105577E+02  0.95842871196E+02  0.10566000000E+00 0.  1.
         13    1    1    2    0    0 -0.37913403026E+02 -0.45672712401E+02  0.26043486169E+03  0.26711374195E+03  0.10566000000E+00 0. -1.
          4    1    1    2  501    0 -0.11104375820E+02  0.28517557661E+02  0.12795175813E+03  0.13156067294E+03  0.00000000000E+00 0.  1.
</event>
<event>
 5    1  0.4866530E-005  0.1771071E+03  0.7818608E-02  0.1077075E+00
         21   -1    0    0  501  502  0.00000000000E+00  0.00000000000E+00  0.35185396817E+03  0.35185396817E+03  0.00000000000E+00 0.  1.
         -4   -1    0    0    0  501 -0.00000000000E+00 -0.00000000000E+00 -0.18403242342E+03  0.18403242342E+03  0.00000000000E+00 0. -1.
        -13    1    1    2    0    0  0.14079076633E+03  0.10085211707E+03 -0.38859039656E+02  0.17749148015E+03  0.10566000000E+00 0.  1.
         13    1    1    2    0    0 -0.13884018664E+03 -0.12067785182E+03  0.37114454599E+02  0.18766255687E+03  0.10566000000E+00 0. -1.
         -4    1    1    2    0  502 -0.19505796884E+01  0.19825734751E+02  0.16956612980E+03  0.17073235457E+03  0.00000000000E+00 0. -1.
</event>
<event>
 5    1  0.4866530E-005  0.2640776E+03  0.7818608E-02  0.1050532E+00
          4   -1    0    0  502    0 -0.00000000000E+00  0.00000000000E+00  0.21001593425E+04  0.21001593425E+04  0.00000000000E+00 0.  1.
         21   -1    0    0  501  502  0.00000000000E+00 -0.00000000000E+00 -0.19170248447E+03  0.19170248447E+03  0.00000000000E+00 0.  1.
        -13    1    1    2    0    0  0.26093652664E+03  0.97461113062E+01 -0.65468103063E+02  0.26920055963E+03  0.10566000000E+00 0.  1.
         13    1    1    2    0    0  0.43028927444E+02 -0.10693974666E+03  0.69668900895E+03  0.70616087711E+03  0.10566000000E+00 0. -1.
          4    1    1    2  501    0 -0.30396545409E+03  0.97193635354E+02  0.12772359522E+04  0.13165003903E+04  0.00000000000E+00 0.  1.
</event>
<event>
 5    1  0.4866530E-005  0.5429340E+03  0.7818608E-02  0.9388528E-01
         -4   -1    0    0    0  501 -0.00000000000E+00  0.00000000000E+00  0.10540325112E+04  0.10540325112E+04  0.00000000000E+00 0. -1.
         21   -1    0    0  501  502  0.00000000000E+00 -0.00000000000E+00 -0.79154631415E+03  0.79154631415E+03  0.00000000000E+00 0. -1.
        -13    1    1    2    0    0 -0.60731753047E+03 -0.36142100100E+02  0.29838919293E+03  0.67762597046E+03  0.10566000000E+00 0.  1.
         13    1    1    2    0    0  0.36145901871E+03 -0.33238267836E+03 -0.36853896111E+03  0.61396404138E+03  0.10566000000E+00 0. -1.
         -4    1    1    2    0  502  0.24585851176E+03  0.36852477846E+03  0.33263596526E+03  0.55398881354E+03  0.00000000000E+00 0. -1.
</event>
<event>
 5    1  0.4866530E-005  0.1724580E+03  0.7818608E-02  0.1080854E+00
         21   -1    0    0  501  502  0.00000000000E+00  0.00000000000E+00  0.39134999055E+03  0.39134999055E+03  0.00000000000E+00 0.  1.
         -4   -1    0    0    0  501 -0.00000000000E+00 -0.00000000000E+00 -0.87824970181E+02  0.87824970181E+02  0.00000000000E+00 0. -1.
        -13    1    1    2    0    0 -0.11705181264E+03  0.12143318551E+03  0.93793389947E+02  0.19298796996E+03  0.10566000000E+00 0.  1.
         13    1    1    2    0    0  0.13217342149E+03 -0.12001506285E+03  0.18449812022E+03  0.25673526480E+03  0.10566000000E+00 0. -1.
         -4    1    1    2    0  502 -0.15121608853E+02 -0.14181226660E+01  0.25233510196E+02  0.29451725977E+02  0.00000000000E+00 0. -1.
</event>
<event>
 5    1  0.4866530E-005  0.4527672E+03  0.7818608E-02  0.9746860E-01
         -4   -1    0    0    0  501 -0.00000000000E+00  0.00000000000E+00  0.25450752322E+04  0.25450752322E+04  0.00000000000E+00 0. -1.
         21   -1    0    0  501  502  0.00000000000E+00 -0.00000000000E+00 -0.18761189401E+03  0.18761189401E+03  0.00000000000E+00 0. -1.
        -13    1    1    2    0    0 -0.51943100391E+02  0.25408764496E+03  0.94934997750E+03  0.98413617347E+03  0.10566000000E+00 0.  1.
         13    1    1    2    0    0 -0.35610143173E+03 -0.40618884344E+03  0.10649515576E+04  0.11941186865E+04  0.10566000000E+00 0. -1.
         -4    1    1    2    0  502  0.40804453212E+03  0.15210119848E+03  0.34316180309E+03  0.55443226626E+03  0.00000000000E+00 0. -1.
</event>
<event>
 5    1  0.4866530E-005  0.1830004E+03  0.7818608E-02  0.1072459E+00
         -4   -1    0    0    0  501 -0.00000000000E+00  0.00000000000E+00  0.11298526859E+04  0.11298526859E+04  0.00000000000E+00 0. -1.
         21   -1    0    0  501  502  0.00000000000E+00 -0.00000000000E+00 -0.59000625963E+02  0.59000625963E+02  0.00000000000E+00 0.  1.
        -13    1    1    2    0    0  0.14973842730E+03 -0.35095196703E+01  0.16154232726E+03  0.22029491142E+03  0.10566000000E+00 0.  1.
         13    1    1    2    0    0 -0.19131646802E+03 -0.46720715734E+02  0.87088116637E+03  0.89287111798E+03  0.10566000000E+00 0. -1.
         -4    1    1    2    0  502  0.41578040720E+02  0.50230235405E+02  0.38428566317E+02  0.75687282473E+02  0.00000000000E+00 0. -1.
</event>
<event>
 5    1  0.5380326E-005  0.3853729E+03  0.7818608E-02  0.9991287E-01
          4   -1    0    0  502    0 -0.00000000000E+00  0.00000000000E+00  0.21727528664E+04  0.21727528664E+04  0.00000000000E+00 0.  1.
         21   -1    0    0  501  502  0.00000000000E+00 -0.00000000000E+00 -0.20281407039E+03  0.20281407039E+03  0.00000000000E+00 0.  1.
        -13    1    1    2    0    0 -0.28720413124E+03 -0.71426653216E+02  0.10681734281E+04  0.11084143916E+04  0.10566000000E+00 0.  1.
         13    1    1    2    0    0 -0.36294277779E+02 -0.18110118983E+03  0.83028625708E+03  0.85058226846E+03  0.10566000000E+00 0. -1.
          4    1    1    2  501    0  0.32349840902E+03  0.25252784305E+03  0.71479110776E+02  0.41657027670E+03  0.00000000000E+00 0.  1.
</event>
<event>
 5    1  0.4866530E-005  0.3576283E+03  0.7818608E-02  0.1015405E+00
         21   -1    0    0  501  502  0.00000000000E+00  0.00000000000E+00  0.10756181822E+04  0.10756181822E+04  0.00000000000E+00 0. -1.
         -4   -1    0    0    0  501 -0.00000000000E+00 -0.00000000000E+00 -0.30211386841E+03  0.30211386841E+03  0.00000000000E+00 0. -1.
        -13    1    1    2    0    0  0.13207152187E+03  0.34871224633E+02  0.89630805252E+02  0.16337864490E+03  0.10566000000E+00 0.  1.
         13    1    1    2    0    0 -0.31073478124E+03 -0.32680298599E+03  0.14985678162E+01  0.45095293855E+03  0.10566000000E+00 0. -1.
         -4    1    1    2    0  502  0.17866325937E+03  0.29193176135E+03  0.68237494070E+03  0.76340046714E+03  0.00000000000E+00 0. -1.
</event>
<event>
 5    1  0.4866530E-005  0.4877225E+02  0.7818608E-02  0.1296870E+00
         -4   -1    0    0    0  501 -0.00000000000E+00  0.00000000000E+00  0.29563954307E+03  0.29563954307E+03  0.00000000000E+00 0. -1.
         21   -1    0    0  501  502  0.00000000000E+00 -0.00000000000E+00 -0.12599950662E+02  0.12599950662E+02  0.00000000000E+00 0. -1.
        -13    1    1    2    0    0  0.31763829417E+01  0.42417215856E+02  0.10402479389E+03  0.11238540171E+03  0.10566000000E+00 0.  1.
         13    1    1    2    0    0  0.60306158576E+01 -0.55772635019E+02  0.16547208456E+03  0.17472257175E+03  0.10566000000E+00 0. -1.
         -4    1    1    2    0  502 -0.92069987993E+01  0.13355419163E+02  0.13542713961E+02  0.21131520279E+02  0.00000000000E+00 0. -1.
</event>
<event>
 5    1  0.4866530E-005  0.4873618E+03  0.7818608E-02  0.9906664E-01
         21   -1    0    0  501  502  0.00000000000E+00  0.00000000000E+00  0.14749830109E+03  0.14749830109E+03  0.00000000000E+00 0.  1.
          4   -1    0    0  502    0 -0.00000000000E+00 -0.00000000000E+00 -0.21330164136E+04  0.21330164136E+04  0.00000000000E+00 0.  1.
        -13    1    1    2    0    0 -0.25486614106E+03  0.35584476583E+03 -0.10754938735E+04  0.11611500034E+04  0.10566000000E+00 0.  1.
         13    1    1    2    0    0  0.29355676016E+02  0.11724056979E+03 -0.24005431727E+03  0.26876233613E+03  0.10566000000E+00 0. -1.
          4    1    1    2  501    0  0.22551046505E+03 -0.47308533562E+03 -0.66996992169E+03  0.85060237514E+03  0.00000000000E+00 0.  1.
</event>
<event>
 5    1  0.4866530E-005  0.2037778E+03  0.7818608E-02  0.1057576E+00
         21   -1    0    0  501  502  0.00000000000E+00  0.00000000000E+00  0.64680016744E+03  0.64680016744E+03  0.00000000000E+00 0.  1.
         -4   -1    0    0    0  501 -0.00000000000E+00 -0.00000000000E+00 -0.85954823269E+02  0.85954823269E+02  0.00000000000E+00 0. -1.
        -13    1    1    2    0    0  0.10215584992E+03 -0.16715336309E+03  0.39044227457E+03  0.43683091168E+03  0.10566000000E+00 0.  1.
         13    1    1    2    0    0 -0.11320947406E+03  0.17341030190E+03  0.11057875356E+03  0.23476624487E+03  0.10566000000E+00 0. -1.
         -4    1    1    2    0  502  0.11053624145E+02 -0.62569388093E+01  0.59824316035E+02  0.61157834160E+02  0.00000000000E+00 0. -1.
</event>
<event>
 5    1  0.4866530E-005  0.4261403E+03  0.7818608E-02  0.9873786E-01
         -4   -1    0    0    0  501 -0.00000000000E+00  0.00000000000E+00  0.20624890694E+04  0.20624890694E+04  0.00000000000E+00 0. -1.
         21   -1    0    0  501  502  0.00000000000E+00 -0.00000000000E+00 -0.18124052738E+03  0.18124052738E+03  0.00000000000E+00 0. -1.
        -13    1    1    2    0    0  0.22646530279E+02  0.20058226069E+03  0.32983718789E+03  0.38670232779E+03  0.10566000000E+00 0.  1.
         13    1    1    2    0    0  0.21026187347E+03 -0.41530955149E+03  0.27235079792E+03  0.53932091309E+03  0.10566000000E+00 0. -1.
         -4    1    1    2    0  502 -0.23290840375E+03  0.21472729080E+03  0.12790605562E+04  0.13177063559E+04  0.00000000000E+00 0. -1.
</event>
<event>
 5    1  0.1057646E-004  0.2181399E+03  0.7818608E-02  0.1082345E+00
         -4   -1    0    0    0  501 -0.00000000000E+00  0.00000000000E+00  0.14802782737E+03  0.14802782737E+03  0.00000000000E+00 0. -1.
         21   -1    0    0  501  502  0.00000000000E+00 -0.00000000000E+00 -0.27973522382E+04  0.27973522382E+04  0.00000000000E+00 0. -1.
        -13    1    1    2    0    0  0.48111506100E+02 -0.66069436627E+02  0.29483873796E+02  0.86886117726E+02  0.10566000000E+00 0.  1.
         13    1    1    2    0    0  0.17040646692E+03  0.32794668038E+02 -0.29874055086E+01  0.17355918292E+03  0.10566000000E+00 0. -1.
         -4    1    1    2    0  502 -0.21851797302E+03  0.33274768589E+02 -0.26758208791E+04  0.26849347649E+04  0.00000000000E+00 0. -1.
</event>
<event>
 5    1  0.4866530E-005  0.4971388E+03  0.7818608E-02  0.9666525E-01
         21   -1    0    0  501  502  0.00000000000E+00  0.00000000000E+00  0.33344324443E+03  0.33344324443E+03  0.00000000000E+00 0.  1.
          4   -1    0    0  502    0 -0.00000000000E+00 -0.00000000000E+00 -0.16941817199E+04  0.16941817199E+04  0.00000000000E+00 0.  1.
        -13    1    1    2    0    0 -0.37490440227E+03  0.22727603445E+02 -0.44416878406E+03  0.58168356921E+03  0.10566000000E+00 0.  1.
         13    1    1    2    0    0 -0.19716174093E+03 -0.16806164960E+03 -0.80446404673E+03  0.84515080536E+03  0.10566000000E+00 0. -1.
          4    1    1    2  501    0  0.57206614320E+03  0.14533404616E+03 -0.11210564468E+03  0.60079058975E+03  0.00000000000E+00 0.  1.
</event>
<event>
 5    1  0.4866530E-005  0.4065500E+03  0.7818608E-02  0.9822328E-01
         21   -1    0    0  501  502  0.00000000000E+00  0.00000000000E+00  0.35936036269E+03  0.35936036269E+03  0.00000000000E+00 0. -1.
          4   -1    0    0  502    0 -0.00000000000E+00 -0.00000000000E+00 -0.18832825337E+04  0.18832825337E+04  0.00000000000E+00 0.  1.
        -13    1    1    2    0    0 -0.21375102031E+02 -0.27808308537E+03 -0.23678151413E+02  0.27990670476E+03  0.10566000000E+00 0.  1.
         13    1    1    2    0    0  0.86517153979E+02 -0.48519359628E+03 -0.49096593182E+03  0.69566198774E+03  0.10566000000E+00 0. -1.
          4    1    1    2  501    0 -0.65142051949E+02  0.76327668165E+03 -0.10092780877E+04  0.12670742039E+04  0.00000000000E+00 0.  1.
</event>
<event>
 5    1  0.4866530E-005  0.1758400E+03  0.7818608E-02  0.1078092E+00
         21   -1    0    0  501  502  0.00000000000E+00  0.00000000000E+00  0.40799694990E+03  0.40799694990E+03  0.00000000000E+00 0. -1.
          4   -1    0    0  502    0 -0.00000000000E+00 -0.00000000000E+00 -0.12713746654E+03  0.12713746654E+03  0.00000000000E+00 0.  1.
        -13    1    1    2    0    0  0.17343360305E+03 -0.10537713010E+02 -0.10293952293E+02  0.17405813592E+03  0.10566000000E+00 0.  1.
         13    1    1    2    0    0 -0.18120061699E+03  0.17041604325E+02  0.20420366727E+03  0.27353834972E+03  0.10566000000E+00 0. -1.
          4    1    1    2  501    0  0.77670139430E+01 -0.65038913159E+01  0.86949768385E+02  0.87537930807E+02  0.00000000000E+00 0.  1.
</event>
<event>
 5    1  0.4866530E-005  0.3351755E+03  0.7818608E-02  0.1026896E+00
         21   -1    0    0  501  502  0.00000000000E+00  0.00000000000E+00  0.67891281649E+02  0.67891281649E+02  0.00000000000E+00 0.  1.
          4   -1    0    0  502    0 -0.00000000000E+00 -0.00000000000E+00 -0.26240629975E+04  0.26240629975E+04  0.00000000000E+00 0.  1.
        -13    1    1    2    0    0  0.31038289910E+03 -0.17425328419E+02 -0.68516017878E+03  0.75238664786E+03  0.10566000000E+00 0.  1.
         13    1    1    2    0    0  0.57574882147E+02 -0.10025472009E+03 -0.60418407824E+03  0.61514574494E+03  0.10566000000E+00 0. -1.
          4    1    1    2  501    0 -0.36795778125E+03  0.11768004850E+03 -0.12668274588E+04  0.13244218864E+04  0.00000000000E+00 0.  1.
</event>
<event>
 5    1  0.4866530E-005  0.1804551E+03  0.7818608E-02  0.1074429E+00
         21   -1    0    0  501  502  0.00000000000E+00  0.00000000000E+00  0.11197236189E+04  0.11197236189E+04  0.00000000000E+00 0. -1.
         -4   -1    0    0    0  501 -0.00000000000E+00 -0.00000000000E+00 -0.10321198433E+03  0.10321198433E+03  0.00000000000E+00 0. -1.
        -13    1    1    2    0    0  0.87779455059E+02  0.13739682446E+03  0.10099771785E+03  0.19179069393E+03  0.10566000000E+00 0.  1.
         13    1    1    2    0    0 -0.23695356292E+03 -0.16761061934E+03  0.76003563754E+03  0.81356898428E+03  0.10566000000E+00 0. -1.
         -4    1    1    2    0  502  0.14917410786E+03  0.30213794878E+02  0.15547827923E+03  0.21757592507E+03  0.00000000000E+00 0. -1.
</event>
<event>
 5    1  0.4866530E-005  0.4732056E+03  0.7818608E-02  0.9637433E-01
         21   -1    0    0  501  502  0.00000000000E+00  0.00000000000E+00  0.62414194953E+03  0.62414194953E+03  0.00000000000E+00 0.  1.
         -4   -1    0    0    0  501 -0.00000000000E+00 -0.00000000000E+00 -0.81931928231E+03  0.81931928231E+03  0.00000000000E+00 0. -1.
        -13    1    1    2    0    0 -0.32755688150E+03  0.58700271056E+02 -0.20018682756E+03  0.38834779455E+03  0.10566000000E+00 0.  1.
         13    1    1    2    0    0 -0.12609458327E+03 -0.36457921275E+03 -0.24137237842E+03  0.45505876821E+03  0.10566000000E+00 0. -1.
         -4    1    1    2    0  502  0.45365146477E+03  0.30587894169E+03  0.24638187319E+03  0.60005466909E+03  0.00000000000E+00 0. -1.
</event>
<event>
 5    1  0.4866530E-005  0.2569309E+03  0.7818608E-02  0.1041734E+00
          4   -1    0    0  502    0 -0.00000000000E+00  0.00000000000E+00  0.94111342093E+03  0.94111342093E+03  0.00000000000E+00 0.  1.
         21   -1    0    0  501  502  0.00000000000E+00 -0.00000000000E+00 -0.71067693412E+03  0.71067693412E+03  0.00000000000E+00 0.  1.
        -13    1    1    2    0    0 -0.17962937019E+03  0.10568327151E+03 -0.57902069256E+03  0.61538657614E+03  0.10566000000E+00 0.  1.
         13    1    1    2    0    0 -0.65629096798E+02 -0.31592652272E+03  0.44004109254E+03  0.54566740822E+03  0.10566000000E+00 0. -1.
          4    1    1    2  501    0  0.24525846699E+03  0.21024325121E+03  0.36941608683E+03  0.49073637069E+03  0.00000000000E+00 0.  1.
</event>
<event>
 5    1  0.4866530E-005  0.4099797E+03  0.7818608E-02  0.9700658E-01
          4   -1    0    0  502    0 -0.00000000000E+00  0.00000000000E+00  0.22352584288E+04  0.22352584288E+04  0.00000000000E+00 0.  1.
         21   -1    0    0  501  502  0.00000000000E+00 -0.00000000000E+00 -0.32217440636E+03  0.32217440636E+03  0.00000000000E+00 0.  1.
        -13    1    1    2    0    0  0.37419822448E+03  0.97523699278E+02  0.12814281568E+04  0.13385041335E+04  0.10566000000E+00 0.  1.
         13    1    1    2    0    0 -0.40283797207E+03 -0.25259657139E+03  0.83542980291E+03  0.96126293301E+03  0.10566000000E+00 0. -1.
          4    1    1    2  501    0  0.28639747591E+02  0.15507287211E+03 -0.20377393730E+03  0.25766576864E+03  0.00000000000E+00 0.  1.
</event>
<event>
 5    1  0.4866530E-005  0.1209665E+03  0.7818608E-02  0.1133885E+00
         21   -1    0    0  501  502  0.00000000000E+00  0.00000000000E+00  0.26794358376E+03  0.26794358376E+03  0.00000000000E+00 0.  1.
          4   -1    0    0  502    0 -0.00000000000E+00 -0.00000000000E+00 -0.97443939239E+02  0.97443939239E+02  0.00000000000E+00 0.  1.
        -13    1    1    2    0    0  0.38025364343E+02 -0.11308708527E+03  0.61973356983E+01  0.11946980924E+03  0.10566000000E+00 0.  1.
         13    1    1    2    0    0 -0.26012065622E+02  0.12118712326E+03  0.54902624986E+02  0.13556273749E+03  0.10566000000E+00 0. -1.
          4    1    1    2  501    0 -0.12013298721E+02 -0.81000379984E+01  0.10939968384E+03  0.11035497626E+03  0.00000000000E+00 0.  1.
</event>
<event>
 5    1  0.4866530E-005  0.3412356E+03  0.7818608E-02  0.9962359E-01
         -4   -1    0    0    0  501 -0.00000000000E+00  0.00000000000E+00  0.24842854096E+04  0.24842854096E+04  0.00000000000E+00 0. -1.
         21   -1    0    0  501  502  0.00000000000E+00 -0.00000000000E+00 -0.20528217591E+03  0.20528217591E+03  0.00000000000E+00 0. -1.
        -13    1    1    2    0    0 -0.20570353593E+03 -0.20813573229E+03  0.10657068793E+04  0.11051541030E+04  0.10566000000E+00 0.  1.
         13    1    1    2    0    0 -0.71658419352E+02 -0.29628150703E+03  0.82915619754E+02  0.31589978100E+03  0.10566000000E+00 0. -1.
         -4    1    1    2    0  502  0.27736195529E+03  0.50441723931E+03  0.11303807347E+04  0.12685137015E+04  0.00000000000E+00 0. -1.
</event>
<event>
 5    1  0.4866530E-005  0.8524913E+03  0.7818608E-02  0.8927101E-01
         21   -1    0    0  501  502  0.00000000000E+00  0.00000000000E+00  0.38325466752E+03  0.38325466752E+03  0.00000000000E+00 0.  1.
          4   -1    0    0  502    0 -0.00000000000E+00 -0.00000000000E+00 -0.27598962976E+04  0.27598962976E+04  0.00000000000E+00 0.  1.
        -13    1    1    2    0    0 -0.87196069700E+03 -0.46960892055E+03 -0.93769953584E+03  0.13638652522E+04  0.10566000000E+00 0.  1.
         13    1    1    2    0    0  0.73519903864E+03  0.26706784351E+03 -0.12305294362E+04  0.14580965551E+04  0.10566000000E+00 0. -1.
          4    1    1    2  501    0  0.13676165836E+03  0.20254107704E+03 -0.20841265797E+03  0.32118915780E+03  0.00000000000E+00 0.  1.
</event>
<event>
 5    1  0.4866530E-005  0.4761754E+03  0.7818608E-02  0.9661586E-01
         -4   -1    0    0    0  501 -0.00000000000E+00  0.00000000000E+00  0.22381172578E+04  0.22381172578E+04  0.00000000000E+00 0. -1.
         21   -1    0    0  501  502  0.00000000000E+00 -0.00000000000E+00 -0.35984410817E+03  0.35984410817E+03  0.00000000000E+00 0. -1.
        -13    1    1    2    0    0  0.68597343394E+01 -0.29989029762E+03  0.14722759724E+04  0.15025238090E+04  0.10566000000E+00 0.  1.
         13    1    1    2    0    0 -0.13225412693E+03  0.57802534522E+03  0.67989714185E+01  0.59300142579E+03  0.10566000000E+00 0. -1.
         -4    1    1    2    0  502  0.12539439259E+03 -0.27813504760E+03  0.39919820584E+03  0.50243613121E+03  0.00000000000E+00 0. -1.
</event>
<event>
 5    1  0.4866530E-005  0.8404669E+02  0.7818608E-02  0.1194044E+00
         21   -1    0    0  501  502  0.00000000000E+00  0.00000000000E+00  0.36880232186E+03  0.36880232186E+03  0.00000000000E+00 0.  1.
         -4   -1    0    0    0  501 -0.00000000000E+00 -0.00000000000E+00 -0.32443434552E+02  0.32443434552E+02  0.00000000000E+00 0. -1.
        -13    1    1    2    0    0 -0.37434481627E+02 -0.79918669359E+02  0.16837416396E+03  0.19010051126E+03  0.10566000000E+00 0.  1.
         13    1    1    2    0    0  0.44824690696E+02  0.69161335518E+02  0.58943321033E+02  0.10132556185E+03  0.10566000000E+00 0. -1.
         -4    1    1    2    0  502 -0.73902090688E+01  0.10757333841E+02  0.10904140231E+03  0.10981968330E+03  0.00000000000E+00 0. -1.
</event>
<event>
 5    1  0.4866530E-005  0.3054454E+03  0.7818608E-02  0.1014796E+00
         21   -1    0    0  501  502  0.00000000000E+00  0.00000000000E+00  0.15161885457E+04  0.15161885457E+04  0.00000000000E+00 0. -1.
         -4   -1    0    0    0  501 -0.00000000000E+00 -0.00000000000E+00 -0.26265892166E+03  0.26265892166E+03  0.00000000000E+00 0. -1.
        -13    1    1    2    0    0 -0.19582530441E+03 -0.10780542296E+03  0.43240077719E+03  0.48676483269E+03  0.10566000000E+00 0.  1.
         13    1    1    2    0    0  0.55885915505E+02  0.37748518446E+03 -0.35424691343E+02  0.38324042057E+03  0.10566000000E+00 0. -1.
         -4    1    1    2    0  502  0.13993938890E+03 -0.26967976150E+03  0.85655353822E+03  0.90884221412E+03  0.00000000000E+00 0. -1.
</event>
<event>
 5    1  0.4866530E-005  0.2000954E+03  0.7818608E-02  0.1098633E+00
         21   -1    0    0  501  502  0.00000000000E+00  0.00000000000E+00  0.71952106786E+03  0.71952106786E+03  0.00000000000E+00 0.  1.
          4   -1    0    0  502    0 -0.00000000000E+00 -0.00000000000E+00 -0.39342915826E+03  0.39342915826E+03  0.00000000000E+00 0.  1.
        -13    1    1    2    0    0  0.84429566993E+02 -0.15578341835E+03 -0.31542184893E+03  0.36178416102E+03  0.10566000000E+00 0.  1.
         13    1    1    2    0    0  0.64545601782E+02  0.20029177641E+02 -0.10786592638E+02  0.68437302776E+02  0.10566000000E+00 0. -1.
          4    1    1    2  501    0 -0.14897516878E+03  0.13575424071E+03  0.65230035117E+03  0.68272876233E+03  0.00000000000E+00 0.  1.
</event>
<event>
 5    1  0.4866530E-005  0.4954934E+03  0.7818608E-02  0.9832713E-01
         21   -1    0    0  501  502  0.00000000000E+00  0.00000000000E+00  0.22320259395E+03  0.22320259395E+03  0.00000000000E+00 0.  1.
          4   -1    0    0  502    0 -0.00000000000E+00 -0.00000000000E+00 -0.19854480045E+04  0.19854480045E+04  0.00000000000E+00 0.  1.
        -13    1    1    2    0    0  0.15674088627E+03  0.48070675803E+03 -0.44142198188E+03  0.67119301985E+03  0.10566000000E+00 0.  1.
         13    1    1    2    0    0 -0.14674785296E+03  0.15012257417E+02 -0.81836132247E+03  0.83155009801E+03  0.10566000000E+00 0. -1.
          4    1    1    2  501    0 -0.99930333130E+01 -0.49571901545E+03 -0.50246210619E+03  0.70590748059E+03  0.00000000000E+00 0.  1.
</event>
<event>
 5    1  0.4866530E-005  0.4969513E+03  0.7818608E-02  0.9710455E-01
         21   -1    0    0  501  502  0.00000000000E+00  0.00000000000E+00  0.36149096039E+03  0.36149096039E+03  0.00000000000E+00 0. -1.
         -4   -1    0    0    0  501 -0.00000000000E+00 -0.00000000000E+00 -0.11562395277E+04  0.11562395277E+04  0.00000000000E+00 0. -1.
        -13    1    1    2    0    0  0.50378415018E+02  0.21670943291E+03 -0.31582545194E+03  0.38632459185E+03  0.10566000000E+00 0.  1.
         13    1    1    2    0    0  0.24131831608E+03  0.29670631832E+03 -0.36767833933E+03  0.53052477923E+03  0.10566000000E+00 0. -1.
         -4    1    1    2    0  502 -0.29169673109E+03 -0.51341575122E+03 -0.11124477600E+03  0.60088111697E+03  0.00000000000E+00 0. -1.
</event>
<event>
 5    1  0.4866530E-005  0.3383062E+03  0.7818608E-02  0.1002862E+00
         21   -1    0    0  501  502  0.00000000000E+00  0.00000000000E+00  0.39808339758E+03  0.39808339758E+03  0.00000000000E+00 0. -1.
         -4   -1    0    0    0  501 -0.00000000000E+00 -0.00000000000E+00 -0.13907062395E+04  0.13907062395E+04  0.00000000000E+00 0. -1.
        -13    1    1    2    0    0  0.23029636421E+03 -0.73140640218E+02 -0.67666719000E+03  0.71851545969E+03  0.10566000000E+00 0.  1.
         13    1    1    2    0    0 -0.36470545290E+02  0.35979890402E+03 -0.54588654860E+03  0.65481103161E+03  0.10566000000E+00 0. -1.
         -4    1    1    2    0  502 -0.19382581892E+03 -0.28665826380E+03  0.22993089666E+03  0.41546314581E+03  0.00000000000E+00 0. -1.
</event>
<event>
 5    1  0.4866530E-005  0.4385369E+03  0.7818608E-02  0.9739973E-01
         21   -1    0    0  501  502  0.00000000000E+00  0.00000000000E+00  0.59345053948E+03  0.59345053948E+03  0.00000000000E+00 0.  1.
          4   -1    0    0  502    0 -0.00000000000E+00 -0.00000000000E+00 -0.85249030240E+03  0.85249030240E+03  0.00000000000E+00 0.  1.
        -13    1    1    2    0    0  0.21915005982E+03 -0.40067763751E+03  0.40841978628E+02  0.45851651694E+03  0.10566000000E+00 0.  1.
         13    1    1    2    0    0  0.20016304908E+03  0.21299159350E+03  0.16350399200E+03  0.33490928874E+03  0.10566000000E+00 0. -1.
          4    1    1    2  501    0 -0.41931310890E+03  0.18768604401E+03 -0.46338573355E+03  0.65251503620E+03  0.00000000000E+00 0.  1.
</event>
<event>
 5    1  0.4866530E-005  0.5037738E+03  0.7818608E-02  0.9799727E-01
         21   -1    0    0  501  502  0.00000000000E+00  0.00000000000E+00  0.86141013416E+03  0.86141013416E+03  0.00000000000E+00 0. -1.
         -4   -1    0    0    0  501 -0.00000000000E+00 -0.00000000000E+00 -0.41489370348E+03  0.41489370348E+03  0.00000000000E+00 0. -1.
        -13    1    1    2    0    0 -0.14638764531E+03 -0.56829380039E+02 -0.13390463896E+02  0.15760151276E+03  0.10566000000E+00 0.  1.
         13    1    1    2    0    0  0.25894112631E+03 -0.43987195024E+03  0.22360161650E+03  0.55725715210E+03  0.10566000000E+00 0. -1.
         -4    1    1    2    0  502 -0.11255348100E+03  0.49670133028E+03  0.23630527808E+03  0.56144517278E+03  0.00000000000E+00 0. -1.
</event>
<event>
 5    1  0.4866530E-005  0.4748642E+03  0.7818608E-02  0.9676507E-01
         -4   -1    0    0    0  501 -0.00000000000E+00  0.00000000000E+00  0.15699943263E+04  0.15699943263E+04  0.00000000000E+00 0. -1.
         21   -1    0    0  501  502  0.00000000000E+00 -0.00000000000E+00 -0.30820420977E+03  0.30820420977E+03  0.00000000000E+00 0. -1.
        -13    1    1    2    0    0 -0.60074128218E+02 -0.28069104722E+03  0.21814453448E+03  0.36053212611E+03  0.10566000000E+00 0.  1.
         13    1    1    2    0    0  0.39768261573E+03  0.36030603602E+03  0.14720091511E+03  0.55645307351E+03  0.10566000000E+00 0. -1.
         -4    1    1    2    0  502 -0.33760848751E+03 -0.79614988795E+02  0.89644466695E+03  0.96121333645E+03  0.00000000000E+00 0. -1.
</event>
<event>
 5    1  0.4866530E-005  0.4831731E+03  0.7818608E-02  0.9672072E-01
          4   -1    0    0  502    0 -0.00000000000E+00  0.00000000000E+00  0.57446814770E+03  0.57446814770E+03  0.00000000000E+00 0.  1.
         21   -1    0    0  501  502  0.00000000000E+00 -0.00000000000E+00 -0.80471991201E+03  0.80471991201E+03  0.00000000000E+00 0.  1.
        -13    1    1    2    0    0  0.30845173657E+03 -0.53725405238E+02  0.15370452373E+03  0.34878931283E+03  0.10566000000E+00 0.  1.
         13    1    1    2    0    0  0.23608709342E+03 -0.14442039696E+03  0.79989799936E+02  0.28808461604E+03  0.10566000000E+00 0. -1.
          4    1    1    2  501    0 -0.54453883000E+03  0.19814580220E+03 -0.46394608798E+03  0.74231413085E+03  0.00000000000E+00 0.  1.
</event>
<event>
 5    1  0.4866530E-005  0.8736395E+02  0.7818608E-02  0.1191094E+00
         21   -1    0    0  501  502  0.00000000000E+00  0.00000000000E+00  0.11089057342E+03  0.11089057342E+03  0.00000000000E+00 0. -1.
         -4   -1    0    0    0  501 -0.00000000000E+00 -0.00000000000E+00 -0.52971883151E+03  0.52971883151E+03  0.00000000000E+00 0. -1.
        -13    1    1    2    0    0  0.56461489157E+02  0.81191697490E+02 -0.29553243222E+03  0.31163989019E+03  0.10566000000E+00 0.  1.
         13    1    1    2    0    0  0.30784826602E+02 -0.76659597625E+02 -0.19766829831E+03  0.21423624058E+03  0.10566000000E+00 0. -1.
         -4    1    1    2    0  502 -0.87246315759E+02 -0.45320998656E+01  0.74372472445E+02  0.11473327416E+03  0.00000000000E+00 0. -1.
</event>
<event>
 5    1  0.4866530E-005  0.3876853E+03  0.7818608E-02  0.9948262E-01
         21   -1    0    0  501  502  0.00000000000E+00  0.00000000000E+00  0.37899879469E+03  0.37899879469E+03  0.00000000000E+00 0. -1.
         -4   -1    0    0    0  501 -0.00000000000E+00 -0.00000000000E+00 -0.11363635214E+04  0.11363635214E+04  0.00000000000E+00 0. -1.
        -13    1    1    2    0    0 -0.13506195098E+03 -0.15959410230E+03 -0.36619560390E+03  0.42167670030E+03  0.10566000000E+00 0.  1.
         13    1    1    2    0    0  0.12170400382E+02 -0.35804933962E+03  0.97504288540E+02  0.37128768589E+03  0.10566000000E+00 0. -1.
         -4    1    1    2    0  502  0.12289155060E+03  0.51764344192E+03 -0.48867341139E+03  0.72239792993E+03  0.00000000000E+00 0. -1.
</event>
<event>
 5    1  0.4866530E-005  0.4595307E+03  0.7818608E-02  0.9702165E-01
         21   -1    0    0  501  502  0.00000000000E+00  0.00000000000E+00  0.15885490524E+03  0.15885490524E+03  0.00000000000E+00 0.  1.
          4   -1    0    0  502    0 -0.00000000000E+00 -0.00000000000E+00 -0.26726878441E+04  0.26726878441E+04  0.00000000000E+00 0.  1.
        -13    1    1    2    0    0 -0.36170344671E+03  0.22749000889E+03 -0.79920032380E+03  0.90625727927E+03  0.10566000000E+00 0.  1.
         13    1    1    2    0    0  0.13987823157E+03  0.25360056570E+03 -0.96377369655E+03  0.10063493011E+04  0.10566000000E+00 0. -1.
          4    1    1    2  501    0  0.22182521514E+03 -0.48109057460E+03 -0.75085891849E+03  0.91893616890E+03  0.00000000000E+00 0.  1.
</event>
<event>
 5    1  0.1079891E-004  0.4499484E+03  0.7818608E-02  0.1008699E+00
          4   -1    0    0  502    0 -0.00000000000E+00  0.00000000000E+00  0.64616947722E+03  0.64616947722E+03  0.00000000000E+00 0.  1.
         21   -1    0    0  501  502  0.00000000000E+00 -0.00000000000E+00 -0.58150003360E+03  0.58150003360E+03  0.00000000000E+00 0.  1.
        -13    1    1    2    0    0 -0.12076144266E+03 -0.37150861776E+03  0.19389411673E+03  0.43611571718E+03  0.10566000000E+00 0.  1.
         13    1    1    2    0    0 -0.45698502963E+02 -0.71683587849E+02  0.19838446826E+03  0.21583164354E+03  0.10566000000E+00 0. -1.
          4    1    1    2  501    0  0.16645994562E+03  0.44319220561E+03 -0.32760914137E+03  0.57572215010E+03  0.00000000000E+00 0.  1.
</event>
<event>
 5    1  0.4866530E-005  0.4934547E+03  0.7818608E-02  0.9873641E-01
         -4   -1    0    0    0  501 -0.00000000000E+00  0.00000000000E+00  0.28390313912E+04  0.28390313912E+04  0.00000000000E+00 0. -1.
         21   -1    0    0  501  502  0.00000000000E+00 -0.00000000000E+00 -0.12632367168E+03  0.12632367168E+03  0.00000000000E+00 0. -1.
        -13    1    1    2    0    0 -0.12264652262E+03  0.43307452559E+02  0.78522718555E+03  0.79592678623E+03  0.10566000000E+00 0.  1.
         13    1    1    2    0    0 -0.77813692779E+02 -0.49515170019E+03  0.98286412462E+03  0.11032914736E+04  0.10566000000E+00 0. -1.
         -4    1    1    2    0  502  0.20046021540E+03  0.45184424763E+03  0.94461640932E+03  0.10661368031E+04  0.00000000000E+00 0. -1.
</event>
<event>
 5    1  0.4866530E-005  0.5024449E+03  0.7818608E-02  0.9753664E-01
          4   -1    0    0  502    0 -0.00000000000E+00  0.00000000000E+00  0.76866554920E+03  0.76866554920E+03  0.00000000000E+00 0.  1.
         21   -1    0    0  501  502  0.00000000000E+00 -0.00000000000E+00 -0.47506906303E+03  0.47506906303E+03  0.00000000000E+00 0.  1.
        -13    1    1    2    0    0 -0.46831327824E+03  0.27277052585E+03  0.11612625944E+03  0.55426203699E+03  0.10566000000E+00 0.  1.
         13    1    1    2    0    0 -0.22641370300E+01 -0.18535780440E+03  0.24436418915E+02  0.18697537726E+03  0.10566000000E+00 0. -1.
          4    1    1    2  501    0  0.47057741527E+03 -0.87412721451E+02  0.15303380781E+03  0.50249719797E+03  0.00000000000E+00 0.  1.
</event>
<event>
 5    1  0.4866530E-005  0.5321284E+03  0.7818608E-02  0.9410203E-01
         21   -1    0    0  501  502  0.00000000000E+00  0.00000000000E+00  0.64011881666E+03  0.64011881666E+03  0.00000000000E+00 0.  1.
          4   -1    0    0  502    0 -0.00000000000E+00 -0.00000000000E+00 -0.15321834066E+04  0.15321834066E+04  0.00000000000E+00 0.  1.
        -13    1    1    2    0    0  0.58063933348E+03 -0.18167243639E+03  0.19726295283E+03  0.63957766803E+03  0.10566000000E+00 0.  1.
         13    1    1    2    0    0 -0.47977588099E+03 -0.26422469949E+03 -0.86415975355E+03  0.10231186044E+04  0.10566000000E+00 0. -1.
          4    1    1    2  501    0 -0.10086345249E+03  0.44589713588E+03 -0.22516778918E+03  0.50960595082E+03  0.00000000000E+00 0.  1.
</event>
<event>
 5    1  0.4866530E-005  0.2049282E+03  0.7818608E-02  0.1056809E+00
         -4   -1    0    0    0  501 -0.00000000000E+00  0.00000000000E+00  0.35442303460E+03  0.35442303460E+03  0.00000000000E+00 0. -1.
         21   -1    0    0  501  502  0.00000000000E+00 -0.00000000000E+00 -0.34260945102E+03  0.34260945102E+03  0.00000000000E+00 0.  1.
        -13    1    1    2    0    0  0.57974074095E+02  0.20791397610E+03 -0.15066097878E+03  0.26322605573E+03  0.10566000000E+00 0.  1.
         13    1    1    2    0    0 -0.67073915986E+02 -0.19176933908E+03  0.26258112351E+03  0.33199886626E+03  0.10566000000E+00 0. -1.
         -4    1    1    2    0  502  0.90998418912E+01 -0.16144637022E+02 -0.10010656115E+03  0.10180756363E+03  0.00000000000E+00 0. -1.
</event>
<event>
 5    1  0.4866530E-005  0.4585411E+03  0.7818608E-02  0.9616197E-01
         -4   -1    0    0    0  501 -0.00000000000E+00  0.00000000000E+00  0.11018662538E+04  0.11018662538E+04  0.00000000000E+00 0. -1.
         21   -1    0    0  501  502  0.00000000000E+00 -0.00000000000E+00 -0.52932213931E+03  0.52932213931E+03  0.00000000000E+00 0. -1.
        -13    1    1    2    0    0  0.32279247171E+03 -0.22638099727E+03  0.15719739375E+03  0.42444595355E+03  0.10566000000E+00 0.  1.
         13    1    1    2    0    0 -0.62878682859E+00 -0.21905531158E+03  0.59046889476E+03  0.62979294356E+03  0.10566000000E+00 0. -1.
         -4    1    1    2    0  502 -0.32216368488E+03  0.44543630885E+03 -0.17512217402E+03  0.57694949600E+03  0.00000000000E+00 0. -1.
</event>
<event>
 5    1  0.4866530E-005  0.4802057E+03  0.7818608E-02  0.9874575E-01
         -4   -1    0    0    0  501 -0.00000000000E+00  0.00000000000E+00  0.52007024393E+03  0.52007024393E+03  0.00000000000E+00 0. -1.
         21   -1    0    0  501  502  0.00000000000E+00 -0.00000000000E+00 -0.65292783893E+03  0.65292783893E+03  0.00000000000E+00 0. -1.
        -13    1    1    2    0    0  0.13774255253E+03 -0.28652501151E+02  0.47469302823E+02  0.14848340808E+03  0.10566000000E+00 0.  1.
         13    1    1    2    0    0 -0.12762003413E+01  0.49060888356E+03  0.45109109928E+02  0.49267996537E+03  0.10566000000E+00 0. -1.
         -4    1    1    2    0  502 -0.13646635219E+03 -0.46195638241E+03 -0.22543600776E+03  0.53183470940E+03  0.00000000000E+00 0. -1.
</event>
<event>
 5    1  0.4866530E-005  0.4874926E+03  0.7818608E-02  0.9811179E-01
         21   -1    0    0  501  502  0.00000000000E+00  0.00000000000E+00  0.24431476289E+03  0.24431476289E+03  0.00000000000E+00 0. -1.
         -4   -1    0    0    0  501 -0.00000000000E+00 -0.00000000000E+00 -0.21149889575E+04  0.21149889575E+04  0.00000000000E+00 0. -1.
        -13    1    1    2    0    0 -0.19162945618E+02 -0.16555412544E+03 -0.99128621463E+03  0.10051983672E+04  0.10566000000E+00 0.  1.
         13    1    1    2    0    0  0.38569454314E+03 -0.20729432805E+03 -0.64866194654E+03  0.78261967206E+03  0.10566000000E+00 0. -1.
         -4    1    1    2    0  502 -0.36653159752E+03  0.37284845349E+03 -0.23072603347E+03  0.57148568116E+03  0.00000000000E+00 0. -1.
</event>
<event>
 5    1  0.4866530E-005  0.4791361E+03  0.7818608E-02  0.9619324E-01
         21   -1    0    0  501  502  0.00000000000E+00  0.00000000000E+00  0.10899515347E+03  0.10899515347E+03  0.00000000000E+00 0.  1.
         -4   -1    0    0    0  501 -0.00000000000E+00 -0.00000000000E+00 -0.50720031643E+04  0.50720031643E+04  0.00000000000E+00 0. -1.
        -13    1    1    2    0    0  0.32120818682E+03 -0.11675112163E+03 -0.59010207649E+03  0.68192814543E+03  0.10566000000E+00 0.  1.
         13    1    1    2    0    0 -0.59768584909E+03  0.35289249036E+03 -0.28188197705E+04  0.29030167746E+04  0.10566000000E+00 0. -1.
         -4    1    1    2    0  502  0.27647766227E+03 -0.23614136874E+03 -0.15540861638E+04  0.15960533977E+04  0.00000000000E+00 0. -1.
</event>
<event>
 5    1  0.4866530E-005  0.7388588E+02  0.7818608E-02  0.1216886E+00
         21   -1    0    0  501  502  0.00000000000E+00  0.00000000000E+00  0.77252990829E+02  0.77252990829E+02  0.00000000000E+00 0.  1.
         -4   -1    0    0    0  501 -0.00000000000E+00 -0.00000000000E+00 -0.88639275653E+02  0.88639275653E+02  0.00000000000E+00 0. -1.
        -13    1    1    2    0    0  0.42274043458E+01  0.66618771175E+02  0.16371786901E+02  0.68731202454E+02  0.10566000000E+00 0.  1.
         13    1    1    2    0    0  0.21527764445E+01 -0.79020635301E+02 -0.21847531037E+02  0.82013541725E+02  0.10566000000E+00 0. -1.
         -4    1    1    2    0  502 -0.63801807902E+01  0.12401864126E+02 -0.59105406881E+01  0.15147522304E+02  0.00000000000E+00 0. -1.
</event>
<event>
 5    1  0.4866530E-005  0.4889036E+03  0.7818608E-02  0.9795265E-01
         21   -1    0    0  501  502  0.00000000000E+00  0.00000000000E+00  0.50744911616E+03  0.50744911616E+03  0.00000000000E+00 0. -1.
         -4   -1    0    0    0  501 -0.00000000000E+00 -0.00000000000E+00 -0.10809388790E+04  0.10809388790E+04  0.00000000000E+00 0. -1.
        -13    1    1    2    0    0 -0.53255149309E+01  0.17435743977E+03 -0.56539307167E+03  0.59169097895E+03  0.10566000000E+00 0.  1.
         13    1    1    2    0    0 -0.23029069068E+03 -0.52422186943E+03  0.28665122815E+02  0.57329230854E+03  0.10566000000E+00 0. -1.
         -4    1    1    2    0  502  0.23561620561E+03  0.34986442965E+03 -0.36761813951E+02  0.42340470763E+03  0.00000000000E+00 0. -1.
</event>
<event>
 5    1  0.4866530E-005  0.4181530E+03  0.7818608E-02  0.9816695E-01
         21   -1    0    0  501  502  0.00000000000E+00  0.00000000000E+00  0.63940875351E+03  0.63940875351E+03  0.00000000000E+00 0.  1.
          4   -1    0    0  502    0 -0.00000000000E+00 -0.00000000000E+00 -0.14211049722E+04  0.14211049722E+04  0.00000000000E+00 0.  1.
        -13    1    1    2    0    0  0.10900295058E+03 -0.16998307556E+03 -0.83100967058E+03  0.85519177555E+03  0.10566000000E+00 0.  1.
         13    1    1    2    0    0 -0.10183584549E+02 -0.25896273077E+03 -0.46255826719E+03  0.53021275262E+03  0.10566000000E+00 0. -1.
          4    1    1    2  501    0 -0.98819366034E+02  0.42894580633E+03  0.51187171905E+03  0.67510919757E+03  0.00000000000E+00 0.  1.
</event>
<event>
 5    1  0.4866530E-005  0.2113470E+03  0.7818608E-02  0.1052624E+00
         -4   -1    0    0    0  501 -0.00000000000E+00  0.00000000000E+00  0.14070818935E+04  0.14070818935E+04  0.00000000000E+00 0. -1.
         21   -1    0    0  501  502  0.00000000000E+00 -0.00000000000E+00 -0.92998749369E+02  0.92998749369E+02  0.00000000000E+00 0.  1.
        -13    1    1    2    0    0  0.21532596777E+02  0.22816368247E+03  0.26203971621E+03  0.34811943749E+03  0.10566000000E+00 0.  1.
         13    1    1    2    0    0 -0.18913441999E+02 -0.20643286585E+03  0.10892465925E+04  0.11087968239E+04  0.10566000000E+00 0. -1.
         -4    1    1    2    0  502 -0.26191547785E+01 -0.21730816618E+02 -0.37203164615E+02  0.43164381381E+02  0.00000000000E+00 0. -1.
</event>
<event>
 5    1  0.4866530E-005  0.4905439E+03  0.7818608E-02  0.9568079E-01
         -4   -1    0    0    0  501 -0.00000000000E+00  0.00000000000E+00  0.20471783603E+04  0.20471783603E+04  0.00000000000E+00 0. -1.
         21   -1    0    0  501  502  0.00000000000E+00 -0.00000000000E+00 -0.38718440439E+03  0.38718440439E+03  0.00000000000E+00 0. -1.
        -13    1    1    2    0    0  0.38008002763E+03  0.40701284641E+02  0.12065004921E+04  0.12656069179E+04  0.10566000000E+00 0.  1.
         13    1    1    2    0    0 -0.55707523163E+03  0.34325302140E+03  0.28179377488E+03  0.71243469393E+03  0.10566000000E+00 0. -1.
         -4    1    1    2    0  502  0.17699520400E+03 -0.38395430604E+03  0.17169968890E+03  0.45632115284E+03  0.00000000000E+00 0. -1.
</event>
<event>
 5    1  0.4866530E-005  0.6885472E+03  0.7818608E-02  0.9139759E-01
         -4   -1    0    0    0  501 -0.00000000000E+00  0.00000000000E+00  0.21348358916E+04  0.21348358916E+04  0.00000000000E+00 0. -1.
         21   -1    0    0  501  502  0.00000000000E+00 -0.00000000000E+00 -0.46715444956E+03  0.46715444956E+03  0.00000000000E+00 0. -1.
        -13    1    1    2    0    0 -0.15654392094E+03  0.61507629813E+03  0.11391579072E+04  0.13040343555E+04  0.10566000000E+00 0.  1.
         13    1    1    2    0    0  0.13848186607E+03 -0.80365818840E+03  0.67489751856E+03  0.10585510771E+04  0.10566000000E+00 0. -1.
         -4    1    1    2    0  502  0.18062054865E+02  0.18858189027E+03 -0.14637398369E+03  0.23940490861E+03  0.00000000000E+00 0. -1.
</event>
<event>
 5    1  0.4866530E-005  0.8635370E+02  0.7818608E-02  0.1207854E+00
         -4   -1    0    0    0  501 -0.00000000000E+00  0.00000000000E+00  0.38017931727E+03  0.38017931727E+03  0.00000000000E+00 0. -1.
         21   -1    0    0  501  502  0.00000000000E+00 -0.00000000000E+00 -0.43148500995E+03  0.43148500995E+03  0.00000000000E+00 0. -1.
        -13    1    1    2    0    0 -0.24115602496E+02  0.51218688498E+02  0.15469996827E+03  0.16473314082E+03  0.10566000000E+00 0.  1.
         13    1    1    2    0    0 -0.77222095566E+02 -0.38694262998E+02 -0.40989814709E+03  0.41889974957E+03  0.10566000000E+00 0. -1.
         -4    1    1    2    0  502  0.10133769806E+03 -0.12524425499E+02  0.20389248614E+03  0.22803143684E+03  0.00000000000E+00 0. -1.
</event>
<event>
 5    1  0.4866530E-005  0.9622670E+03  0.7818608E-02  0.8810875E-01
          4   -1    0    0  502    0 -0.00000000000E+00  0.00000000000E+00  0.12026275218E+04  0.12026275218E+04  0.00000000000E+00 0.  1.
         21   -1    0    0  501  502  0.00000000000E+00 -0.00000000000E+00 -0.11178139296E+04  0.11178139296E+04  0.00000000000E+00 0. -1.
        -13    1    1    2    0    0  0.10270634298E+04 -0.47650511964E+01  0.10037914102E+03  0.10319680119E+04  0.10566000000E+00 0.  1.
         13    1    1    2    0    0 -0.89635846266E+03 -0.22487256557E+03  0.20228728416E+03  0.94601602567E+03  0.10566000000E+00 0. -1.
          4    1    1    2  501    0 -0.13070496711E+03  0.22963761677E+03 -0.21785283297E+03  0.34245741384E+03  0.00000000000E+00 0.  1.
</event>
<event>
 5    1  0.4866530E-005  0.1807117E+03  0.7818608E-02  0.1133536E+00
         21   -1    0    0  501  502  0.00000000000E+00  0.00000000000E+00  0.12136250730E+03  0.12136250730E+03  0.00000000000E+00 0.  1.
          4   -1    0    0  502    0 -0.00000000000E+00 -0.00000000000E+00 -0.33171645020E+03  0.33171645020E+03  0.00000000000E+00 0.  1.
        -13    1    1    2    0    0 -0.17718202781E+03 -0.84933183225E+02 -0.97508715808E+02  0.21935149285E+03  0.10566000000E+00 0.  1.
         13    1    1    2    0    0  0.19864174150E+02  0.30748906323E+02 -0.93651044415E+01  0.37786201185E+02  0.10566000000E+00 0. -1.
          4    1    1    2  501    0  0.15731785366E+03  0.54184276902E+02 -0.10348012265E+03  0.19594126346E+03  0.00000000000E+00 0.  1.
</event>
<event>
 5    1  0.4866530E-005  0.3812885E+03  0.7818608E-02  0.1023501E+00
         21   -1    0    0  501  502  0.00000000000E+00  0.00000000000E+00  0.20199334365E+03  0.20199334365E+03  0.00000000000E+00 0.  1.
          4   -1    0    0  502    0 -0.00000000000E+00 -0.00000000000E+00 -0.16499725857E+04  0.16499725857E+04  0.00000000000E+00 0.  1.
        -13    1    1    2    0    0 -0.32683437231E+03  0.18726390501E+03 -0.66526534267E+02  0.38251048086E+03  0.10566000000E+00 0.  1.
         13    1    1    2    0    0  0.18816043504E+02  0.85254992633E+02 -0.29981640838E+03  0.31226967057E+03  0.10566000000E+00 0. -1.
          4    1    1    2  501    0  0.30801832880E+03 -0.27251889765E+03 -0.10816362994E+04  0.11571857779E+04  0.00000000000E+00 0.  1.
</event>
<event>
 5    1  0.4866530E-005  0.3642264E+03  0.7818608E-02  0.9861919E-01
         21   -1    0    0  501  502  0.00000000000E+00  0.00000000000E+00  0.17017835967E+04  0.17017835967E+04  0.00000000000E+00 0.  1.
          4   -1    0    0  502    0 -0.00000000000E+00 -0.00000000000E+00 -0.35168391281E+03  0.35168391281E+03  0.00000000000E+00 0.  1.
        -13    1    1    2    0    0 -0.27140511352E+03  0.89546209583E+02 -0.48764967151E+02  0.28992635700E+03  0.10566000000E+00 0.  1.
         13    1    1    2    0    0  0.14842974573E+02 -0.37866307331E+03  0.77497188168E+02  0.38679692646E+03  0.10566000000E+00 0. -1.
          4    1    1    2  501    0  0.25656213895E+03  0.28911686373E+03  0.13213674629E+04  0.13767442261E+04  0.00000000000E+00 0.  1.
</event>
<event>
 5    1  0.4866530E-005  0.1687073E+03  0.7818608E-02  0.1104109E+00
         21   -1    0    0  501  502  0.00000000000E+00  0.00000000000E+00  0.29969077897E+03  0.29969077897E+03  0.00000000000E+00 0. -1.
         -4   -1    0    0    0  501 -0.00000000000E+00 -0.00000000000E+00 -0.16837975345E+03  0.16837975345E+03  0.00000000000E+00 0. -1.
        -13    1    1    2    0    0  0.82320296109E+02  0.51767204960E+02  0.36421423397E+02  0.10384125340E+03  0.10566000000E+00 0.  1.
         13    1    1    2    0    0 -0.88872698782E+02 -0.18556921278E+03  0.10285714413E+03  0.23003019928E+03  0.10566000000E+00 0. -1.
         -4    1    1    2    0  502  0.65524026731E+01  0.13380200782E+03 -0.79675420042E+01  0.13419907974E+03  0.00000000000E+00 0. -1.
</event>
<event>
 5    1  0.4866530E-005  0.3766409E+03  0.7818608E-02  0.1000233E+00
         -4   -1    0    0    0  501 -0.00000000000E+00  0.00000000000E+00  0.15483429680E+04  0.15483429680E+04  0.00000000000E+00 0. -1.
         21   -1    0    0  501  502  0.00000000000E+00 -0.00000000000E+00 -0.46018026832E+03  0.46018026832E+03  0.00000000000E+00 0. -1.
        -13    1    1    2    0    0 -0.37507456844E+03 -0.42195898322E+03  0.54602265377E+03  0.78541139857E+03  0.10566000000E+00 0.  1.
         13    1    1    2    0    0 -0.11905166105E+03  0.23261195475E+03  0.63427055016E+03  0.68598889310E+03  0.10566000000E+00 0. -1.
         -4    1    1    2    0  502  0.49412622949E+03  0.18934702848E+03 -0.92130504244E+02  0.53712294466E+03  0.00000000000E+00 0. -1.
</event>
<event>
 5    1  0.4866530E-005  0.1751380E+03  0.7818608E-02  0.1078660E+00
          4   -1    0    0  502    0 -0.00000000000E+00  0.00000000000E+00  0.15342561042E+03  0.15342561042E+03  0.00000000000E+00 0.  1.
         21   -1    0    0  501  502  0.00000000000E+00 -0.00000000000E+00 -0.60007063737E+03  0.60007063737E+03  0.00000000000E+00 0. -1.
        -13    1    1    2    0    0  0.69404821501E+02  0.16332682768E+03  0.21584022796E+02  0.17876958100E+03  0.10566000000E+00 0.  1.
         13    1    1    2    0    0 -0.11116657425E+03 -0.13566060292E+03 -0.97580445207E+02  0.20070814848E+03  0.10566000000E+00 0. -1.
          4    1    1    2  501    0  0.41761752753E+02 -0.27666224767E+02 -0.37064860454E+03  0.37401851830E+03  0.00000000000E+00 0.  1.
</event>
<event>
 5    1  0.4866530E-005  0.4617941E+03  0.7818608E-02  0.9596649E-01
         21   -1    0    0  501  502  0.00000000000E+00  0.00000000000E+00  0.65413829711E+03  0.65413829711E+03  0.00000000000E+00 0.  1.
         -4   -1    0    0    0  501 -0.00000000000E+00 -0.00000000000E+00 -0.86795058120E+03  0.86795058120E+03  0.00000000000E+00 0. -1.
        -13    1    1    2    0    0 -0.22490473858E+03  0.34728106548E+03  0.33166258364E+02  0.41507383890E+03  0.10566000000E+00 0.  1.
         13    1    1    2    0    0  0.50700045792E+03  0.41454831836E+02  0.94889115374E+02  0.51746683256E+03  0.10566000000E+00 0. -1.
         -4    1    1    2    0  502 -0.28209571934E+03 -0.38873589732E+03 -0.34186765783E+03  0.58954820685E+03  0.00000000000E+00 0. -1.
</event>
<event>
 5    1  0.4866530E-005  0.4106637E+02  0.7818608E-02  0.1333151E+00
          4   -1    0    0  502    0 -0.00000000000E+00  0.00000000000E+00  0.33067256583E+02  0.33067256583E+02  0.00000000000E+00 0.  1.
         21   -1    0    0  501  502  0.00000000000E+00 -0.00000000000E+00 -0.70299400962E+03  0.70299400962E+03  0.00000000000E+00 0.  1.
        -13    1    1    2    0    0  0.35631707008E+02 -0.15758007115E+02  0.10830767683E+02  0.40438224803E+02  0.10566000000E+00 0.  1.
         13    1    1    2    0    0 -0.69526512980E+02  0.58720269263E+01 -0.17160325281E+03  0.18524606405E+03  0.10566000000E+00 0. -1.
          4    1    1    2  501    0  0.33894805971E+02  0.98859801890E+01 -0.50915426791E+03  0.51037697735E+03  0.00000000000E+00 0.  1.
</event>
<event>
 5    1  0.4866530E-005  0.2397323E+03  0.7818608E-02  0.1035855E+00
          4   -1    0    0  502    0 -0.00000000000E+00  0.00000000000E+00  0.27041324592E+03  0.27041324592E+03  0.00000000000E+00 0.  1.
         21   -1    0    0  501  502  0.00000000000E+00 -0.00000000000E+00 -0.59695270995E+03  0.59695270995E+03  0.00000000000E+00 0.  1.
        -13    1    1    2    0    0  0.58957042716E+02  0.23718493474E+03  0.24749022427E+01  0.24441514367E+03  0.10566000000E+00 0.  1.
         13    1    1    2    0    0 -0.36844116918E+02 -0.23356737835E+03  0.51316958545E+02  0.24196001856E+03  0.10566000000E+00 0. -1.
          4    1    1    2  501    0 -0.22112925798E+02 -0.36175563845E+01 -0.38033132482E+03  0.38099079364E+03  0.00000000000E+00 0.  1.
</event>
<event>
 5    1  0.4866530E-005  0.2190403E+03  0.7818608E-02  0.1047813E+00
         21   -1    0    0  501  502  0.00000000000E+00  0.00000000000E+00  0.49522081217E+03  0.49522081217E+03  0.00000000000E+00 0. -1.
          4   -1    0    0  502    0 -0.00000000000E+00 -0.00000000000E+00 -0.18990788441E+03  0.18990788441E+03  0.00000000000E+00 0.  1.
        -13    1    1    2    0    0 -0.15312030544E+03  0.17472529757E+03 -0.68921376864E+02  0.24233226137E+03  0.10566000000E+00 0.  1.
         13    1    1    2    0    0  0.99146480140E+02 -0.14317401072E+03  0.27367887903E+03  0.32439013835E+03  0.10566000000E+00 0. -1.
          4    1    1    2  501    0  0.53973825303E+02 -0.31551286850E+02  0.10055542559E+03  0.11840629686E+03  0.00000000000E+00 0.  1.
</event>
<event>
 5    1  0.4866530E-005  0.5026918E+03  0.7818608E-02  0.9599230E-01
          4   -1    0    0  502    0 -0.00000000000E+00  0.00000000000E+00  0.14552348402E+04  0.14552348402E+04  0.00000000000E+00 0.  1.
         21   -1    0    0  501  502  0.00000000000E+00 -0.00000000000E+00 -0.36497990304E+03  0.36497990304E+03  0.00000000000E+00 0.  1.
        -13    1    1    2    0    0 -0.27821376204E+03  0.22123423778E+03  0.38628851037E+03  0.52494410156E+03  0.10566000000E+00 0.  1.
         13    1    1    2    0    0 -0.31697311570E+03  0.23227081296E+02  0.54753550477E+03  0.63309287907E+03  0.10566000000E+00 0. -1.
          4    1    1    2  501    0  0.59518687774E+03 -0.24446131907E+03  0.15643092204E+03  0.66217776263E+03  0.00000000000E+00 0.  1.
</event>
<event>
 5    1  0.4866530E-005  0.1097098E+03  0.7818608E-02  0.1149419E+00
         21   -1    0    0  501  502  0.00000000000E+00  0.00000000000E+00  0.43479594672E+02  0.43479594672E+02  0.00000000000E+00 0. -1.
          4   -1    0    0  502    0 -0.00000000000E+00 -0.00000000000E+00 -0.70742235770E+03  0.70742235770E+03  0.00000000000E+00 0.  1.
        -13    1    1    2    0    0 -0.43312856407E+02 -0.96532398288E+02 -0.50514106844E+03  0.51610272004E+03  0.10566000000E+00 0.  1.
         13    1    1    2    0    0  0.48229264915E+02  0.11422373782E+03 -0.17211113626E+03  0.21212114148E+03  0.10566000000E+00 0. -1.
          4    1    1    2  501    0 -0.49164085085E+01 -0.17691339529E+02  0.13309441669E+02  0.22678090847E+02  0.00000000000E+00 0.  1.
</event>
<event>
 5    1  0.4866530E-005  0.4934175E+03  0.7818608E-02  0.9710959E-01
         21   -1    0    0  501  502  0.00000000000E+00  0.00000000000E+00  0.46086516015E+03  0.46086516015E+03  0.00000000000E+00 0. -1.
         -4   -1    0    0    0  501 -0.00000000000E+00 -0.00000000000E+00 -0.98878284825E+03  0.98878284825E+03  0.00000000000E+00 0. -1.
        -13    1    1    2    0    0 -0.13899543985E+03 -0.17934917755E+03 -0.32491392949E+03  0.39630156766E+03  0.10566000000E+00 0.  1.
         13    1    1    2    0    0  0.42943944694E+03 -0.25034043578E+03 -0.19134634117E+01  0.49708374031E+03  0.10566000000E+00 0. -1.
         -4    1    1    2    0  502 -0.29044400709E+03  0.42968961333E+03 -0.20109029520E+03  0.55626270043E+03  0.00000000000E+00 0. -1.
</event>
<event>
 5    1  0.4866530E-005  0.3598075E+03  0.7818608E-02  0.9852895E-01
         21   -1    0    0  501  502  0.00000000000E+00  0.00000000000E+00  0.64649921536E+03  0.64649921536E+03  0.00000000000E+00 0.  1.
          4   -1    0    0  502    0 -0.00000000000E+00 -0.00000000000E+00 -0.63415248476E+03  0.63415248476E+03  0.00000000000E+00 0.  1.
        -13    1    1    2    0    0  0.20096467076E+03  0.41880323231E+03 -0.33453239202E+03  0.57244639815E+03  0.10566000000E+00 0.  1.
         13    1    1    2    0    0 -0.55107952077E+02 -0.25797598859E+03 -0.37793389881E+02  0.26648986576E+03  0.10566000000E+00 0. -1.
          4    1    1    2  501    0 -0.14585671869E+03 -0.16082724371E+03  0.38467251250E+03  0.44171543620E+03  0.00000000000E+00 0.  1.
</event>
<event>
 5    1  0.4866530E-005  0.4872432E+03  0.7818608E-02  0.9506379E-01
         21   -1    0    0  501  502  0.00000000000E+00  0.00000000000E+00  0.39549387154E+03  0.39549387154E+03  0.00000000000E+00 0.  1.
          4   -1    0    0  502    0 -0.00000000000E+00 -0.00000000000E+00 -0.13352306298E+04  0.13352306298E+04  0.00000000000E+00 0.  1.
        -13    1    1    2    0    0  0.66203099543E+02 -0.65965815495E+03 -0.62765147551E+03  0.91295022737E+03  0.10566000000E+00 0.  1.
         13    1    1    2    0    0  0.14081740190E+03  0.34884713385E+03 -0.20903899216E+03  0.43037329713E+03  0.10566000000E+00 0. -1.
          4    1    1    2  501    0 -0.20702050145E+03  0.31081102110E+03 -0.10304629059E+03  0.38740097684E+03  0.00000000000E+00 0.  1.
</event>
<event>
 5    1  0.4866530E-005  0.5839748E+02  0.7818608E-02  0.1260931E+00
         21   -1    0    0  501  502  0.00000000000E+00  0.00000000000E+00  0.27264676034E+03  0.27264676034E+03  0.00000000000E+00 0.  1.
         -4   -1    0    0    0  501 -0.00000000000E+00 -0.00000000000E+00 -0.23585584967E+03  0.23585584967E+03  0.00000000000E+00 0. -1.
        -13    1    1    2    0    0  0.57646414111E+02  0.14057533678E+02  0.12373053128E+03  0.13722237007E+03  0.10566000000E+00 0.  1.
         13    1    1    2    0    0 -0.52704544107E+02 -0.25168130657E+02 -0.22511632293E+03  0.23256950313E+03  0.10566000000E+00 0. -1.
         -4    1    1    2    0  502 -0.49418700035E+01  0.11110596979E+02  0.13817670232E+03  0.13871073681E+03  0.00000000000E+00 0. -1.
</event>
<event>
 5    1  0.4866530E-005  0.6682346E+02  0.7818608E-02  0.1235317E+00
         21   -1    0    0  501  502  0.00000000000E+00  0.00000000000E+00  0.41045044219E+03  0.41045044219E+03  0.00000000000E+00 0.  1.
          4   -1    0    0  502    0 -0.00000000000E+00 -0.00000000000E+00 -0.13811309752E+03  0.13811309752E+03  0.00000000000E+00 0.  1.
        -13    1    1    2    0    0  0.64799905278E+02  0.13009035383E+02 -0.11394407529E+03  0.13172519191E+03  0.10566000000E+00 0.  1.
         13    1    1    2    0    0 -0.91621909935E+02  0.34108251796E+02  0.19669139127E+03  0.21964849597E+03  0.10566000000E+00 0. -1.
          4    1    1    2  501    0  0.26822004657E+02 -0.47117287179E+02  0.18959002870E+03  0.19718985183E+03  0.00000000000E+00 0.  1.
</event>
<event>
 5    1  0.4866530E-005  0.2766127E+03  0.7818608E-02  0.1018860E+00
         21   -1    0    0  501  502  0.00000000000E+00  0.00000000000E+00  0.43174417526E+03  0.43174417526E+03  0.00000000000E+00 0.  1.
          4   -1    0    0  502    0 -0.00000000000E+00 -0.00000000000E+00 -0.18324654479E+04  0.18324654479E+04  0.00000000000E+00 0.  1.
        -13    1    1    2    0    0  0.14820207117E+03 -0.18027407287E+03 -0.57009445551E+03  0.61601160266E+03  0.10566000000E+00 0.  1.
         13    1    1    2    0    0  0.13860848490E+03  0.22537235215E+03 -0.11711727016E+04  0.12006875186E+04  0.10566000000E+00 0. -1.
          4    1    1    2  501    0 -0.28681055607E+03 -0.45098279285E+02  0.34054588447E+03  0.44751050189E+03  0.00000000000E+00 0.  1.
</event>
<event>
 5    1  0.4866530E-005  0.3438209E+03  0.7818608E-02  0.9907014E-01
         -4   -1    0    0    0  501 -0.00000000000E+00  0.00000000000E+00  0.12394474419E+04  0.12394474419E+04  0.00000000000E+00 0. -1.
         21   -1    0    0  501  502  0.00000000000E+00 -0.00000000000E+00 -0.41783752509E+03  0.41783752509E+03  0.00000000000E+00 0. -1.
        -13    1    1    2    0    0  0.10469957541E+03  0.31516949750E+03  0.46119908982E+03  0.56832950377E+03  0.10566000000E+00 0.  1.
         13    1    1    2    0    0 -0.93511740557E+02 -0.34087578765E+03  0.68093298468E+03  0.76720954701E+03  0.10566000000E+00 0. -1.
         -4    1    1    2    0  502 -0.11187834849E+02  0.25706290152E+02 -0.32052215771E+03  0.32174591619E+03  0.00000000000E+00 0. -1.
</event>
<event>
 5    1  0.4866530E-005  0.4999972E+03  0.7818608E-02  0.9686866E-01
         -4   -1    0    0    0  501 -0.00000000000E+00  0.00000000000E+00  0.59138767020E+03  0.59138767020E+03  0.00000000000E+00 0. -1.
         21   -1    0    0  501  502  0.00000000000E+00 -0.00000000000E+00 -0.92810213270E+03  0.92810213270E+03  0.00000000000E+00 0. -1.
        -13    1    1    2    0    0  0.57330589509E+02 -0.23012095655E+03  0.24291750120E+03  0.33948692860E+03  0.10566000000E+00 0.  1.
         13    1    1    2    0    0 -0.51713169738E+03  0.22530531758E+03 -0.37032730697E+03  0.67478144908E+03  0.10566000000E+00 0. -1.
         -4    1    1    2    0  502  0.45980110787E+03  0.48156389727E+01 -0.20930465673E+03  0.50522142523E+03  0.00000000000E+00 0. -1.
</event>
<event>
 5    1  0.4866530E-005  0.1473237E+03  0.7818608E-02  0.1103781E+00
         21   -1    0    0  501  502  0.00000000000E+00  0.00000000000E+00  0.23387421722E+03  0.23387421722E+03  0.00000000000E+00 0. -1.
         -4   -1    0    0    0  501 -0.00000000000E+00 -0.00000000000E+00 -0.17815353863E+04  0.17815353863E+04  0.00000000000E+00 0. -1.
        -13    1    1    2    0    0 -0.13611239556E+03 -0.47350324929E+02 -0.64040035298E+03  0.65641546353E+03  0.10566000000E+00 0.  1.
         13    1    1    2    0    0  0.22203105209E+03  0.83267438268E+02  0.16103843522E+03  0.28664375651E+03  0.10566000000E+00 0. -1.
         -4    1    1    2    0  502 -0.85918656531E+02 -0.35917113338E+02 -0.10682992514E+04  0.10723503835E+04  0.00000000000E+00 0. -1.
</event>
<event>
 5    1  0.4866530E-005  0.2444484E+02  0.7818608E-02  0.1456022E+00
         21   -1    0    0  501  502  0.00000000000E+00  0.00000000000E+00  0.40823706621E+02  0.40823706621E+02  0.00000000000E+00 0. -1.
         -4   -1    0    0    0  501 -0.00000000000E+00 -0.00000000000E+00 -0.35146904915E+02  0.35146904915E+02  0.00000000000E+00 0. -1.
        -13    1    1    2    0    0 -0.16149564824E+02  0.14442448649E+02 -0.98811017374E+00  0.21688252413E+02  0.10566000000E+00 0.  1.
         13    1    1    2    0    0  0.30047947839E+02 -0.31161307608E+01 -0.78520431163E+01  0.31213061134E+02  0.10566000000E+00 0. -1.
         -4    1    1    2    0  502 -0.13898383015E+02 -0.11326317888E+02  0.14516954996E+02  0.23069297988E+02  0.00000000000E+00 0. -1.
</event>
<event>
 5    1  0.4866530E-005  0.2475452E+03  0.7818608E-02  0.1031673E+00
          4   -1    0    0  502    0 -0.00000000000E+00  0.00000000000E+00  0.13884848629E+04  0.13884848629E+04  0.00000000000E+00 0.  1.
         21   -1    0    0  501  502  0.00000000000E+00 -0.00000000000E+00 -0.13332829206E+03  0.13332829206E+03  0.00000000000E+00 0.  1.
        -13    1    1    2    0    0  0.30798994106E+01  0.25823876727E+03  0.10032269333E+04  0.10359348617E+04  0.10566000000E+00 0.  1.
         13    1    1    2    0    0 -0.14071113568E+02 -0.22459586477E+03  0.33042227949E+03  0.39977517764E+03  0.10566000000E+00 0. -1.
          4    1    1    2  501    0  0.10991214158E+02 -0.33642902500E+02 -0.78492641991E+02  0.86103115646E+02  0.00000000000E+00 0.  1.
</event>
<event>
 5    1  0.4866530E-005  0.4715358E+03  0.7818608E-02  0.9564473E-01
         21   -1    0    0  501  502  0.00000000000E+00  0.00000000000E+00  0.59933759253E+03  0.59933759253E+03  0.00000000000E+00 0. -1.
          4   -1    0    0  502    0 -0.00000000000E+00 -0.00000000000E+00 -0.99488533895E+03  0.99488533895E+03  0.00000000000E+00 0.  1.
        -13    1    1    2    0    0  0.26435948558E+03  0.24361808864E+03 -0.60803790580E+02  0.36459953763E+03  0.10566000000E+00 0.  1.
         13    1    1    2    0    0  0.43577931065E+03 -0.12766624652E+02 -0.20225540825E+03  0.48059739453E+03  0.10566000000E+00 0. -1.
          4    1    1    2  501    0 -0.70013879624E+03 -0.23085146399E+03 -0.13248854759E+03  0.74902599932E+03  0.00000000000E+00 0.  1.
</event>
<event>
 5    1  0.4866530E-005  0.4854575E+03  0.7818608E-02  0.9675238E-01
         21   -1    0    0  501  502  0.00000000000E+00  0.00000000000E+00  0.58150319437E+03  0.58150319437E+03  0.00000000000E+00 0. -1.
         -4   -1    0    0    0  501 -0.00000000000E+00 -0.00000000000E+00 -0.79486608578E+03  0.79486608578E+03  0.00000000000E+00 0. -1.
        -13    1    1    2    0    0  0.24046670814E+03 -0.12247360941E+03 -0.24936555069E+03  0.36743327525E+03  0.10566000000E+00 0.  1.
         13    1    1    2    0    0 -0.42555099984E+03  0.43307443043E+03  0.15792947553E+03  0.62736659631E+03  0.10566000000E+00 0. -1.
         -4    1    1    2    0  502  0.18508429170E+03 -0.31060082102E+03 -0.12192681626E+03  0.38156940859E+03  0.00000000000E+00 0. -1.
</event>
<event>
 5    1  0.4866530E-005  0.4908881E+03  0.7818608E-02  0.9746753E-01
         21   -1    0    0  501  502  0.00000000000E+00  0.00000000000E+00  0.39072809407E+03  0.39072809407E+03  0.00000000000E+00 0.  1.
          4   -1    0    0  502    0 -0.00000000000E+00 -0.00000000000E+00 -0.10660857211E+04  0.10660857211E+04  0.00000000000E+00 0.  1.
        -13    1    1    2    0    0  0.12127684660E+03  0.58036658710E+03 -0.10529079113E+03  0.60217905212E+03  0.10566000000E+00 0.  1.
         13    1    1    2    0    0 -0.75844847979E+02 -0.18891210951E+03 -0.34562876896E+03  0.40112277819E+03  0.10566000000E+00 0. -1.
          4    1    1    2  501    0 -0.45431998620E+02 -0.39145447759E+03 -0.22443806693E+03  0.45351198486E+03  0.00000000000E+00 0.  1.
</event>
<event>
 5    1  0.4866530E-005  0.4998229E+03  0.7818608E-02  0.9748400E-01
         21   -1    0    0  501  502  0.00000000000E+00  0.00000000000E+00  0.50203668492E+03  0.50203668492E+03  0.00000000000E+00 0.  1.
          4   -1    0    0  502    0 -0.00000000000E+00 -0.00000000000E+00 -0.83198072826E+03  0.83198072826E+03  0.00000000000E+00 0.  1.
        -13    1    1    2    0    0  0.65722271469E+02  0.50387146855E+03 -0.27107946418E+02  0.50886218735E+03  0.10566000000E+00 0.  1.
         13    1    1    2    0    0 -0.19149890254E+03 -0.98701242951E+01 -0.24648461235E+03  0.31228820714E+03  0.10566000000E+00 0. -1.
          4    1    1    2  501    0  0.12577663108E+03 -0.49400134426E+03 -0.56351484579E+02  0.51286701870E+03  0.00000000000E+00 0.  1.
</event>
<event>
 5    1  0.4866530E-005  0.4692734E+03  0.7818608E-02  0.9636282E-01
         21   -1    0    0  501  502  0.00000000000E+00  0.00000000000E+00  0.11216441605E+04  0.11216441605E+04  0.00000000000E+00 0. -1.
         -4   -1    0    0    0  501 -0.00000000000E+00 -0.00000000000E+00 -0.47966916853E+03  0.47966916853E+03  0.00000000000E+00 0. -1.
        -13    1    1    2    0    0 -0.33119512463E+03  0.87656975530E+02  0.88660569394E+01  0.34271354521E+03  0.10566000000E+00 0.  1.
         13    1    1    2    0    0  0.21414538600E+03  0.40673972771E+03  0.16940659878E+02  0.45998092304E+03  0.10566000000E+00 0. -1.
         -4    1    1    2    0  502  0.11704973863E+03 -0.49439670324E+03  0.61616827510E+03  0.79861886074E+03  0.00000000000E+00 0. -1.
</event>
<event>
 5    1  0.4866530E-005  0.6425942E+03  0.7818608E-02  0.9210691E-01
          4   -1    0    0  502    0 -0.00000000000E+00  0.00000000000E+00  0.16006286456E+04  0.16006286456E+04  0.00000000000E+00 0.  1.
         21   -1    0    0  501  502  0.00000000000E+00 -0.00000000000E+00 -0.77119172739E+03  0.77119172739E+03  0.00000000000E+00 0. -1.
        -13    1    1    2    0    0 -0.43497851434E+03  0.74187300950E+03 -0.28209349673E+03  0.90507382142E+03  0.10566000000E+00 0.  1.
         13    1    1    2    0    0  0.37071872673E+03 -0.48721800669E+03  0.10180742906E+04  0.11879768654E+04  0.10566000000E+00 0. -1.
          4    1    1    2  501    0  0.64259787619E+02 -0.25465500280E+03  0.93456124378E+02  0.27876968619E+03  0.00000000000E+00 0.  1.
</event>
<event>
 5    1  0.4866530E-005  0.8159268E+02  0.7818608E-02  0.1199222E+00
         -4   -1    0    0    0  501 -0.00000000000E+00  0.00000000000E+00  0.58229731577E+03  0.58229731577E+03  0.00000000000E+00 0. -1.
         21   -1    0    0  501  502  0.00000000000E+00 -0.00000000000E+00 -0.30848462723E+02  0.30848462723E+02  0.00000000000E+00 0. -1.
        -13    1    1    2    0    0 -0.50592275375E+02 -0.59713306725E+02  0.18320831245E+03  0.19922488360E+03  0.10566000000E+00 0.  1.
         13    1    1    2    0    0  0.42802308349E+02  0.72139923202E+02  0.38361148103E+03  0.39267542024E+03  0.10566000000E+00 0. -1.
         -4    1    1    2    0  502  0.77899670267E+01 -0.12426616477E+02 -0.15370940438E+02  0.21245474655E+02  0.00000000000E+00 0. -1.
</event>
<event>
 5    1  0.4866530E-005  0.4848990E+03  0.7818608E-02  0.9677090E-01
         21   -1    0    0  501  502  0.00000000000E+00  0.00000000000E+00  0.55557049583E+03  0.55557049583E+03  0.00000000000E+00 0.  1.
          4   -1    0    0  502    0 -0.00000000000E+00 -0.00000000000E+00 -0.87740168698E+03  0.87740168698E+03  0.00000000000E+00 0.  1.
        -13    1    1    2    0    0  0.39399427012E+03  0.42713647051E+02 -0.19211590938E+03  0.44041398063E+03  0.10566000000E+00 0.  1.
         13    1    1    2    0    0  0.13369572271E+03 -0.23347378974E+03 -0.30308688630E+03  0.40527302967E+03  0.10566000000E+00 0. -1.
          4    1    1    2  501    0 -0.52768999284E+03  0.19076014269E+03  0.17337160453E+03  0.58728517250E+03  0.00000000000E+00 0.  1.
</event>
<event>
 5    1  0.4866530E-005  0.4256476E+03  0.7818608E-02  0.9847787E-01
         21   -1    0    0  501  502  0.00000000000E+00  0.00000000000E+00  0.46765375399E+03  0.46765375399E+03  0.00000000000E+00 0.  1.
          4   -1    0    0  502    0 -0.00000000000E+00 -0.00000000000E+00 -0.11597516412E+04  0.11597516412E+04  0.00000000000E+00 0.  1.
        -13    1    1    2    0    0  0.78115943758E+02  0.59039754294E+03 -0.28285428459E+03  0.65930108209E+03  0.10566000000E+00 0.  1.
         13    1    1    2    0    0 -0.65418467241E+01 -0.22102282533E+03 -0.52892315651E+03  0.57328317761E+03  0.10566000000E+00 0. -1.
          4    1    1    2  501    0 -0.71574097034E+02 -0.36937471761E+03  0.11967955392E+03  0.39482113545E+03  0.00000000000E+00 0.  1.
</event>
<event>
 5    1  0.4866530E-005  0.4702220E+03  0.7818608E-02  0.9791775E-01
         -4   -1    0    0    0  501 -0.00000000000E+00  0.00000000000E+00  0.12648873878E+04  0.12648873878E+04  0.00000000000E+00 0. -1.
         21   -1    0    0  501  502  0.00000000000E+00 -0.00000000000E+00 -0.34432420919E+03  0.34432420919E+03  0.00000000000E+00 0. -1.
        -13    1    1    2    0    0  0.14131307145E+03  0.13928793576E+03  0.41716855194E+03  0.46195251390E+03  0.10566000000E+00 0.  1.
         13    1    1    2    0    0 -0.33158983574E+03  0.31203960891E+03  0.47296288647E+03  0.65651689989E+03  0.10566000000E+00 0. -1.
         -4    1    1    2    0  502  0.19027676429E+03 -0.45132754467E+03  0.30431740252E+02  0.49074218325E+03  0.00000000000E+00 0. -1.
</event>
<event>
 5    1  0.4866530E-005  0.1500147E+03  0.7818608E-02  0.1112844E+00
         21   -1    0    0  501  502  0.00000000000E+00  0.00000000000E+00  0.21617046579E+03  0.21617046579E+03  0.00000000000E+00 0. -1.
         -4   -1    0    0    0  501 -0.00000000000E+00 -0.00000000000E+00 -0.20142759304E+04  0.20142759304E+04  0.00000000000E+00 0. -1.
        -13    1    1    2    0    0  0.58490077640E+02 -0.16550448635E+03 -0.75141965419E+03  0.77165039496E+03  0.10566000000E+00 0.  1.
         13    1    1    2    0    0  0.59673639352E+02 -0.11018907356E+03  0.16689206546E+03  0.20869965942E+03  0.10566000000E+00 0. -1.
         -4    1    1    2    0  502 -0.11816371699E+03  0.27569355991E+03 -0.12135778759E+04  0.12500963418E+04  0.00000000000E+00 0. -1.
</event>
<event>
 5    1  0.4866530E-005  0.3284621E+03  0.7818608E-02  0.1012260E+00
         21   -1    0    0  501  502  0.00000000000E+00  0.00000000000E+00  0.99173347890E+03  0.99173347890E+03  0.00000000000E+00 0.  1.
          4   -1    0    0  502    0 -0.00000000000E+00 -0.00000000000E+00 -0.36274328038E+03  0.36274328038E+03  0.00000000000E+00 0.  1.
        -13    1    1    2    0    0 -0.25912016530E+03  0.74952264927E+02  0.37022095855E+03  0.45806623036E+03  0.10566000000E+00 0.  1.
         13    1    1    2    0    0 -0.19328555494E+03  0.25169090518E+02 -0.17481876321E+03  0.26182895180E+03  0.10566000000E+00 0. -1.
          4    1    1    2  501    0  0.45240572025E+03 -0.10012135544E+03  0.43358800318E+03  0.63458157713E+03  0.00000000000E+00 0.  1.
</event>
<event>
 5    1  0.4866530E-005  0.9781092E+02  0.7818608E-02  0.1168229E+00
         21   -1    0    0  501  502  0.00000000000E+00  0.00000000000E+00  0.18765691471E+03  0.18765691471E+03  0.00000000000E+00 0. -1.
          4   -1    0    0  502    0 -0.00000000000E+00 -0.00000000000E+00 -0.13743206056E+03  0.13743206056E+03  0.00000000000E+00 0.  1.
        -13    1    1    2    0    0 -0.50552490449E+02  0.87952285597E+02 -0.96933280527E+02  0.14031119296E+03  0.10566000000E+00 0.  1.
         13    1    1    2    0    0  0.44851599192E+02 -0.68353549127E+02  0.79223332469E+02  0.11384296728E+03  0.10566000000E+00 0. -1.
          4    1    1    2  501    0  0.57008912569E+01 -0.19598736470E+02  0.67934802208E+02  0.70934815030E+02  0.00000000000E+00 0.  1.
</event>
<event>
 5    1  0.4866530E-005  0.3852573E+03  0.7818608E-02  0.9783792E-01
          4   -1    0    0  502    0 -0.00000000000E+00  0.00000000000E+00  0.13963324862E+04  0.13963324862E+04  0.00000000000E+00 0.  1.
         21   -1    0    0  501  502  0.00000000000E+00 -0.00000000000E+00 -0.38751613188E+03  0.38751613188E+03  0.00000000000E+00 0.  1.
        -13    1    1    2    0    0 -0.32841252209E+03  0.24314919365E+03 -0.97555769463E+02  0.42011124046E+03  0.10566000000E+00 0.  1.
         13    1    1    2    0    0 -0.74856999021E+02 -0.36313669512E+03  0.43678276115E+03  0.57293195167E+03  0.10566000000E+00 0. -1.
          4    1    1    2  501    0  0.40326952111E+03  0.11998750147E+03  0.66958936258E+03  0.79080542591E+03  0.00000000000E+00 0.  1.
</event>
<event>
 5    1  0.4866530E-005  0.4958284E+03  0.7818608E-02  0.9675180E-01
          4   -1    0    0  502    0 -0.00000000000E+00  0.00000000000E+00  0.61118963482E+03  0.61118963482E+03  0.00000000000E+00 0.  1.
         21   -1    0    0  501  502  0.00000000000E+00 -0.00000000000E+00 -0.78235518523E+03  0.78235518523E+03  0.00000000000E+00 0.  1.
        -13    1    1    2    0    0  0.31742843831E+02 -0.54762268543E+03 -0.11984220270E+03  0.56148052365E+03  0.10566000000E+00 0.  1.
         13    1    1    2    0    0  0.21580518635E+03  0.13267932413E+03  0.16536517843E+03  0.30252493271E+03  0.10566000000E+00 0. -1.
          4    1    1    2  501    0 -0.24754803019E+03  0.41494336130E+03 -0.21668852614E+03  0.52953936369E+03  0.00000000000E+00 0.  1.
</event>
<event>
 5    1  0.4866530E-005  0.2726216E+03  0.7818608E-02  0.1019294E+00
         -4   -1    0    0    0  501 -0.00000000000E+00  0.00000000000E+00  0.23635510628E+03  0.23635510628E+03  0.00000000000E+00 0. -1.
         21   -1    0    0  501  502  0.00000000000E+00 -0.00000000000E+00 -0.91196458814E+03  0.91196458814E+03  0.00000000000E+00 0.  1.
        -13    1    1    2    0    0  0.67621045037E+00 -0.27184550877E+03 -0.24068066527E+03  0.36308075093E+03  0.10566000000E+00 0.  1.
         13    1    1    2    0    0  0.15930679087E+02  0.27256125913E+03  0.68538168690E+02  0.28149763453E+03  0.10566000000E+00 0. -1.
         -4    1    1    2    0  502 -0.16606889538E+02 -0.71575036733E+00 -0.50346698528E+03  0.50374130896E+03  0.00000000000E+00 0. -1.
</event>
<event>
 5    1  0.4866530E-005  0.9111962E+02  0.7818608E-02  0.1190024E+00
         21   -1    0    0  501  502  0.00000000000E+00  0.00000000000E+00  0.21897161699E+03  0.21897161699E+03  0.00000000000E+00 0. -1.
          4   -1    0    0  502    0 -0.00000000000E+00 -0.00000000000E+00 -0.20140305425E+03  0.20140305425E+03  0.00000000000E+00 0.  1.
        -13    1    1    2    0    0 -0.36628113948E+02  0.27503462588E+02 -0.16419054417E+03  0.17045998106E+03  0.10566000000E+00 0.  1.
         13    1    1    2    0    0  0.23248981789E+02  0.68526245791E+02  0.58248901416E+02  0.92894064378E+02  0.10566000000E+00 0. -1.
          4    1    1    2  501    0  0.13379132159E+02 -0.96029708379E+02  0.12351020549E+03  0.15702062580E+03  0.00000000000E+00 0.  1.
</event>
<event>
 5    1  0.4866530E-005  0.7159088E+02  0.7818608E-02  0.1222614E+00
         21   -1    0    0  501  502  0.00000000000E+00  0.00000000000E+00  0.53813432308E+02  0.53813432308E+02  0.00000000000E+00 0. -1.
         -4   -1    0    0    0  501 -0.00000000000E+00 -0.00000000000E+00 -0.37054003807E+03  0.37054003807E+03  0.00000000000E+00 0. -1.
        -13    1    1    2    0    0  0.67427126809E+02  0.27226622965E+02 -0.22881677352E+03  0.24009338482E+03  0.10566000000E+00 0.  1.
         13    1    1    2    0    0 -0.70989647893E+02 -0.76763566169E+01 -0.12398364086E+03  0.14307484379E+03  0.10566000000E+00 0. -1.
         -4    1    1    2    0  502  0.35625210844E+01 -0.19550266348E+02  0.36073808623E+02  0.41185241766E+02  0.00000000000E+00 0. -1.
</event>
<event>
 5    1  0.4866530E-005  0.2509830E+03  0.7818608E-02  0.1029885E+00
         -4   -1    0    0    0  501 -0.00000000000E+00  0.00000000000E+00  0.10021841818E+03  0.10021841818E+03  0.00000000000E+00 0. -1.
         21   -1    0    0  501  502  0.00000000000E+00 -0.00000000000E+00 -0.13002015857E+04  0.13002015857E+04  0.00000000000E+00 0.  1.
        -13    1    1    2    0    0 -0.14964266249E+03 -0.19752430259E+03 -0.10296286639E+04  0.10590297320E+04  0.10566000000E+00 0.  1.
         13    1    1    2    0    0  0.16676278437E+03  0.18848137230E+03 -0.10406617611E+03  0.27233221280E+03  0.10566000000E+00 0. -1.
         -4    1    1    2    0  502 -0.17120121878E+02  0.90429302873E+01 -0.66288327521E+02  0.69058059101E+02  0.00000000000E+00 0. -1.
</event>
<event>
 5    1  0.4866530E-005  0.3434802E+03  0.7818608E-02  0.1011423E+00
         21   -1    0    0  501  502  0.00000000000E+00  0.00000000000E+00  0.15814757973E+03  0.15814757973E+03  0.00000000000E+00 0.  1.
          4   -1    0    0  502    0 -0.00000000000E+00 -0.00000000000E+00 -0.25968612776E+04  0.25968612776E+04  0.00000000000E+00 0.  1.
        -13    1    1    2    0    0 -0.20375040278E+03  0.25990197591E+03 -0.12005165854E+03  0.35139105793E+03  0.10566000000E+00 0.  1.
         13    1    1    2    0    0  0.59819460449E+02  0.16454818149E+03 -0.86047559266E+03  0.87810746985E+03  0.10566000000E+00 0. -1.
          4    1    1    2  501    0  0.14393094233E+03 -0.42445015740E+03 -0.14581864467E+04  0.15255103296E+04  0.00000000000E+00 0.  1.
</event>
<event>
 5    1  0.4866530E-005  0.5356767E+03  0.7818608E-02  0.9493260E-01
         21   -1    0    0  501  502  0.00000000000E+00  0.00000000000E+00  0.49067915949E+03  0.49067915949E+03  0.00000000000E+00 0. -1.
         -4   -1    0    0    0  501 -0.00000000000E+00 -0.00000000000E+00 -0.23342417751E+04  0.23342417751E+04  0.00000000000E+00 0. -1.
        -13    1    1    2    0    0  0.29964956345E+03  0.24104992887E+03 -0.15927062453E+04  0.16384773797E+04  0.10566000000E+00 0.  1.
         13    1    1    2    0    0 -0.69330439224E+03 -0.29860868070E+03 -0.10232194340E+03  0.76177944036E+03  0.10566000000E+00 0. -1.
         -4    1    1    2    0  502  0.39365482878E+03  0.57558751830E+02 -0.14853442694E+03  0.42466411448E+03  0.00000000000E+00 0. -1.
</event>
<event>
 5    1  0.4866530E-005  0.2014238E+02  0.7818608E-02  0.1551904E+00
         21   -1    0    0  501  502  0.00000000000E+00  0.00000000000E+00  0.16408058532E+03  0.16408058532E+03  0.00000000000E+00 0.  1.
          4   -1    0    0  502    0 -0.00000000000E+00 -0.00000000000E+00 -0.52428366781E+01  0.52428366781E+01  0.00000000000E+00 0.  1.
        -13    1    1    2    0    0 -0.29227551379E+01  0.24781424629E+02  0.46059416438E+02  0.52384563670E+02  0.10566000000E+00 0.  1.
         13    1    1    2    0    0 -0.68593973470E+01 -0.84341058514E+01  0.27776052400E+02  0.29827935303E+02  0.10566000000E+00 0. -1.
          4    1    1    2  501    0  0.97821524849E+01 -0.16347318777E+02  0.85002279803E+02  0.87110923024E+02  0.00000000000E+00 0.  1.
</event>
<event>
 5    1  0.4866530E-005  0.4633521E+03  0.7818608E-02  0.9890677E-01
         -4   -1    0    0    0  501 -0.00000000000E+00  0.00000000000E+00  0.38255867870E+03  0.38255867870E+03  0.00000000000E+00 0. -1.
         21   -1    0    0  501  502  0.00000000000E+00 -0.00000000000E+00 -0.90294519693E+03  0.90294519693E+03  0.00000000000E+00 0. -1.
        -13    1    1    2    0    0  0.44442009190E+02  0.14155451257E+03  0.13578537669E+01  0.14837326963E+03  0.10566000000E+00 0.  1.
         13    1    1    2    0    0  0.22827299610E+03 -0.48161094738E+03 -0.12438039292E+03  0.54729165779E+03  0.10566000000E+00 0. -1.
         -4    1    1    2    0  502 -0.27271500529E+03  0.34005643481E+03 -0.39736397907E+03  0.58983894821E+03  0.00000000000E+00 0. -1.
</event>
<event>
 5    1  0.4866530E-005  0.1172231E+03  0.7818608E-02  0.1138837E+00
         21   -1    0    0  501  502  0.00000000000E+00  0.00000000000E+00  0.47750945604E+03  0.47750945604E+03  0.00000000000E+00 0. -1.
          4   -1    0    0  502    0 -0.00000000000E+00 -0.00000000000E+00 -0.36590967028E+02  0.36590967028E+02  0.00000000000E+00 0.  1.
        -13    1    1    2    0    0 -0.13866572000E+02  0.11412501815E+03  0.15453250260E+03  0.19260609314E+03  0.10566000000E+00 0.  1.
         13    1    1    2    0    0 -0.89457272598E+01 -0.12139311727E+03  0.22967142952E+03  0.25993324462E+03  0.10566000000E+00 0. -1.
          4    1    1    2  501    0  0.22812299259E+02  0.72680991122E+01  0.56714556882E+02  0.61561085310E+02  0.00000000000E+00 0.  1.
</event>
<event>
 5    1  0.4866530E-005  0.5253551E+03  0.7818608E-02  0.9424066E-01
         21   -1    0    0  501  502  0.00000000000E+00  0.00000000000E+00  0.18911357018E+03  0.18911357018E+03  0.00000000000E+00 0.  1.
          4   -1    0    0  502    0 -0.00000000000E+00 -0.00000000000E+00 -0.37457171550E+04  0.37457171550E+04  0.00000000000E+00 0.  1.
        -13    1    1    2    0    0 -0.59567143889E+03  0.21992315470E+03 -0.19185184744E+04  0.20208670923E+04  0.10566000000E+00 0.  1.
         13    1    1    2    0    0  0.41847924648E+03 -0.18959041369E+03 -0.16694205909E+04  0.17314833309E+04  0.10566000000E+00 0. -1.
          4    1    1    2  501    0  0.17719219241E+03 -0.30332741009E+02  0.31335480556E+02  0.18248030187E+03  0.00000000000E+00 0.  1.
</event>
<event>
 5    1  0.4866530E-005  0.2121850E+03  0.7818608E-02  0.1052089E+00
         21   -1    0    0  501  502  0.00000000000E+00  0.00000000000E+00  0.33406615744E+03  0.33406615744E+03  0.00000000000E+00 0. -1.
         -4   -1    0    0    0  501 -0.00000000000E+00 -0.00000000000E+00 -0.69407811412E+03  0.69407811412E+03  0.00000000000E+00 0. -1.
        -13    1    1    2    0    0 -0.13482860620E+03  0.16013185456E+03 -0.39549209768E+03  0.44747622773E+03  0.10566000000E+00 0.  1.
         13    1    1    2    0    0  0.13381524690E+03 -0.17083725562E+03 -0.22927882395E+03  0.31569079570E+03  0.10566000000E+00 0. -1.
         -4    1    1    2    0  502  0.10133592944E+01  0.10705401054E+02  0.26475896495E+03  0.26497724814E+03  0.00000000000E+00 0. -1.
</event>
<event>
 5    1  0.4866530E-005  0.4175462E+03  0.7818608E-02  0.9739101E-01
          4   -1    0    0  502    0 -0.00000000000E+00  0.00000000000E+00  0.31378406788E+04  0.31378406788E+04  0.00000000000E+00 0.  1.
         21   -1    0    0  501  502  0.00000000000E+00 -0.00000000000E+00 -0.17922362046E+03  0.17922362046E+03  0.00000000000E+00 0.  1.
        -13    1    1    2    0    0 -0.40369419143E+03 -0.50899954813E+02  0.13455218896E+04  0.14056987488E+04  0.10566000000E+00 0.  1.
         13    1    1    2    0    0  0.13617949073E+03 -0.31114528738E+03  0.13454413261E+04  0.13876485927E+04  0.10566000000E+00 0. -1.
          4    1    1    2  501    0  0.26751470069E+03  0.36204524220E+03  0.26765384262E+03  0.52371695786E+03  0.00000000000E+00 0.  1.
</event>
<event>
 5    1  0.4866530E-005  0.1980569E+03  0.7818608E-02  0.1061476E+00
         21   -1    0    0  501  502  0.00000000000E+00  0.00000000000E+00  0.85231750958E+02  0.85231750958E+02  0.00000000000E+00 0. -1.
         -4   -1    0    0    0  501 -0.00000000000E+00 -0.00000000000E+00 -0.10758323396E+04  0.10758323396E+04  0.00000000000E+00 0. -1.
        -13    1    1    2    0    0 -0.17540567578E+03  0.48078915262E+02 -0.49135556930E+03  0.52393610282E+03  0.10566000000E+00 0.  1.
         13    1    1    2    0    0  0.20093902085E+03 -0.93969802416E+02 -0.53119838090E+03  0.57565488350E+03  0.10566000000E+00 0. -1.
         -4    1    1    2    0  502 -0.25533345076E+02  0.45890887154E+02  0.31953361532E+02  0.61473104263E+02  0.00000000000E+00 0. -1.
</event>
<event>
 5    1  0.4866530E-005  0.2080670E+03  0.7818608E-02  0.1054742E+00
         21   -1    0    0  501  502  0.00000000000E+00  0.00000000000E+00  0.93655707096E+03  0.93655707096E+03  0.00000000000E+00 0. -1.
         -4   -1    0    0    0  501 -0.00000000000E+00 -0.00000000000E+00 -0.13312567355E+03  0.13312567355E+03  0.00000000000E+00 0. -1.
        -13    1    1    2    0    0 -0.39125798362E+02 -0.16187283670E+03  0.10250583099E+03  0.19555331731E+03  0.10566000000E+00 0.  1.
         13    1    1    2    0    0 -0.13735789854E+02  0.28909975907E+03  0.19305718796E+03  0.34790577978E+03  0.10566000000E+00 0. -1.
         -4    1    1    2    0  502  0.52861588217E+02 -0.12722692237E+03  0.50786837844E+03  0.52622364742E+03  0.00000000000E+00 0. -1.
</event>
<event>
 5    1  0.4866530E-005  0.4976570E+03  0.7818608E-02  0.9943506E-01
          4   -1    0    0  502    0 -0.00000000000E+00  0.00000000000E+00  0.26664862834E+03  0.26664862834E+03  0.00000000000E+00 0.  1.
         21   -1    0    0  501  502  0.00000000000E+00 -0.00000000000E+00 -0.15364024043E+04  0.15364024043E+04  0.00000000000E+00 0.  1.
        -13    1    1    2    0    0  0.18109692614E+03  0.50707407403E+03 -0.96958291467E+03  0.11090587238E+04  0.10566000000E+00 0.  1.
         13    1    1    2    0    0 -0.34801064523E+02 -0.94190231787E+02  0.68422449971E+02  0.12150949214E+03  0.10566000000E+00 0. -1.
          4    1    1    2  501    0 -0.14629586161E+03 -0.41288384224E+03 -0.36859331122E+03  0.57248281667E+03  0.00000000000E+00 0.  1.
</event>
<event>
 5    1  0.4866530E-005  0.2914373E+02  0.7818608E-02  0.1429088E+00
          4   -1    0    0  502    0 -0.00000000000E+00  0.00000000000E+00  0.13127384857E+02  0.13127384857E+02  0.00000000000E+00 0.  1.
         21   -1    0    0  501  502  0.00000000000E+00 -0.00000000000E+00 -0.17587951486E+03  0.17587951486E+03  0.00000000000E+00 0. -1.
        -13    1    1    2    0    0  0.84542426717E+01 -0.17330215381E+02 -0.13415598103E+02  0.23490424023E+02  0.10566000000E+00 0.  1.
         13    1    1    2    0    0 -0.37423947460E+02  0.14150056785E+02 -0.65437263731E+02  0.76699560618E+02  0.10566000000E+00 0. -1.
          4    1    1    2  501    0  0.28969704788E+02  0.31801585965E+01 -0.83899268171E+02  0.88816915078E+02  0.00000000000E+00 0.  1.
</event>
<event>
 5    1  0.4866530E-005  0.1973111E+03  0.7818608E-02  0.1061995E+00
         21   -1    0    0  501  502  0.00000000000E+00  0.00000000000E+00  0.22418503571E+03  0.22418503571E+03  0.00000000000E+00 0. -1.
          4   -1    0    0  502    0 -0.00000000000E+00 -0.00000000000E+00 -0.52392632452E+03  0.52392632452E+03  0.00000000000E+00 0.  1.
        -13    1    1    2    0    0 -0.64178702053E+01 -0.20095705643E+03 -0.44986314540E+03  0.49274921445E+03  0.10566000000E+00 0.  1.
         13    1    1    2    0    0 -0.54099085512E+01  0.16632270696E+03  0.13979038921E+03  0.21733355480E+03  0.10566000000E+00 0. -1.
          4    1    1    2  501    0  0.11827778756E+02  0.34634349469E+02  0.10331467381E+02  0.38028590977E+02  0.00000000000E+00 0.  1.
</event>
<event>
 5    1  0.4866530E-005  0.4985641E+03  0.7818608E-02  0.9690684E-01
          4   -1    0    0  502    0 -0.00000000000E+00  0.00000000000E+00  0.10348839910E+04  0.10348839910E+04  0.00000000000E+00 0.  1.
         21   -1    0    0  501  502  0.00000000000E+00 -0.00000000000E+00 -0.47348892440E+03  0.47348892440E+03  0.00000000000E+00 0.  1.
        -13    1    1    2    0    0  0.56270608143E+03 -0.11041472615E+03  0.37229327433E+03  0.68368987056E+03  0.10566000000E+00 0.  1.
         13    1    1    2    0    0 -0.18595546320E+03 -0.14537946151E+03 -0.12920030327E+03  0.26908614169E+03  0.10566000000E+00 0. -1.
          4    1    1    2  501    0 -0.37675061824E+03  0.25579418766E+03  0.31830209559E+03  0.55559690319E+03  0.00000000000E+00 0.  1.
</event>
<event>
 5    1  0.4866530E-005  0.1129315E+03  0.7818608E-02  0.1144770E+00
         -4   -1    0    0    0  501 -0.00000000000E+00  0.00000000000E+00  0.14302644909E+03  0.14302644909E+03  0.00000000000E+00 0. -1.
         21   -1    0    0  501  502  0.00000000000E+00 -0.00000000000E+00 -0.24605632201E+03  0.24605632201E+03  0.00000000000E+00 0.  1.
        -13    1    1    2    0    0  0.49060694334E+02  0.52826145873E+02 -0.11822006846E+03  0.13846858549E+03  0.10566000000E+00 0.  1.
         13    1    1    2    0    0 -0.63261261267E+02 -0.10538307750E+03  0.94063937743E+02  0.15477601800E+03  0.10566000000E+00 0. -1.
         -4    1    1    2    0  502  0.14200566934E+02  0.52556931624E+02 -0.78873742197E+02  0.95838167612E+02  0.00000000000E+00 0. -1.
</event>
<event>
 5    1  0.4866530E-005  0.4806072E+03  0.7818608E-02  0.1010891E+00
         -4   -1    0    0    0  501 -0.00000000000E+00  0.00000000000E+00  0.11045075833E+04  0.11045075833E+04  0.00000000000E+00 0. -1.
         21   -1    0    0  501  502  0.00000000000E+00 -0.00000000000E+00 -0.31734935614E+03  0.31734935614E+03  0.00000000000E+00 0. -1.
        -13    1    1    2    0    0 -0.64937992322E+02  0.30692318088E+01  0.29717754775E+03  0.30420530745E+03  0.10566000000E+00 0.  1.
         13    1    1    2    0    0  0.22714138928E+03  0.44141256971E+03  0.39654025081E+03  0.63536009404E+03  0.10566000000E+00 0. -1.
         -4    1    1    2    0  502 -0.16220339696E+03 -0.44448180152E+03  0.93440428593E+02  0.48229153793E+03  0.00000000000E+00 0. -1.
</event>
<event>
 5    1  0.4866530E-005  0.1081769E+03  0.7818608E-02  0.1151692E+00
         21   -1    0    0  501  502  0.00000000000E+00  0.00000000000E+00  0.38187541761E+02  0.38187541761E+02  0.00000000000E+00 0.  1.
          4   -1    0    0  502    0 -0.00000000000E+00 -0.00000000000E+00 -0.10012897528E+04  0.10012897528E+04  0.00000000000E+00 0.  1.
        -13    1    1    2    0    0  0.96950981795E+02 -0.38268148478E+02 -0.38663422409E+03  0.40043723411E+03  0.10566000000E+00 0.  1.
         13    1    1    2    0    0 -0.10734545235E+03  0.29636587602E+02 -0.60089415407E+03  0.61112614821E+03  0.10566000000E+00 0. -1.
          4    1    1    2  501    0  0.10394470551E+02  0.86315608754E+01  0.24426167077E+02  0.27913912289E+02  0.00000000000E+00 0.  1.
</event>
<event>
 5    1  0.4866530E-005  0.3200373E+03  0.7818608E-02  0.1029167E+00
          4   -1    0    0  502    0 -0.00000000000E+00  0.00000000000E+00  0.16040194950E+04  0.16040194950E+04  0.00000000000E+00 0.  1.
         21   -1    0    0  501  502  0.00000000000E+00 -0.00000000000E+00 -0.18960767496E+03  0.18960767496E+03  0.00000000000E+00 0.  1.
        -13    1    1    2    0    0  0.28306305800E+03  0.17134199804E+03  0.90921059107E+01  0.33100672599E+03  0.10566000000E+00 0.  1.
         13    1    1    2    0    0 -0.11986990524E+03  0.30830679745E+02  0.25669211732E+03  0.28497399751E+03  0.10566000000E+00 0. -1.
          4    1    1    2  501    0 -0.16319315276E+03 -0.20217267779E+03  0.11486275968E+04  0.11776464465E+04  0.00000000000E+00 0.  1.
</event>
<event>
 5    1  0.4866530E-005  0.2618970E+03  0.7818608E-02  0.1025362E+00
         21   -1    0    0  501  502  0.00000000000E+00  0.00000000000E+00  0.19735001523E+03  0.19735001523E+03  0.00000000000E+00 0.  1.
          4   -1    0    0  502    0 -0.00000000000E+00 -0.00000000000E+00 -0.27501562096E+04  0.27501562096E+04  0.00000000000E+00 0.  1.
        -13    1    1    2    0    0  0.63368485989E+02 -0.32461317921E+02  0.16345225685E+03  0.17828615653E+03  0.10566000000E+00 0.  1.
         13    1    1    2    0    0  0.45734732469E+02  0.27055049911E+03 -0.12507324396E+04  0.12804768194E+04  0.10566000000E+00 0. -1.
          4    1    1    2  501    0 -0.10910321846E+03 -0.23808918119E+03 -0.14655260117E+04  0.14887432490E+04  0.00000000000E+00 0.  1.
</event>
<event>
 5    1  0.4866530E-005  0.4274092E+03  0.7818608E-02  0.9653069E-01
         -4   -1    0    0    0  501 -0.00000000000E+00  0.00000000000E+00  0.70733192661E+03  0.70733192661E+03  0.00000000000E+00 0. -1.
         21   -1    0    0  501  502  0.00000000000E+00 -0.00000000000E+00 -0.32814749541E+03  0.32814749541E+03  0.00000000000E+00 0.  1.
        -13    1    1    2    0    0 -0.38708351983E+03  0.16046888153E+03  0.40224397988E+02  0.42095359200E+03  0.10566000000E+00 0.  1.
         13    1    1    2    0    0  0.40342433555E+03 -0.15392054536E+03  0.37661524745E+03  0.57295879832E+03  0.10566000000E+00 0. -1.
         -4    1    1    2    0  502 -0.16340815719E+02 -0.65483361743E+01 -0.37655214239E+02  0.41567031701E+02  0.00000000000E+00 0. -1.
</event>
<event>
 5    1  0.4866530E-005  0.4641593E+03  0.7818608E-02  0.9751375E-01
         -4   -1    0    0    0  501 -0.00000000000E+00  0.00000000000E+00  0.21857014330E+04  0.21857014330E+04  0.00000000000E+00 0. -1.
         21   -1    0    0  501  502  0.00000000000E+00 -0.00000000000E+00 -0.17832144226E+03  0.17832144226E+03  0.00000000000E+00 0.  1.
        -13    1    1    2    0    0  0.13503870175E+03 -0.19475610307E+03  0.29460768751E+03  0.37809931415E+03  0.10566000000E+00 0.  1.
         13    1    1    2    0    0 -0.41588002603E+03  0.34816933833E+03  0.52152006153E+03  0.75243688768E+03  0.10566000000E+00 0. -1.
         -4    1    1    2    0  502  0.28084132428E+03 -0.15341323526E+03  0.11912522417E+04  0.12334866734E+04  0.00000000000E+00 0. -1.
</event>
<event>
 5    1  0.4866530E-005  0.5122873E+03  0.7818608E-02  0.9451440E-01
         -4   -1    0    0    0  501 -0.00000000000E+00  0.00000000000E+00  0.16277308258E+04  0.16277308258E+04  0.00000000000E+00 0. -1.
         21   -1    0    0  501  502  0.00000000000E+00 -0.00000000000E+00 -0.41529623037E+03  0.41529623037E+03  0.00000000000E+00 0. -1.
        -13    1    1    2    0    0  0.28667663779E+03 -0.39297131875E+03  0.63367277744E+03  0.79884363429E+03  0.10566000000E+00 0.  1.
         13    1    1    2    0    0 -0.18035211813E+03  0.61007698551E+03  0.21267106249E+02  0.63653210110E+03  0.10566000000E+00 0. -1.
         -4    1    1    2    0  502 -0.10632451966E+03 -0.21710566676E+03  0.55749471178E+03  0.60765132081E+03  0.00000000000E+00 0. -1.
</event>
<event>
 5    1  0.4866530E-005  0.1654804E+03  0.7818608E-02  0.1105273E+00
         -4   -1    0    0    0  501 -0.00000000000E+00  0.00000000000E+00  0.93289974847E+03  0.93289974847E+03  0.00000000000E+00 0. -1.
         21   -1    0    0  501  502  0.00000000000E+00 -0.00000000000E+00 -0.16026380011E+03  0.16026380011E+03  0.00000000000E+00 0. -1.
        -13    1    1    2    0    0  0.96563896790E+02  0.25494392056E+02  0.37734343596E+03  0.39033655993E+03  0.10566000000E+00 0.  1.
         13    1    1    2    0    0  0.45612436557E+02 -0.12121697658E+03  0.49012207594E+03  0.50694547070E+03  0.10566000000E+00 0. -1.
         -4    1    1    2    0  502 -0.14217633335E+03  0.95722584529E+02 -0.94829563539E+02  0.19588151795E+03  0.00000000000E+00 0. -1.
</event>
<event>
 5    1  0.4866530E-005  0.3788984E+03  0.7818608E-02  0.9882532E-01
         21   -1    0    0  501  502  0.00000000000E+00  0.00000000000E+00  0.12978038429E+04  0.12978038429E+04  0.00000000000E+00 0. -1.
         -4   -1    0    0    0  501 -0.00000000000E+00 -0.00000000000E+00 -0.49022087542E+03  0.49022087542E+03  0.00000000000E+00 0. -1.
        -13    1    1    2    0    0  0.23153860859E+03 -0.15539065252E+03 -0.21207249327E+03  0.35033003828E+03  0.10566000000E+00 0.  1.
         13    1    1    2    0    0  0.16595534394E+03 -0.72184529651E+01 -0.12968244910E+03  0.21073877435E+03  0.10566000000E+00 0. -1.
         -4    1    1    2    0  502 -0.39749395253E+03  0.16260910548E+03  0.11493379099E+04  0.12269559057E+04  0.00000000000E+00 0. -1.
</event>
<event>
 5    1  0.4866530E-005  0.3467798E+03  0.7818608E-02  0.1020158E+00
          4   -1    0    0  502    0 -0.00000000000E+00  0.00000000000E+00  0.22550405807E+04  0.22550405807E+04  0.00000000000E+00 0.  1.
         21   -1    0    0  501  502  0.00000000000E+00 -0.00000000000E+00 -0.16513187670E+03  0.16513187670E+03  0.00000000000E+00 0.  1.
        -13    1    1    2    0    0  0.43633588975E+03  0.59808315603E+02  0.13718405054E+04  0.14408027022E+04  0.10566000000E+00 0.  1.
         13    1    1    2    0    0 -0.12056232214E+03  0.45599282866E+02  0.61865605810E+03  0.63194137189E+03  0.10566000000E+00 0. -1.
          4    1    1    2  501    0 -0.31577356762E+03 -0.10540759847E+03  0.99412140469E+02  0.34742838326E+03  0.00000000000E+00 0.  1.
</event>
<event>
 5    1  0.4866530E-005  0.1309274E+03  0.7818608E-02  0.1121608E+00
         21   -1    0    0  501  502  0.00000000000E+00  0.00000000000E+00  0.80216976230E+03  0.80216976230E+03  0.00000000000E+00 0.  1.
         -4   -1    0    0    0  501 -0.00000000000E+00 -0.00000000000E+00 -0.83952422449E+02  0.83952422449E+02  0.00000000000E+00 0. -1.
        -13    1    1    2    0    0  0.75483871998E+02  0.11516225427E+03  0.41673851242E+03  0.43889766306E+03  0.10566000000E+00 0.  1.
         13    1    1    2    0    0 -0.39959913532E+02 -0.12432563366E+03 -0.12429291975E+02  0.13117986254E+03  0.10566000000E+00 0. -1.
         -4    1    1    2    0  502 -0.35523958466E+02  0.91633793838E+01  0.31390811940E+03  0.31604465915E+03  0.00000000000E+00 0. -1.
</event>
<event>
 5    1  0.4866530E-005  0.4170724E+03  0.7818608E-02  0.1005709E+00
         21   -1    0    0  501  502  0.00000000000E+00  0.00000000000E+00  0.22732529056E+03  0.22732529056E+03  0.00000000000E+00 0. -1.
         -4   -1    0    0    0  501 -0.00000000000E+00 -0.00000000000E+00 -0.18936537250E+04  0.18936537250E+04  0.00000000000E+00 0. -1.
        -13    1    1    2    0    0 -0.99927585006E+02 -0.61939330812E+02 -0.69469625225E+03  0.70457426650E+03  0.10566000000E+00 0.  1.
         13    1    1    2    0    0  0.48988285930E+03 -0.22296244444E+02 -0.87946614683E+03  0.10069473933E+04  0.10566000000E+00 0. -1.
         -4    1    1    2    0  502 -0.38995527430E+03  0.84235575255E+02 -0.92166035360E+02  0.40945735573E+03  0.00000000000E+00 0. -1.
</event>
<event>
 5    1  0.1549960E-004  0.1115763E+04  0.7818608E-02  0.8672846E-01
          4   -1    0    0  502    0 -0.00000000000E+00  0.00000000000E+00  0.14520968252E+04  0.14520968252E+04  0.00000000000E+00 0.  1.
         21   -1    0    0  501  502  0.00000000000E+00 -0.00000000000E+00 -0.12237333016E+04  0.12237333016E+04  0.00000000000E+00 0. -1.
        -13    1    1    2    0    0 -0.10342440445E+04 -0.57652121478E+03 -0.36873636997E+03  0.12401628830E+04  0.10566000000E+00 0.  1.
         13    1    1    2    0    0  0.85268342399E+03  0.67795356468E+03  0.43925949547E+03  0.11745803391E+04  0.10566000000E+00 0. -1.
          4    1    1    2  501    0  0.18156062049E+03 -0.10143234990E+03  0.15784039816E+03  0.26108690471E+03  0.00000000000E+00 0.  1.
</event>
<event>
 5    1  0.4866530E-005  0.3060251E+03  0.7818608E-02  0.1004849E+00
         21   -1    0    0  501  502  0.00000000000E+00  0.00000000000E+00  0.38424379744E+03  0.38424379744E+03  0.00000000000E+00 0.  1.
         -4   -1    0    0    0  501 -0.00000000000E+00 -0.00000000000E+00 -0.57163442169E+03  0.57163442169E+03  0.00000000000E+00 0. -1.
        -13    1    1    2    0    0 -0.27471345610E+03 -0.13098341247E+03  0.32785362798E+02  0.30610297039E+03  0.10566000000E+00 0.  1.
         13    1    1    2    0    0  0.26945775294E+03  0.14641073711E+03 -0.38045990790E+03  0.48866485166E+03  0.10566000000E+00 0. -1.
         -4    1    1    2    0  502  0.52557031518E+01 -0.15427324639E+02  0.16028392086E+03  0.16111039708E+03  0.00000000000E+00 0. -1.
</event>
<event>
 5    1  0.4866530E-005  0.4488294E+03  0.7818608E-02  0.9597785E-01
         -4   -1    0    0    0  501 -0.00000000000E+00  0.00000000000E+00  0.64955609966E+03  0.64955609966E+03  0.00000000000E+00 0. -1.
         21   -1    0    0  501  502  0.00000000000E+00 -0.00000000000E+00 -0.81507032215E+03  0.81507032215E+03  0.00000000000E+00 0. -1.
        -13    1    1    2    0    0 -0.81012066599E+02 -0.35464618900E+03  0.11117585600E+03  0.38039053146E+03  0.10566000000E+00 0.  1.
         13    1    1    2    0    0  0.26263746900E+03  0.59547606843E+03  0.33343755152E+02  0.65167630413E+03  0.10566000000E+00 0. -1.
         -4    1    1    2    0  502 -0.18162540240E+03 -0.24082987943E+03 -0.31003383364E+03  0.43255958621E+03  0.00000000000E+00 0. -1.
</event>
<event>
 5    1  0.4891027E-005  0.4892891E+03  0.7818608E-02  0.1006856E+00
         21   -1    0    0  501  502  0.00000000000E+00  0.00000000000E+00  0.68402469509E+03  0.68402469509E+03  0.00000000000E+00 0. -1.
         -4   -1    0    0    0  501 -0.00000000000E+00 -0.00000000000E+00 -0.43740964700E+03  0.43740964700E+03  0.00000000000E+00 0. -1.
        -13    1    1    2    0    0  0.59114193877E+02  0.37789691165E+02 -0.35636942707E+02  0.78692766666E+02  0.10566000000E+00 0.  1.
         13    1    1    2    0    0  0.17775578865E+02  0.47267536409E+03  0.22360017613E+03  0.52319692368E+03  0.10566000000E+00 0. -1.
         -4    1    1    2    0  502 -0.76889772741E+02 -0.51046505526E+03  0.58651814675E+02  0.51954465174E+03  0.00000000000E+00 0. -1.
</event>
<event>
 5    1  0.4866530E-005  0.2437094E+02  0.7818608E-02  0.1456806E+00
         21   -1    0    0  501  502  0.00000000000E+00  0.00000000000E+00  0.27448147480E+03  0.27448147480E+03  0.00000000000E+00 0. -1.
         -4   -1    0    0    0  501 -0.00000000000E+00 -0.00000000000E+00 -0.41525798628E+02  0.41525798628E+02  0.00000000000E+00 0. -1.
        -13    1    1    2    0    0 -0.41082353579E+02 -0.50499843584E+01  0.46882520578E+02  0.62539939378E+02  0.10566000000E+00 0.  1.
         13    1    1    2    0    0  0.23112342043E+02  0.91391677077E+00 -0.29286744096E+02  0.37319433843E+02  0.10566000000E+00 0. -1.
         -4    1    1    2    0  502  0.17970011536E+02  0.41360675877E+01  0.21535989969E+03  0.21614790021E+03  0.00000000000E+00 0. -1.
</event>
<event>
 5    1  0.4866530E-005  0.3364458E+03  0.7818608E-02  0.9933047E-01
         21   -1    0    0  501  502  0.00000000000E+00  0.00000000000E+00  0.46845988648E+03  0.46845988648E+03  0.00000000000E+00 0.  1.
          4   -1    0    0  502    0 -0.00000000000E+00 -0.00000000000E+00 -0.16191188800E+04  0.16191188800E+04  0.00000000000E+00 0.  1.
        -13    1    1    2    0    0  0.20905315303E+03 -0.43293232130E+03 -0.49049380803E+03  0.68681715362E+03  0.10566000000E+00 0.  1.
         13    1    1    2    0    0 -0.63972001860E+02  0.29794207323E+03 -0.97901614792E+03  0.10253460514E+04  0.10566000000E+00 0. -1.
          4    1    1    2  501    0 -0.14508115117E+03  0.13499024807E+03  0.31885096247E+03  0.37541556144E+03  0.00000000000E+00 0.  1.
</event>
<event>
 5    1  0.4866530E-005  0.2601390E+03  0.7818608E-02  0.1025269E+00
         21   -1    0    0  501  502  0.00000000000E+00  0.00000000000E+00  0.13537490131E+04  0.13537490131E+04  0.00000000000E+00 0. -1.
          4   -1    0    0  502    0 -0.00000000000E+00 -0.00000000000E+00 -0.12028751449E+03  0.12028751449E+03  0.00000000000E+00 0.  1.
        -13    1    1    2    0    0  0.64586126758E+02  0.24370634427E+03  0.10950307150E+03  0.27487285031E+03  0.10566000000E+00 0.  1.
         13    1    1    2    0    0 -0.10611591980E+03 -0.26419219814E+03  0.51509162726E+03  0.58853844533E+03  0.10566000000E+00 0. -1.
          4    1    1    2  501    0  0.41529793046E+02  0.20485853873E+02  0.60886679987E+03  0.61062523196E+03  0.00000000000E+00 0.  1.
</event>
<event>
 5    1  0.4866530E-005  0.3223524E+03  0.7818608E-02  0.1030196E+00
         21   -1    0    0  501  502  0.00000000000E+00  0.00000000000E+00  0.16954834009E+03  0.16954834009E+03  0.00000000000E+00 0.  1.
          4   -1    0    0  502    0 -0.00000000000E+00 -0.00000000000E+00 -0.18070408349E+04  0.18070408349E+04  0.00000000000E+00 0.  1.
        -13    1    1    2    0    0 -0.25448267822E+03 -0.34071701229E+03 -0.13653714512E+04  0.14300659869E+04  0.10566000000E+00 0.  1.
         13    1    1    2    0    0  0.69892782180E+02  0.94237970594E+02 -0.19742296703E+03  0.22965547060E+03  0.10566000000E+00 0. -1.
          4    1    1    2  501    0  0.18458989604E+03  0.24647904170E+03 -0.74698076532E+02  0.31686771744E+03  0.00000000000E+00 0.  1.
</event>
<event>
 5    1  0.4866530E-005  0.5299670E+02  0.7818608E-02  0.1280046E+00
          4   -1    0    0  502    0 -0.00000000000E+00  0.00000000000E+00  0.14304807927E+02  0.14304807927E+02  0.00000000000E+00 0.  1.
         21   -1    0    0  501  502  0.00000000000E+00 -0.00000000000E+00 -0.39699062558E+03  0.39699062558E+03  0.00000000000E+00 0.  1.
        -13    1    1    2    0    0  0.27033763653E+02 -0.64100318647E+02 -0.24926298766E+03  0.25878895535E+03  0.10566000000E+00 0.  1.
         13    1    1    2    0    0 -0.28440482818E+02  0.38448102048E+02 -0.79491224744E+02  0.92768440697E+02  0.10566000000E+00 0. -1.
          4    1    1    2  501    0  0.14067191653E+01  0.25652216598E+02 -0.53931605249E+02  0.59738037463E+02  0.00000000000E+00 0.  1.
</event>
<event>
 5    1  0.4866530E-005  0.1191635E+03  0.7818608E-02  0.1136245E+00
         -4   -1    0    0    0  501 -0.00000000000E+00  0.00000000000E+00  0.44400002066E+03  0.44400002066E+03  0.00000000000E+00 0. -1.
         21   -1    0    0  501  502  0.00000000000E+00 -0.00000000000E+00 -0.32416624698E+03  0.32416624698E+03  0.00000000000E+00 0.  1.
        -13    1    1    2    0    0 -0.48271812580E+02 -0.10116981144E+03 -0.29299530646E+03  0.31370648608E+03  0.10566000000E+00 0.  1.
         13    1    1    2    0    0  0.37529307167E+02  0.11332836121E+03  0.42006171500E+03  0.43669625820E+03  0.10566000000E+00 0. -1.
         -4    1    1    2    0  502  0.10742505413E+02 -0.12158549771E+02 -0.72326348611E+01  0.17763523358E+02  0.00000000000E+00 0. -1.
</event>
<event>
 5    1  0.4866530E-005  0.6223900E+03  0.7818608E-02  0.9243873E-01
         21   -1    0    0  501  502  0.00000000000E+00  0.00000000000E+00  0.36861771804E+03  0.36861771804E+03  0.00000000000E+00 0.  1.
         -4   -1    0    0    0  501 -0.00000000000E+00 -0.00000000000E+00 -0.37149919674E+04  0.37149919674E+04  0.00000000000E+00 0. -1.
        -13    1    1    2    0    0 -0.24562135008E+03  0.58773754887E+03 -0.16078323766E+04  0.17294190459E+04  0.10566000000E+00 0.  1.
         13    1    1    2    0    0  0.23475401107E+03 -0.56455043631E+03 -0.20000573561E+04  0.20914244140E+04  0.10566000000E+00 0. -1.
         -4    1    1    2    0  502  0.10867339010E+02 -0.23187112553E+02  0.26151548331E+03  0.26276622549E+03  0.00000000000E+00 0. -1.
</event>
<event>
 5    1  0.4866530E-005  0.1671781E+03  0.7818608E-02  0.1085305E+00
          4   -1    0    0  502    0 -0.00000000000E+00  0.00000000000E+00  0.27562060177E+02  0.27562060177E+02  0.00000000000E+00 0.  1.
         21   -1    0    0  501  502  0.00000000000E+00 -0.00000000000E+00 -0.14041084549E+04  0.14041084549E+04  0.00000000000E+00 0. -1.
        -13    1    1    2    0    0 -0.11776436331E+03  0.13599180437E+03 -0.48223688821E+03  0.51469859494E+03  0.10566000000E+00 0.  1.
         13    1    1    2    0    0  0.86308316228E+02 -0.12697999974E+03 -0.54744904441E+03  0.56857146708E+03  0.10566000000E+00 0. -1.
          4    1    1    2  501    0  0.31456047087E+02 -0.90118046294E+01 -0.34686046211E+03  0.34840045306E+03  0.00000000000E+00 0.  1.
</event>
<event>
 5    1  0.4866530E-005  0.1183696E+03  0.7818608E-02  0.1137299E+00
         21   -1    0    0  501  502  0.00000000000E+00  0.00000000000E+00  0.69573759420E+03  0.69573759420E+03  0.00000000000E+00 0. -1.
          4   -1    0    0  502    0 -0.00000000000E+00 -0.00000000000E+00 -0.37798019357E+02  0.37798019357E+02  0.00000000000E+00 0.  1.
        -13    1    1    2    0    0  0.13358336656E+03 -0.15560024523E+02  0.13464085717E+03  0.19030187011E+03  0.10566000000E+00 0.  1.
         13    1    1    2    0    0 -0.78178403602E+02  0.33434295072E+02  0.35879958103E+03  0.36873685113E+03  0.10566000000E+00 0. -1.
          4    1    1    2  501    0 -0.55404962957E+02 -0.17874270548E+02  0.16449913665E+03  0.17449689231E+03  0.00000000000E+00 0.  1.
</event>
<event>
 5    1  0.4866530E-005  0.3774720E+03  0.7818608E-02  0.9883672E-01
          4   -1    0    0  502    0 -0.00000000000E+00  0.00000000000E+00  0.21571085253E+04  0.21571085253E+04  0.00000000000E+00 0.  1.
         21   -1    0    0  501  502  0.00000000000E+00 -0.00000000000E+00 -0.37709306136E+03  0.37709306136E+03  0.00000000000E+00 0.  1.
        -13    1    1    2    0    0 -0.57782354708E+03  0.13572697030E+03  0.43693066730E+03  0.73702800572E+03  0.10566000000E+00 0.  1.
         13    1    1    2    0    0  0.24544883190E+03 -0.13669190509E+03  0.14269796850E+04  0.14543730053E+04  0.10566000000E+00 0. -1.
          4    1    1    2  501    0  0.33237471517E+03  0.96493479404E+00 -0.83894888336E+02  0.34280057566E+03  0.00000000000E+00 0.  1.
</event>
<event>
 5    1  0.4866530E-005  0.2657655E+03  0.7818608E-02  0.1031343E+00
          4   -1    0    0  502    0 -0.00000000000E+00  0.00000000000E+00  0.99403260331E+03  0.99403260331E+03  0.00000000000E+00 0.  1.
         21   -1    0    0  501  502  0.00000000000E+00 -0.00000000000E+00 -0.39268611205E+03  0.39268611205E+03  0.00000000000E+00 0.  1.
        -13    1    1    2    0    0  0.36427672834E+03 -0.24093869375E+03  0.60810855603E+03  0.74869554295E+03  0.10566000000E+00 0.  1.
         13    1    1    2    0    0 -0.19483000859E+03  0.53657256240E+02  0.21991009529E+03  0.29866083534E+03  0.10566000000E+00 0. -1.
          4    1    1    2  501    0 -0.16944671976E+03  0.18728143751E+03 -0.22667216006E+03  0.33936233706E+03  0.00000000000E+00 0.  1.
</event>
<event>
 5    1  0.4866530E-005  0.3267769E+03  0.7818608E-02  0.9968276E-01
         21   -1    0    0  501  502  0.00000000000E+00  0.00000000000E+00  0.61304192419E+03  0.61304192419E+03  0.00000000000E+00 0.  1.
          4   -1    0    0  502    0 -0.00000000000E+00 -0.00000000000E+00 -0.13851090402E+04  0.13851090402E+04  0.00000000000E+00 0.  1.
        -13    1    1    2    0    0 -0.43715505699E+03  0.18728422368E+02  0.42949806876E+03  0.61312633273E+03  0.10566000000E+00 0.  1.
         13    1    1    2    0    0  0.22435511364E+03 -0.23803012217E+03 -0.89183108481E+03  0.94992433966E+03  0.10566000000E+00 0. -1.
          4    1    1    2  501    0  0.21279994335E+03  0.21930169981E+03 -0.30973410000E+03  0.43510029204E+03  0.00000000000E+00 0.  1.
</event>
<event>
 5    1  0.4866530E-005  0.9010836E+02  0.7818608E-02  0.1182048E+00
          4   -1    0    0  502    0 -0.00000000000E+00  0.00000000000E+00  0.78606115649E+03  0.78606115649E+03  0.00000000000E+00 0.  1.
         21   -1    0    0  501  502  0.00000000000E+00 -0.00000000000E+00 -0.30128039989E+02  0.30128039989E+02  0.00000000000E+00 0. -1.
        -13    1    1    2    0    0 -0.90721446505E+02  0.36266377980E+02  0.51046161655E+03  0.51972752877E+03  0.10566000000E+00 0.  1.
         13    1    1    2    0    0  0.58916476650E+02  0.58537559159E+01  0.16467321408E+02  0.61454060220E+02  0.10566000000E+00 0. -1.
          4    1    1    2  501    0  0.31804969855E+02 -0.42120133896E+02  0.22900417854E+03  0.23500760749E+03  0.00000000000E+00 0.  1.
</event>
<event>
 5    1  0.4866530E-005  0.6366786E+03  0.7818608E-02  0.9220272E-01
         21   -1    0    0  501  502  0.00000000000E+00  0.00000000000E+00  0.57378896693E+03  0.57378896693E+03  0.00000000000E+00 0.  1.
         -4   -1    0    0    0  501 -0.00000000000E+00 -0.00000000000E+00 -0.14263968081E+04  0.14263968081E+04  0.00000000000E+00 0. -1.
        -13    1    1    2    0    0  0.48143993380E+03 -0.32245605763E+03 -0.58338715631E+03  0.82225476847E+03  0.10566000000E+00 0.  1.
         13    1    1    2    0    0 -0.49660023901E+03  0.65025666703E+03 -0.20626674929E+03  0.84379589560E+03  0.10566000000E+00 0. -1.
         -4    1    1    2    0  502  0.15160305202E+02 -0.32780060941E+03 -0.62953935596E+02  0.33413511098E+03  0.00000000000E+00 0. -1.
</event>
<event>
 5    1  0.4866530E-005  0.1060493E+03  0.7818608E-02  0.1154917E+00
         -4   -1    0    0    0  501 -0.00000000000E+00  0.00000000000E+00  0.53379699087E+03  0.53379699087E+03  0.00000000000E+00 0. -1.
         21   -1    0    0  501  502  0.00000000000E+00 -0.00000000000E+00 -0.14011712833E+03  0.14011712833E+03  0.00000000000E+00 0.  1.
        -13    1    1    2    0    0 -0.78250066150E+02 -0.48197045490E+02  0.65367927009E+02  0.11277856663E+03  0.10566000000E+00 0.  1.
         13    1    1    2    0    0  0.98282645998E+02  0.49856557125E+02  0.43696028026E+03  0.45064337616E+03  0.10566000000E+00 0. -1.
         -4    1    1    2    0  502 -0.20032579848E+02 -0.16595116351E+01 -0.10864834473E+03  0.11049217640E+03  0.00000000000E+00 0. -1.
</event>
<event>
 5    1  0.4866530E-005  0.5019807E+03  0.7818608E-02  0.9710371E-01
         21   -1    0    0  501  502  0.00000000000E+00  0.00000000000E+00  0.13371630458E+03  0.13371630458E+03  0.00000000000E+00 0.  1.
          4   -1    0    0  502    0 -0.00000000000E+00 -0.00000000000E+00 -0.31165342788E+04  0.31165342788E+04  0.00000000000E+00 0.  1.
        -13    1    1    2    0    0 -0.34876875879E+03 -0.35037984360E+03 -0.13082295492E+04  0.13985243103E+04  0.10566000000E+00 0.  1.
         13    1    1    2    0    0  0.16332856786E+03 -0.14124398556E+03 -0.82496047227E+03  0.85275194313E+03  0.10566000000E+00 0. -1.
          4    1    1    2  501    0  0.18544019092E+03  0.49162382917E+03 -0.84962795271E+03  0.99897432992E+03  0.00000000000E+00 0.  1.
</event>
<event>
 5    1  0.4866530E-005  0.3904515E+03  0.7818608E-02  0.9891837E-01
         21   -1    0    0  501  502  0.00000000000E+00  0.00000000000E+00  0.21530316136E+03  0.21530316136E+03  0.00000000000E+00 0.  1.
          4   -1    0    0  502    0 -0.00000000000E+00 -0.00000000000E+00 -0.22573079503E+04  0.22573079503E+04  0.00000000000E+00 0.  1.
        -13    1    1    2    0    0  0.17626078426E+03  0.42263933088E+03 -0.10690802720E+04  0.11630238635E+04  0.10566000000E+00 0.  1.
         13    1    1    2    0    0 -0.24369732633E+03 -0.40202851571E+02 -0.87486427429E+03  0.90906114521E+03  0.10566000000E+00 0. -1.
          4    1    1    2  501    0  0.67436542072E+02 -0.38243647931E+03 -0.98060242672E+02  0.40052610290E+03  0.00000000000E+00 0.  1.
</event>
<event>
 5    1  0.4866530E-005  0.1387553E+03  0.7818608E-02  0.1112764E+00
         21   -1    0    0  501  502  0.00000000000E+00  0.00000000000E+00  0.35569253675E+03  0.35569253675E+03  0.00000000000E+00 0.  1.
          4   -1    0    0  502    0 -0.00000000000E+00 -0.00000000000E+00 -0.73913245854E+02  0.73913245854E+02  0.00000000000E+00 0.  1.
        -13    1    1    2    0    0  0.13066745771E+03 -0.79774539209E+02  0.13169118238E+03  0.20194192307E+03  0.10566000000E+00 0.  1.
         13    1    1    2    0    0 -0.11542316931E+03  0.57859036503E+02  0.78127295418E+02  0.15091077355E+03  0.10566000000E+00 0. -1.
          4    1    1    2  501    0 -0.15244288395E+02  0.21915502706E+02  0.71960813100E+02  0.76753085994E+02  0.00000000000E+00 0.  1.
</event>
<event>
 5    1  0.4866530E-005  0.2003363E+03  0.7818608E-02  0.1059906E+00
         21   -1    0    0  501  502  0.00000000000E+00  0.00000000000E+00  0.10980774318E+03  0.10980774318E+03  0.00000000000E+00 0.  1.
          4   -1    0    0  502    0 -0.00000000000E+00 -0.00000000000E+00 -0.55431112689E+03  0.55431112689E+03  0.00000000000E+00 0.  1.
        -13    1    1    2    0    0 -0.85685777419E+02  0.18439830261E+03 -0.21009508481E+03  0.29237773904E+03  0.10566000000E+00 0.  1.
         13    1    1    2    0    0  0.10829669340E+03 -0.16672369322E+03 -0.26402137745E+03  0.33050304476E+03  0.10566000000E+00 0. -1.
          4    1    1    2  501    0 -0.22610915985E+02 -0.17674609392E+02  0.29613078543E+02  0.41238086275E+02  0.00000000000E+00 0.  1.
</event>
<event>
 5    1  0.4866530E-005  0.6537017E+03  0.7818608E-02  0.9218927E-01
         21   -1    0    0  501  502  0.00000000000E+00  0.00000000000E+00  0.55058677382E+03  0.55058677382E+03  0.00000000000E+00 0.  1.
         -4   -1    0    0    0  501 -0.00000000000E+00 -0.00000000000E+00 -0.20907752901E+04  0.20907752901E+04  0.00000000000E+00 0. -1.
        -13    1    1    2    0    0  0.48095607858E+03 -0.49103693030E+03 -0.46854663355E+03  0.83184852913E+03  0.10566000000E+00 0.  1.
         13    1    1    2    0    0  0.44250981295E+03  0.17962654937E+03 -0.43047987888E+03  0.64295689519E+03  0.10566000000E+00 0. -1.
         -4    1    1    2    0  502 -0.92346589152E+03  0.31141038093E+03 -0.64116200382E+03  0.11665566396E+04  0.00000000000E+00 0. -1.
</event>
<event>
 5    1  0.4866530E-005  0.1947587E+03  0.7818608E-02  0.1063790E+00
         -4   -1    0    0    0  501 -0.00000000000E+00  0.00000000000E+00  0.12450889563E+04  0.12450889563E+04  0.00000000000E+00 0. -1.
         21   -1    0    0  501  502  0.00000000000E+00 -0.00000000000E+00 -0.94332379382E+02  0.94332379382E+02  0.00000000000E+00 0. -1.
        -13    1    1    2    0    0  0.11907929467E+03 -0.12887266662E+03  0.26528405196E+03  0.31806238698E+03  0.10566000000E+00 0.  1.
         13    1    1    2    0    0 -0.11726366529E+03  0.16592415969E+03  0.93649185949E+03  0.95827898235E+03  0.10566000000E+00 0. -1.
         -4    1    1    2    0  502 -0.18156293844E+01 -0.37051493068E+02 -0.51019334577E+02  0.63079966307E+02  0.00000000000E+00 0. -1.
</event>
<event>
 5    1  0.4866530E-005  0.1705654E+03  0.7818608E-02  0.1095818E+00
          4   -1    0    0  502    0 -0.00000000000E+00  0.00000000000E+00  0.14546991257E+03  0.14546991257E+03  0.00000000000E+00 0.  1.
         21   -1    0    0  501  502  0.00000000000E+00 -0.00000000000E+00 -0.64139064257E+03  0.64139064257E+03  0.00000000000E+00 0.  1.
        -13    1    1    2    0    0  0.22169150582E+03  0.57306965749E+02 -0.47868940263E+02  0.23392874702E+03  0.10566000000E+00 0.  1.
         13    1    1    2    0    0 -0.10328433987E+03  0.56661180325E+02 -0.61495383689E+02  0.13289032169E+03  0.10566000000E+00 0. -1.
          4    1    1    2  501    0 -0.11840716594E+03 -0.11396814607E+03 -0.38655640605E+03  0.42004148643E+03  0.00000000000E+00 0.  1.
</event>
<event>
 5    1  0.4866530E-005  0.2639770E+03  0.7818608E-02  0.1023394E+00
         -4   -1    0    0    0  501 -0.00000000000E+00  0.00000000000E+00  0.23556656414E+04  0.23556656414E+04  0.00000000000E+00 0. -1.
         21   -1    0    0  501  502  0.00000000000E+00 -0.00000000000E+00 -0.36285890116E+02  0.36285890116E+02  0.00000000000E+00 0.  1.
        -13    1    1    2    0    0  0.15242056500E+03 -0.21537609755E+03  0.93602105525E+03  0.97249900724E+03  0.10566000000E+00 0.  1.
         13    1    1    2    0    0 -0.19185516994E+03  0.18448411230E+03  0.12143129536E+04  0.12431406816E+04  0.10566000000E+00 0. -1.
         -4    1    1    2    0  502  0.39434604937E+02  0.30891985251E+02  0.16904574246E+03  0.17631184266E+03  0.00000000000E+00 0. -1.
</event>
<event>
 5    1  0.4866530E-005  0.1895551E+03  0.7818608E-02  0.1067542E+00
         21   -1    0    0  501  502  0.00000000000E+00  0.00000000000E+00  0.14983501526E+03  0.14983501526E+03  0.00000000000E+00 0. -1.
         -4   -1    0    0    0  501 -0.00000000000E+00 -0.00000000000E+00 -0.14141197732E+04  0.14141197732E+04  0.00000000000E+00 0. -1.
        -13    1    1    2    0    0  0.19636427391E+03  0.40569791051E+02 -0.52616907753E+03  0.56307969714E+03  0.10566000000E+00 0.  1.
         13    1    1    2    0    0 -0.18030364496E+03 -0.35617502025E+02 -0.85919649542E+03  0.87863339326E+03  0.10566000000E+00 0. -1.
         -4    1    1    2    0  502 -0.16060628954E+02 -0.49522890257E+01  0.12108081504E+03  0.12224169804E+03  0.00000000000E+00 0. -1.
</event>
<event>
 5    1  0.4866530E-005  0.4431535E+03  0.7818608E-02  0.9630619E-01
         21   -1    0    0  501  502  0.00000000000E+00  0.00000000000E+00  0.68059254406E+03  0.68059254406E+03  0.00000000000E+00 0. -1.
         -4   -1    0    0    0  501 -0.00000000000E+00 -0.00000000000E+00 -0.88174498404E+03  0.88174498404E+03  0.00000000000E+00 0. -1.
        -13    1    1    2    0    0  0.19706940251E+03 -0.36526819700E+03 -0.23311953538E+03  0.47602724091E+03  0.10566000000E+00 0.  1.
         13    1    1    2    0    0 -0.54848819464E+02 -0.16569354409E+03 -0.36747951114E+03  0.40682176173E+03  0.10566000000E+00 0. -1.
         -4    1    1    2    0  502 -0.14222058305E+03  0.53096174110E+03  0.39944660654E+03  0.67948852546E+03  0.00000000000E+00 0. -1.
</event>
<event>
 5    1  0.4866530E-005  0.6929668E+02  0.7818608E-02  0.1228585E+00
         21   -1    0    0  501  502  0.00000000000E+00  0.00000000000E+00  0.16132423869E+03  0.16132423869E+03  0.00000000000E+00 0. -1.
         -4   -1    0    0    0  501 -0.00000000000E+00 -0.00000000000E+00 -0.23181951763E+03  0.23181951763E+03  0.00000000000E+00 0. -1.
        -13    1    1    2    0    0 -0.55496410767E+02 -0.28931627906E+02 -0.23796263479E+00  0.62585609301E+02  0.10566000000E+00 0.  1.
         13    1    1    2    0    0  0.69898903681E+02  0.13162840788E+02 -0.19314661370E+03  0.20582697263E+03  0.10566000000E+00 0. -1.
         -4    1    1    2    0  502 -0.14402492913E+02  0.15768787118E+02  0.12288929739E+03  0.12473117438E+03  0.00000000000E+00 0. -1.
</event>
<event>
 5    1  0.4866530E-005  0.1741625E+03  0.7818608E-02  0.1079454E+00
          4   -1    0    0  502    0 -0.00000000000E+00  0.00000000000E+00  0.87573261420E+03  0.87573261420E+03  0.00000000000E+00 0.  1.
         21   -1    0    0  501  502  0.00000000000E+00 -0.00000000000E+00 -0.81022590381E+02  0.81022590381E+02  0.00000000000E+00 0. -1.
        -13    1    1    2    0    0 -0.15631891870E+03 -0.11096693049E+03  0.69624774519E+03  0.72215662972E+03  0.10566000000E+00 0.  1.
         13    1    1    2    0    0  0.12084936132E+03  0.53733949672E+02  0.10222878946E+03  0.16716052775E+03  0.10566000000E+00 0. -1.
          4    1    1    2  501    0  0.35469557373E+02  0.57232980820E+02 -0.37665108312E+01  0.67438047107E+02  0.00000000000E+00 0.  1.
</event>
<event>
 5    1  0.4866530E-005  0.4510183E+02  0.7818608E-02  0.1313128E+00
         21   -1    0    0  501  502  0.00000000000E+00  0.00000000000E+00  0.25211573300E+02  0.25211573300E+02  0.00000000000E+00 0.  1.
         -4   -1    0    0    0  501 -0.00000000000E+00 -0.00000000000E+00 -0.19755923208E+03  0.19755923208E+03  0.00000000000E+00 0. -1.
        -13    1    1    2    0    0  0.38654513915E+02 -0.17923832298E+02 -0.66642968471E+02  0.79099504556E+02  0.10566000000E+00 0.  1.
         13    1    1    2    0    0 -0.46944777316E+02  0.80587005729E+01 -0.11713322942E+03  0.12644745696E+03  0.10566000000E+00 0. -1.
         -4    1    1    2    0  502  0.82902634009E+01  0.98651317252E+01  0.11428539114E+02  0.17223843865E+02  0.00000000000E+00 0. -1.
</event>
<event>
 5    1  0.4866530E-005  0.6843526E+03  0.7818608E-02  0.9145991E-01
         21   -1    0    0  501  502  0.00000000000E+00  0.00000000000E+00  0.39460229256E+03  0.39460229256E+03  0.00000000000E+00 0. -1.
         -4   -1    0    0    0  501 -0.00000000000E+00 -0.00000000000E+00 -0.27814399329E+04  0.27814399329E+04  0.00000000000E+00 0. -1.
        -13    1    1    2    0    0  0.45407610525E+03  0.48137009825E+03 -0.16865905262E+04  0.18117643045E+04  0.10566000000E+00 0.  1.
         13    1    1    2    0    0 -0.63415734610E+03 -0.49726162693E+03 -0.19707624784E+03  0.82961661257E+03  0.10566000000E+00 0. -1.
         -4    1    1    2    0  502  0.18008124085E+03  0.15891528679E+02 -0.50317086626E+03  0.53466130835E+03  0.00000000000E+00 0. -1.
</event>
<event>
 5    1  0.4866530E-005  0.1262520E+03  0.7818608E-02  0.1127217E+00
          4   -1    0    0  502    0 -0.00000000000E+00  0.00000000000E+00  0.25793662666E+03  0.25793662666E+03  0.00000000000E+00 0.  1.
         21   -1    0    0  501  502  0.00000000000E+00 -0.00000000000E+00 -0.12446177952E+03  0.12446177952E+03  0.00000000000E+00 0. -1.
        -13    1    1    2    0    0 -0.10661089331E+03 -0.39751023524E+02  0.59534570096E+02  0.12841496269E+03  0.10566000000E+00 0.  1.
         13    1    1    2    0    0  0.12020602120E+03  0.66994051783E+02  0.13056196618E+03  0.18969483041E+03  0.10566000000E+00 0. -1.
          4    1    1    2  501    0 -0.13595127897E+02 -0.27243028259E+02 -0.56621689134E+02  0.64288613079E+02  0.00000000000E+00 0.  1.
</event>
<event>
 5    1  0.4866530E-005  0.4392761E+03  0.7818608E-02  0.9622028E-01
          4   -1    0    0  502    0 -0.00000000000E+00  0.00000000000E+00  0.35239511833E+03  0.35239511833E+03  0.00000000000E+00 0.  1.
         21   -1    0    0  501  502  0.00000000000E+00 -0.00000000000E+00 -0.80172294509E+03  0.80172294509E+03  0.00000000000E+00 0. -1.
        -13    1    1    2    0    0  0.46183677591E+03  0.24055669503E+02  0.44718712084E+02  0.46461990615E+03  0.10566000000E+00 0.  1.
         13    1    1    2    0    0 -0.39211083711E+03 -0.79090590798E+01 -0.33769337143E+03  0.51754254517E+03  0.10566000000E+00 0. -1.
          4    1    1    2  501    0 -0.69725938802E+02 -0.16146610423E+02 -0.15635316742E+03  0.17195561209E+03  0.00000000000E+00 0.  1.
</event>
<event>
 5    1  0.4866530E-005  0.1440735E+03  0.7818608E-02  0.1107108E+00
         21   -1    0    0  501  502  0.00000000000E+00  0.00000000000E+00  0.11028917966E+03  0.11028917966E+03  0.00000000000E+00 0. -1.
          4   -1    0    0  502    0 -0.00000000000E+00 -0.00000000000E+00 -0.32258189413E+03  0.32258189413E+03  0.00000000000E+00 0.  1.
        -13    1    1    2    0    0 -0.25380287996E+02  0.15135138009E+03 -0.17017747451E+03  0.22915449651E+03  0.10566000000E+00 0.  1.
         13    1    1    2    0    0  0.34345922106E+02 -0.12816974377E+03 -0.82534992327E+02  0.15626631660E+03  0.10566000000E+00 0. -1.
          4    1    1    2  501    0 -0.89656341100E+01 -0.23181636321E+02  0.40419752373E+02  0.47450260689E+02  0.00000000000E+00 0.  1.
</event>
<event>
 5    1  0.4866530E-005  0.2215302E+02  0.7818608E-02  0.1481938E+00
         -4   -1    0    0    0  501 -0.00000000000E+00  0.00000000000E+00  0.10309768965E+03  0.10309768965E+03  0.00000000000E+00 0. -1.
         21   -1    0    0  501  502  0.00000000000E+00 -0.00000000000E+00 -0.58973578940E+02  0.58973578940E+02  0.00000000000E+00 0. -1.
        -13    1    1    2    0    0  0.14681185756E+02  0.94674711002E+01  0.15428676894E+02  0.23307197578E+02  0.10566000000E+00 0.  1.
         13    1    1    2    0    0 -0.26089735495E+02  0.32951148380E+01  0.80246282571E+02  0.84445302478E+02  0.10566000000E+00 0. -1.
         -4    1    1    2    0  502  0.11408549739E+02 -0.12762585938E+02 -0.51550848758E+02  0.54318768530E+02  0.00000000000E+00 0. -1.
</event>
<event>
 5    1  0.4866530E-005  0.7685465E+02  0.7818608E-02  0.1209811E+00
         -4   -1    0    0    0  501 -0.00000000000E+00  0.00000000000E+00  0.33689298070E+03  0.33689298070E+03  0.00000000000E+00 0. -1.
         21   -1    0    0  501  502  0.00000000000E+00 -0.00000000000E+00 -0.73622035603E+02  0.73622035603E+02  0.00000000000E+00 0.  1.
        -13    1    1    2    0    0 -0.50418655378E+02  0.69510359522E+02 -0.22190613726E+02  0.88691405404E+02  0.10566000000E+00 0.  1.
         13    1    1    2    0    0  0.13701323478E+01 -0.77369453015E+02  0.24747113233E+03  0.25928725773E+03  0.10566000000E+00 0. -1.
         -4    1    1    2    0  502  0.49048523030E+02  0.78590934932E+01  0.37990426494E+02  0.62536353165E+02  0.00000000000E+00 0. -1.
</event>
<event>
 5    1  0.4866530E-005  0.1981257E+03  0.7818608E-02  0.1061428E+00
          4   -1    0    0  502    0 -0.00000000000E+00  0.00000000000E+00  0.19064028114E+04  0.19064028114E+04  0.00000000000E+00 0.  1.
         21   -1    0    0  501  502  0.00000000000E+00 -0.00000000000E+00 -0.48172125721E+02  0.48172125721E+02  0.00000000000E+00 0. -1.
        -13    1    1    2    0    0 -0.12892086449E+03 -0.17364687979E+03  0.11661827319E+04  0.11860674532E+04  0.10566000000E+00 0.  1.
         13    1    1    2    0    0  0.17965819660E+03  0.62966713236E+02  0.54672063431E+03  0.57891738420E+03  0.10566000000E+00 0. -1.
          4    1    1    2  501    0 -0.50737332104E+02  0.11068016655E+03  0.14532731950E+03  0.18959009977E+03  0.00000000000E+00 0.  1.
</event>
<event>
 5    1  0.4866530E-005  0.5109249E+03  0.7818608E-02  0.9485968E-01
         21   -1    0    0  501  502  0.00000000000E+00  0.00000000000E+00  0.34339861199E+03  0.34339861199E+03  0.00000000000E+00 0.  1.
          4   -1    0    0  502    0 -0.00000000000E+00 -0.00000000000E+00 -0.21294312803E+04  0.21294312803E+04  0.00000000000E+00 0.  1.
        -13    1    1    2    0    0  0.22773470299E+03  0.48707785078E+03 -0.34781460567E+03  0.64037718476E+03  0.10566000000E+00 0.  1.
         13    1    1    2    0    0 -0.54121114985E+03 -0.11430692052E+02 -0.89093306546E+03  0.10424979174E+04  0.10566000000E+00 0. -1.
          4    1    1    2  501    0  0.31347644685E+03 -0.47564715873E+03 -0.54728499716E+03  0.78995479014E+03  0.00000000000E+00 0.  1.
</event>
<event>
 5    1  0.4866530E-005  0.8638393E+02  0.7818608E-02  0.1189290E+00
         21   -1    0    0  501  502  0.00000000000E+00  0.00000000000E+00  0.32473308474E+02  0.32473308474E+02  0.00000000000E+00 0. -1.
          4   -1    0    0  502    0 -0.00000000000E+00 -0.00000000000E+00 -0.56381527534E+03  0.56381527534E+03  0.00000000000E+00 0.  1.
        -13    1    1    2    0    0  0.86602090934E+02  0.89336514997E+02 -0.30511856832E+03  0.32951219547E+03  0.10566000000E+00 0.  1.
         13    1    1    2    0    0 -0.32691736920E+02 -0.59081291688E+02 -0.17112923541E+03  0.18396895136E+03  0.10566000000E+00 0. -1.
          4    1    1    2  501    0 -0.53910354014E+02 -0.30255223309E+02 -0.55094163139E+02  0.82807436981E+02  0.00000000000E+00 0.  1.
</event>
<event>
 5    1  0.4866530E-005  0.9925904E+02  0.7818608E-02  0.1204117E+00
          4   -1    0    0  502    0 -0.00000000000E+00  0.00000000000E+00  0.28964698385E+02  0.28964698385E+02  0.00000000000E+00 0.  1.
         21   -1    0    0  501  502  0.00000000000E+00 -0.00000000000E+00 -0.11731658481E+04  0.11731658481E+04  0.00000000000E+00 0.  1.
        -13    1    1    2    0    0  0.67731023494E+02 -0.72741061883E+02 -0.18729070130E+03  0.21202964790E+03  0.10566000000E+00 0.  1.
         13    1    1    2    0    0  0.24496826889E+02  0.32318344796E+02 -0.15648464568E+02  0.43467867964E+02  0.10566000000E+00 0. -1.
          4    1    1    2  501    0 -0.92227850383E+02  0.40422717088E+02 -0.94126198381E+03  0.94663303059E+03  0.00000000000E+00 0.  1.
</event>
<event>
 5    1  0.4866530E-005  0.4301821E+03  0.7818608E-02  0.9699851E-01
         21   -1    0    0  501  502  0.00000000000E+00  0.00000000000E+00  0.15466611146E+03  0.15466611146E+03  0.00000000000E+00 0.  1.
          4   -1    0    0  502    0 -0.00000000000E+00 -0.00000000000E+00 -0.33746705940E+04  0.33746705940E+04  0.00000000000E+00 0.  1.
        -13    1    1    2    0    0 -0.23516562418E+03 -0.25664523590E+03 -0.48884619731E+03  0.60011687503E+03  0.10566000000E+00 0.  1.
         13    1    1    2    0    0 -0.72324702934E+02 -0.34846135842E+03 -0.12550896983E+04  0.13045713254E+04  0.10566000000E+00 0. -1.
          4    1    1    2  501    0  0.30749032711E+03  0.60510659432E+03 -0.14760685869E+04  0.16246485051E+04  0.00000000000E+00 0.  1.
</event>
<event>
 5    1  0.4866530E-005  0.1678809E+03  0.7818608E-02  0.1084702E+00
         21   -1    0    0  501  502  0.00000000000E+00  0.00000000000E+00  0.44015766211E+02  0.44015766211E+02  0.00000000000E+00 0. -1.
         -4   -1    0    0    0  501 -0.00000000000E+00 -0.00000000000E+00 -0.18118638390E+04  0.18118638390E+04  0.00000000000E+00 0. -1.
        -13    1    1    2    0    0 -0.14135540735E+03  0.80679746611E+02 -0.88510538778E+03  0.89994562688E+03  0.10566000000E+00 0.  1.
         13    1    1    2    0    0  0.21210180895E+03  0.43405644436E+02 -0.62244604169E+03  0.65902224037E+03  0.10566000000E+00 0. -1.
         -4    1    1    2    0  502 -0.70746401608E+02 -0.12408539105E+03 -0.26029664331E+03  0.29691173795E+03  0.00000000000E+00 0. -1.
</event>
<event>
 5    1  0.4866530E-005  0.4517286E+03  0.7818608E-02  0.9590554E-01
         21   -1    0    0  501  502  0.00000000000E+00  0.00000000000E+00  0.35294581496E+03  0.35294581496E+03  0.00000000000E+00 0. -1.
         -4   -1    0    0    0  501 -0.00000000000E+00 -0.00000000000E+00 -0.13197872748E+04  0.13197872748E+04  0.00000000000E+00 0. -1.
        -13    1    1    2    0    0  0.32842408103E+03  0.14200150431E+03 -0.21089432121E+03  0.41533508172E+03  0.10566000000E+00 0.  1.
         13    1    1    2    0    0 -0.64543853453E+03 -0.21744311049E+02 -0.37244612822E+03  0.74550643627E+03  0.10566000000E+00 0. -1.
         -4    1    1    2    0  502  0.31701445350E+03 -0.12025719326E+03 -0.38350101038E+03  0.51189157175E+03  0.00000000000E+00 0. -1.
</event>
<event>
 5    1  0.4866530E-005  0.4219196E+03  0.7818608E-02  0.9733181E-01
         -4   -1    0    0    0  501 -0.00000000000E+00  0.00000000000E+00  0.13825639215E+04  0.13825639215E+04  0.00000000000E+00 0. -1.
         21   -1    0    0  501  502  0.00000000000E+00 -0.00000000000E+00 -0.39015570269E+03  0.39015570269E+03  0.00000000000E+00 0. -1.
        -13    1    1    2    0    0  0.18147066416E+03 -0.28277610179E+03  0.57716852071E+03  0.66784536994E+03  0.10566000000E+00 0.  1.
         13    1    1    2    0    0 -0.39604075984E+03  0.54200809103E+03  0.36659887053E+03  0.76486325394E+03  0.10566000000E+00 0. -1.
         -4    1    1    2    0  502  0.21457009568E+03 -0.25923198923E+03  0.48640827538E+02  0.34001100027E+03  0.00000000000E+00 0. -1.
</event>
<event>
 5    1  0.4866530E-005  0.3409979E+03  0.7818608E-02  0.9916896E-01
         21   -1    0    0  501  502  0.00000000000E+00  0.00000000000E+00  0.86677519907E+02  0.86677519907E+02  0.00000000000E+00 0.  1.
          4   -1    0    0  502    0 -0.00000000000E+00 -0.00000000000E+00 -0.31690543593E+04  0.31690543593E+04  0.00000000000E+00 0.  1.
        -13    1    1    2    0    0 -0.12851012926E+03  0.31624817627E+03 -0.19972960461E+04  0.20262574539E+04  0.10566000000E+00 0.  1.
         13    1    1    2    0    0  0.86393471417E+02 -0.33113633245E+03 -0.11210507335E+04  0.11721219479E+04  0.10566000000E+00 0. -1.
          4    1    1    2  501    0  0.42116657846E+02  0.14888156175E+02  0.35969940246E+02  0.57352477398E+02  0.00000000000E+00 0.  1.
</event>
<event>
 5    1  0.4866530E-005  0.3855223E+03  0.7818608E-02  0.1006557E+00
         21   -1    0    0  501  502  0.00000000000E+00  0.00000000000E+00  0.18164462689E+03  0.18164462689E+03  0.00000000000E+00 0.  1.
          4   -1    0    0  502    0 -0.00000000000E+00 -0.00000000000E+00 -0.22251630888E+04  0.22251630888E+04  0.00000000000E+00 0.  1.
        -13    1    1    2    0    0  0.35599925811E+03  0.22968188131E+03 -0.17273271662E+04  0.17785242165E+04  0.10566000000E+00 0.  1.
         13    1    1    2    0    0  0.15819760664E+02 -0.14395866358E+03 -0.22041217755E+02  0.14649296260E+03  0.10566000000E+00 0. -1.
          4    1    1    2  501    0 -0.37181901878E+03 -0.85723217732E+02 -0.29415007793E+03  0.48179053657E+03  0.00000000000E+00 0.  1.
</event>
<event>
 5    1  0.4866530E-005  0.8652514E+02  0.7818608E-02  0.1189008E+00
         21   -1    0    0  501  502  0.00000000000E+00  0.00000000000E+00  0.28110751796E+03  0.28110751796E+03  0.00000000000E+00 0.  1.
          4   -1    0    0  502    0 -0.00000000000E+00 -0.00000000000E+00 -0.96024786359E+02  0.96024786359E+02  0.00000000000E+00 0.  1.
        -13    1    1    2    0    0  0.83765594229E+02  0.33060764415E+02 -0.64013119195E+02  0.11048701061E+03  0.10566000000E+00 0.  1.
         13    1    1    2    0    0 -0.62451185336E+02 -0.17080959739E+02  0.13849699475E+03  0.15288341458E+03  0.10566000000E+00 0. -1.
          4    1    1    2  501    0 -0.21314408892E+02 -0.15979804676E+02  0.11059885606E+03  0.11376187914E+03  0.00000000000E+00 0.  1.
</event>
<event>
 5    1  0.4866530E-005  0.2521473E+03  0.7818608E-02  0.1029448E+00
          4   -1    0    0  502    0 -0.00000000000E+00  0.00000000000E+00  0.54746124067E+03  0.54746124067E+03  0.00000000000E+00 0.  1.
         21   -1    0    0  501  502  0.00000000000E+00 -0.00000000000E+00 -0.86783642153E+03  0.86783642153E+03  0.00000000000E+00 0.  1.
        -13    1    1    2    0    0  0.23892507771E+03  0.76074831324E+02 -0.66576120094E+03  0.71141447874E+03  0.10566000000E+00 0.  1.
         13    1    1    2    0    0  0.80124271220E+02 -0.23974435665E+03  0.11531216047E+03  0.27783837190E+03  0.10566000000E+00 0. -1.
          4    1    1    2  501    0 -0.31904934893E+03  0.16366952533E+03  0.23007385962E+03  0.42604481156E+03  0.00000000000E+00 0.  1.
</event>
<event>
 5    1  0.4866530E-005  0.3744636E+03  0.7818608E-02  0.9805838E-01
          4   -1    0    0  502    0 -0.00000000000E+00  0.00000000000E+00  0.72845925738E+03  0.72845925738E+03  0.00000000000E+00 0.  1.
         21   -1    0    0  501  502  0.00000000000E+00 -0.00000000000E+00 -0.54757927857E+03  0.54757927857E+03  0.00000000000E+00 0. -1.
        -13    1    1    2    0    0 -0.26834495423E+03 -0.29393840508E+03  0.51992759227E+03  0.65477745288E+03  0.10566000000E+00 0.  1.
         13    1    1    2    0    0  0.10742594515E+03  0.29964585361E+03 -0.10117216737E+03  0.33401166131E+03  0.10566000000E+00 0. -1.
          4    1    1    2  501    0  0.16091900908E+03 -0.57074485315E+01 -0.23787544608E+03  0.28724942176E+03  0.00000000000E+00 0.  1.
</event>
<event>
 5    1  0.4866530E-005  0.7924686E+02  0.7818608E-02  0.1233344E+00
         21   -1    0    0  501  502  0.00000000000E+00  0.00000000000E+00  0.38116451902E+03  0.38116451902E+03  0.00000000000E+00 0. -1.
         -4   -1    0    0    0  501 -0.00000000000E+00 -0.00000000000E+00 -0.79504252022E+02  0.79504252022E+02  0.00000000000E+00 0. -1.
        -13    1    1    2    0    0  0.11737367919E+02  0.40120760204E+02 -0.10197310231E+01  0.41814976031E+02  0.10566000000E+00 0.  1.
         13    1    1    2    0    0  0.70240561464E+02  0.31402504664E+02  0.30033658603E+03  0.31003536870E+03  0.10566000000E+00 0. -1.
         -4    1    1    2    0  502 -0.81977929383E+02 -0.71523264868E+02  0.23434119839E+01  0.10881842630E+03  0.00000000000E+00 0. -1.
</event>
<event>
 5    1  0.4866530E-005  0.2336885E+03  0.7818608E-02  0.1039210E+00
          4   -1    0    0  502    0 -0.00000000000E+00  0.00000000000E+00  0.10863983893E+03  0.10863983893E+03  0.00000000000E+00 0.  1.
         21   -1    0    0  501  502  0.00000000000E+00 -0.00000000000E+00 -0.61576052752E+03  0.61576052752E+03  0.00000000000E+00 0. -1.
        -13    1    1    2    0    0  0.16069088805E+01 -0.23272145876E+03 -0.23415199859E+03  0.33013486506E+03  0.10566000000E+00 0.  1.
         13    1    1    2    0    0 -0.13123250081E+02  0.23422384527E+03 -0.16772499225E+03  0.28838292872E+03  0.10566000000E+00 0. -1.
          4    1    1    2  501    0  0.11516341200E+02 -0.15023865178E+01 -0.10524369774E+03  0.10588257267E+03  0.00000000000E+00 0.  1.
</event>
<event>
 5    1  0.4866530E-005  0.2144056E+03  0.7818608E-02  0.1050685E+00
         21   -1    0    0  501  502  0.00000000000E+00  0.00000000000E+00  0.45737641916E+02  0.45737641916E+02  0.00000000000E+00 0.  1.
         -4   -1    0    0    0  501 -0.00000000000E+00 -0.00000000000E+00 -0.14958522865E+04  0.14958522865E+04  0.00000000000E+00 0. -1.
        -13    1    1    2    0    0 -0.20340975704E+03 -0.62687223826E+02 -0.37135703620E+03  0.42803186422E+03  0.10566000000E+00 0.  1.
         13    1    1    2    0    0  0.21259353268E+03  0.35479490264E+02 -0.10534778461E+04  0.10753001385E+04  0.10566000000E+00 0. -1.
         -4    1    1    2    0  502 -0.91837756369E+01  0.27207733563E+02 -0.25279762263E+02  0.38257925723E+02  0.00000000000E+00 0. -1.
</event>
<event>
 5    1  0.4866530E-005  0.1646815E+03  0.7818608E-02  0.1131029E+00
         21   -1    0    0  501  502  0.00000000000E+00  0.00000000000E+00  0.50946226383E+03  0.50946226383E+03  0.00000000000E+00 0.  1.
          4   -1    0    0  502    0 -0.00000000000E+00 -0.00000000000E+00 -0.11286531181E+03  0.11286531181E+03  0.00000000000E+00 0.  1.
        -13    1    1    2    0    0  0.27666562930E+02  0.13631189399E+03 -0.28550182027E+02  0.14199118002E+03  0.10566000000E+00 0.  1.
         13    1    1    2    0    0 -0.37564107195E+02  0.35339567828E+02  0.94557308111E+02  0.10770813751E+03  0.10566000000E+00 0. -1.
          4    1    1    2  501    0  0.98975442658E+01 -0.17165146182E+03  0.33058982594E+03  0.37262825811E+03  0.00000000000E+00 0.  1.
</event>
<event>
 5    1  0.4866530E-005  0.1860654E+03  0.7818608E-02  0.1070133E+00
         21   -1    0    0  501  502  0.00000000000E+00  0.00000000000E+00  0.41412885684E+03  0.41412885684E+03  0.00000000000E+00 0. -1.
          4   -1    0    0  502    0 -0.00000000000E+00 -0.00000000000E+00 -0.22012352641E+03  0.22012352641E+03  0.00000000000E+00 0.  1.
        -13    1    1    2    0    0 -0.17155414589E+03  0.74329125535E+02 -0.11249565324E+03  0.21819928285E+03  0.10566000000E+00 0.  1.
         13    1    1    2    0    0  0.16310348957E+03 -0.84668163608E+02  0.10018372906E+03  0.20930417333E+03  0.10566000000E+00 0. -1.
          4    1    1    2  501    0  0.84506563175E+01  0.10339038073E+02  0.20631725460E+03  0.20674892708E+03  0.00000000000E+00 0.  1.
</event>
<event>
 5    1  0.4866530E-005  0.3273584E+03  0.7818608E-02  0.1011431E+00
         21   -1    0    0  501  502  0.00000000000E+00  0.00000000000E+00  0.19661137395E+03  0.19661137395E+03  0.00000000000E+00 0.  1.
         -4   -1    0    0    0  501 -0.00000000000E+00 -0.00000000000E+00 -0.32407626892E+04  0.32407626892E+04  0.00000000000E+00 0. -1.
        -13    1    1    2    0    0 -0.38141440241E+03  0.20971293059E+03 -0.14432000427E+04  0.15074093121E+04  0.10566000000E+00 0.  1.
         13    1    1    2    0    0 -0.32259327175E+02 -0.25846285682E+03 -0.14706292213E+04  0.14935173351E+04  0.10566000000E+00 0. -1.
         -4    1    1    2    0  502  0.41367372958E+03  0.48749926232E+02 -0.13032205119E+03  0.43644741594E+03  0.00000000000E+00 0. -1.
</event>
<event>
 5    1  0.4866530E-005  0.6364296E+02  0.7818608E-02  0.1244464E+00
          4   -1    0    0  502    0 -0.00000000000E+00  0.00000000000E+00  0.12058163204E+03  0.12058163204E+03  0.00000000000E+00 0.  1.
         21   -1    0    0  501  502  0.00000000000E+00 -0.00000000000E+00 -0.15850719383E+03  0.15850719383E+03  0.00000000000E+00 0.  1.
        -13    1    1    2    0    0 -0.48668332309E+02  0.56317877886E+02  0.48195197442E+02  0.88674112118E+02  0.10566000000E+00 0.  1.
         13    1    1    2    0    0  0.58363974356E+02 -0.13688196432E+02  0.29493889939E+02  0.66810335517E+02  0.10566000000E+00 0. -1.
          4    1    1    2  501    0 -0.96956420466E+01 -0.42629681454E+02 -0.11561464917E+03  0.12360437823E+03  0.00000000000E+00 0.  1.
</event>
<event>
 5    1  0.4866530E-005  0.4845021E+03  0.7818608E-02  0.9541621E-01
         21   -1    0    0  501  502  0.00000000000E+00  0.00000000000E+00  0.61634568941E+03  0.61634568941E+03  0.00000000000E+00 0.  1.
          4   -1    0    0  502    0 -0.00000000000E+00 -0.00000000000E+00 -0.14728855073E+04  0.14728855073E+04  0.00000000000E+00 0.  1.
        -13    1    1    2    0    0 -0.50674828920E+03 -0.23123699338E+03  0.20359215474E+03  0.59305493198E+03  0.10566000000E+00 0.  1.
         13    1    1    2    0    0  0.75892353392E+02  0.42962950577E+03 -0.89190097213E+03  0.99288897506E+03  0.10566000000E+00 0. -1.
          4    1    1    2  501    0  0.43085593580E+03 -0.19839251240E+03 -0.16823100048E+03  0.50328728964E+03  0.00000000000E+00 0.  1.
</event>
<event>
 5    1  0.4866530E-005  0.1473642E+03  0.7818608E-02  0.1127636E+00
         21   -1    0    0  501  502  0.00000000000E+00  0.00000000000E+00  0.89266001089E+02  0.89266001089E+02  0.00000000000E+00 0. -1.
         -4   -1    0    0    0  501 -0.00000000000E+00 -0.00000000000E+00 -0.32903278818E+04  0.32903278818E+04  0.00000000000E+00 0. -1.
        -13    1    1    2    0    0  0.71667382989E+02 -0.32127784349E+02 -0.17419212614E+03  0.19107934552E+03  0.10566000000E+00 0.  1.
         13    1    1    2    0    0  0.63907878637E+02 -0.13129176936E+03  0.79877002559E+01  0.14623802574E+03  0.10566000000E+00 0. -1.
         -4    1    1    2    0  502 -0.13557526163E+03  0.16341955370E+03 -0.30348574548E+04  0.30422765116E+04  0.00000000000E+00 0. -1.
</event>
<event>
 5    1  0.4866530E-005  0.3291833E+03  0.7818608E-02  0.1005737E+00
         21   -1    0    0  501  502  0.00000000000E+00  0.00000000000E+00  0.13534918398E+03  0.13534918398E+03  0.00000000000E+00 0. -1.
         -4   -1    0    0    0  501 -0.00000000000E+00 -0.00000000000E+00 -0.40681514800E+04  0.40681514800E+04  0.00000000000E+00 0. -1.
        -13    1    1    2    0    0 -0.47314125058E+02  0.38350478128E+03 -0.15557548727E+04  0.16030245721E+04  0.10566000000E+00 0.  1.
         13    1    1    2    0    0  0.40869996505E+02  0.24361597635E+03 -0.15500764557E+03  0.29162729964E+03  0.10566000000E+00 0. -1.
         -4    1    1    2    0  502  0.64441285530E+01 -0.62712075763E+03 -0.22220397778E+04  0.23088487923E+04  0.00000000000E+00 0. -1.
</event>
<event>
 5    1  0.4866530E-005  0.3824826E+03  0.7818608E-02  0.9965685E-01
          4   -1    0    0  502    0 -0.00000000000E+00  0.00000000000E+00  0.95011793303E+03  0.95011793303E+03  0.00000000000E+00 0.  1.
         21   -1    0    0  501  502  0.00000000000E+00 -0.00000000000E+00 -0.10870005840E+04  0.10870005840E+04  0.00000000000E+00 0. -1.
        -13    1    1    2    0    0 -0.24364104167E+03 -0.87690570847E+02  0.53564667738E+03  0.59495207164E+03  0.10566000000E+00 0.  1.
         13    1    1    2    0    0  0.73642259262E+03 -0.83793028135E+02 -0.29309302924E+03  0.79702135570E+03  0.10566000000E+00 0. -1.
          4    1    1    2  501    0 -0.49278155095E+03  0.17148359898E+03 -0.37943629915E+03  0.64514508972E+03  0.00000000000E+00 0.  1.
</event>
<event>
 5    1  0.4866530E-005  0.7858333E+03  0.7818608E-02  0.9006982E-01
         -4   -1    0    0    0  501 -0.00000000000E+00  0.00000000000E+00  0.23944949371E+04  0.23944949371E+04  0.00000000000E+00 0. -1.
         21   -1    0    0  501  502  0.00000000000E+00 -0.00000000000E+00 -0.36139829948E+03  0.36139829948E+03  0.00000000000E+00 0.  1.
        -13    1    1    2    0    0  0.54038035571E+02 -0.80552673539E+03  0.45294075689E+03  0.92571527541E+03  0.10566000000E+00 0.  1.
         13    1    1    2    0    0  0.41317828793E+02  0.77788568852E+03  0.15345001530E+04  0.17209021001E+04  0.10566000000E+00 0. -1.
         -4    1    1    2    0  502 -0.95355864364E+02  0.27641046862E+02  0.45655727716E+02  0.10927586107E+03  0.00000000000E+00 0. -1.
</event>
<event>
 5    1  0.4866530E-005  0.5073453E+03  0.7818608E-02  0.9462017E-01
         -4   -1    0    0    0  501 -0.00000000000E+00  0.00000000000E+00  0.10663990956E+04  0.10663990956E+04  0.00000000000E+00 0. -1.
         21   -1    0    0  501  502  0.00000000000E+00 -0.00000000000E+00 -0.67094306354E+03  0.67094306354E+03  0.00000000000E+00 0.  1.
        -13    1    1    2    0    0 -0.37091168414E+03 -0.40446643769E+03  0.86057860303E+02  0.55549486328E+03  0.10566000000E+00 0.  1.
         13    1    1    2    0    0  0.39260836814E+03  0.30115823264E+03  0.65476737007E+03  0.82070575232E+03  0.10566000000E+00 0. -1.
         -4    1    1    2    0  502 -0.21696684002E+02  0.10330820505E+03 -0.34536919832E+03  0.36114154354E+03  0.00000000000E+00 0. -1.
</event>
<event>
 5    1  0.4866530E-005  0.4426567E+03  0.7818608E-02  0.9750119E-01
         21   -1    0    0  501  502  0.00000000000E+00  0.00000000000E+00  0.20864379625E+03  0.20864379625E+03  0.00000000000E+00 0. -1.
         -4   -1    0    0    0  501 -0.00000000000E+00 -0.00000000000E+00 -0.25978754907E+04  0.25978754907E+04  0.00000000000E+00 0. -1.
        -13    1    1    2    0    0 -0.24894023360E+03 -0.11547687373E+03 -0.11708833505E+04  0.12026113170E+04  0.10566000000E+00 0.  1.
         13    1    1    2    0    0 -0.19531742642E+02  0.47846081929E+03 -0.98603915616E+03  0.10961658055E+04  0.10566000000E+00 0. -1.
         -4    1    1    2    0  502  0.26847197624E+03 -0.36298394556E+03 -0.23230918782E+03  0.50774216440E+03  0.00000000000E+00 0. -1.
</event>
<event>
 5    1  0.4866530E-005  0.5196211E+02  0.7818608E-02  0.1284000E+00
         -4   -1    0    0    0  501 -0.00000000000E+00  0.00000000000E+00  0.15898052901E+03  0.15898052901E+03  0.00000000000E+00 0. -1.
         21   -1    0    0  501  502  0.00000000000E+00 -0.00000000000E+00 -0.87418261765E+02  0.87418261765E+02  0.00000000000E+00 0. -1.
        -13    1    1    2    0    0 -0.13231525913E+02 -0.82572667413E+02  0.21266327531E+02  0.86287812189E+02  0.10566000000E+00 0.  1.
         13    1    1    2    0    0 -0.13503446689E+02  0.45370477722E+02  0.88562152254E+02  0.10041956631E+03  0.10566000000E+00 0. -1.
         -4    1    1    2    0  502  0.26734972602E+02  0.37202189691E+02 -0.38266212540E+02  0.59691412280E+02  0.00000000000E+00 0. -1.
</event>
<event>
 5    1  0.4866530E-005  0.4703906E+03  0.7818608E-02  0.9668354E-01
         -4   -1    0    0    0  501 -0.00000000000E+00  0.00000000000E+00  0.24028191868E+04  0.24028191868E+04  0.00000000000E+00 0. -1.
         21   -1    0    0  501  502  0.00000000000E+00 -0.00000000000E+00 -0.21962160181E+03  0.21962160181E+03  0.00000000000E+00 0. -1.
        -13    1    1    2    0    0 -0.17944990819E+03 -0.24522474860E+03  0.10616372569E+04  0.11042694976E+04  0.10566000000E+00 0.  1.
         13    1    1    2    0    0  0.51196692130E+03  0.40639118683E+03  0.71059162449E+03  0.96550732426E+03  0.10566000000E+00 0. -1.
         -4    1    1    2    0  502 -0.33251701312E+03 -0.16116643823E+03  0.41096870358E+03  0.55266396675E+03  0.00000000000E+00 0. -1.
</event>
<event>
 5    1  0.4866530E-005  0.1584274E+03  0.7818608E-02  0.1125806E+00
          4   -1    0    0  502    0 -0.00000000000E+00  0.00000000000E+00  0.66831203400E+03  0.66831203400E+03  0.00000000000E+00 0.  1.
         21   -1    0    0  501  502  0.00000000000E+00 -0.00000000000E+00 -0.55608943354E+03  0.55608943354E+03  0.00000000000E+00 0.  1.
        -13    1    1    2    0    0 -0.31929762358E+02 -0.93827994048E+02  0.45715686588E+03  0.46777731174E+03  0.10566000000E+00 0.  1.
         13    1    1    2    0    0  0.12822182361E+02 -0.65013357095E+02  0.18845087006E+03  0.19976207485E+03  0.10566000000E+00 0. -1.
          4    1    1    2  501    0  0.19107579998E+02  0.15884135114E+03 -0.53338513547E+03  0.55686208094E+03  0.00000000000E+00 0.  1.
</event>
<event>
 5    1  0.4866530E-005  0.1123731E+03  0.7818608E-02  0.1145564E+00
          4   -1    0    0  502    0 -0.00000000000E+00  0.00000000000E+00  0.15081158753E+03  0.15081158753E+03  0.00000000000E+00 0.  1.
         21   -1    0    0  501  502  0.00000000000E+00 -0.00000000000E+00 -0.17246683959E+03  0.17246683959E+03  0.00000000000E+00 0.  1.
        -13    1    1    2    0    0 -0.13531556117E+02  0.13147197640E+03  0.62777209198E+02  0.14631805339E+03  0.10566000000E+00 0.  1.
         13    1    1    2    0    0 -0.15751607514E+02 -0.87945325311E+02 -0.16053024852E+02  0.90775570250E+02  0.10566000000E+00 0. -1.
          4    1    1    2  501    0  0.29283163631E+02 -0.43526651089E+02 -0.68379436403E+02  0.86184803475E+02  0.00000000000E+00 0.  1.
</event>
<event>
 5    1  0.4866530E-005  0.5876842E+03  0.7818608E-02  0.9304082E-01
         21   -1    0    0  501  502  0.00000000000E+00  0.00000000000E+00  0.42624776134E+03  0.42624776134E+03  0.00000000000E+00 0. -1.
          4   -1    0    0  502    0 -0.00000000000E+00 -0.00000000000E+00 -0.20221466571E+04  0.20221466571E+04  0.00000000000E+00 0.  1.
        -13    1    1    2    0    0 -0.11142021713E+03  0.76167314098E+03 -0.49403651333E+03  0.91467618649E+03  0.10566000000E+00 0.  1.
         13    1    1    2    0    0  0.29447654620E+03 -0.45845907594E+03 -0.10401030024E+04  0.11741871347E+04  0.10566000000E+00 0. -1.
          4    1    1    2  501    0 -0.18305632907E+03 -0.30321406504E+03 -0.61759380039E+02  0.35953109723E+03  0.00000000000E+00 0.  1.
</event>
<event>
 5    1  0.4866530E-005  0.4374504E+03  0.7818608E-02  0.9746874E-01
          4   -1    0    0  502    0 -0.00000000000E+00  0.00000000000E+00  0.53163131318E+03  0.53163131318E+03  0.00000000000E+00 0.  1.
         21   -1    0    0  501  502  0.00000000000E+00 -0.00000000000E+00 -0.82489535045E+03  0.82489535045E+03  0.00000000000E+00 0.  1.
        -13    1    1    2    0    0  0.48408622061E+03  0.43164629499E+03 -0.54992801518E+02  0.65090875885E+03  0.10566000000E+00 0.  1.
         13    1    1    2    0    0 -0.19914571895E+03 -0.20740695974E+03 -0.34255394981E+02  0.28956883046E+03  0.10566000000E+00 0. -1.
          4    1    1    2  501    0 -0.28494050166E+03 -0.22423933525E+03 -0.20401584077E+03  0.41604907433E+03  0.00000000000E+00 0.  1.
</event>
<event>
 5    1  0.4866530E-005  0.3970293E+02  0.7818608E-02  0.1340512E+00
         -4   -1    0    0    0  501 -0.00000000000E+00  0.00000000000E+00  0.21062853526E+03  0.21062853526E+03  0.00000000000E+00 0. -1.
         21   -1    0    0  501  502  0.00000000000E+00 -0.00000000000E+00 -0.10516288592E+02  0.10516288592E+02  0.00000000000E+00 0.  1.
        -13    1    1    2    0    0  0.33618106411E+02 -0.13525071855E+02  0.76582388640E+02  0.84722948846E+02  0.10566000000E+00 0.  1.
         13    1    1    2    0    0 -0.36288277851E+02  0.26231342938E+02  0.91788998236E+02  0.10212812454E+03  0.10566000000E+00 0. -1.
         -4    1    1    2    0  502  0.26701714398E+01 -0.12706271084E+02  0.31740859797E+02  0.34293750466E+02  0.00000000000E+00 0. -1.
</event>
<event>
 5    1  0.4866530E-005  0.1906664E+03  0.7818608E-02  0.1066730E+00
         21   -1    0    0  501  502  0.00000000000E+00  0.00000000000E+00  0.10748920390E+04  0.10748920390E+04  0.00000000000E+00 0. -1.
         -4   -1    0    0    0  501 -0.00000000000E+00 -0.00000000000E+00 -0.14772276242E+03  0.14772276242E+03  0.00000000000E+00 0. -1.
        -13    1    1    2    0    0  0.52350859744E+02  0.18501912572E+03 -0.28297651402E+02  0.19435394937E+03  0.10566000000E+00 0.  1.
         13    1    1    2    0    0  0.79474882866E+02 -0.20427010821E+03  0.39060011268E+03  0.44789618586E+03  0.10566000000E+00 0. -1.
         -4    1    1    2    0  502 -0.13182574261E+03  0.19250982492E+02  0.56486681532E+03  0.58036466622E+03  0.00000000000E+00 0. -1.
</event>
<event>
 5    1  0.4866530E-005  0.2115186E+03  0.7818608E-02  0.1061335E+00
         21   -1    0    0  501  502  0.00000000000E+00  0.00000000000E+00  0.48286393586E+03  0.48286393586E+03  0.00000000000E+00 0. -1.
         -4   -1    0    0    0  501 -0.00000000000E+00 -0.00000000000E+00 -0.77488218096E+03  0.77488218096E+03  0.00000000000E+00 0. -1.
        -13    1    1    2    0    0 -0.22813013074E+03  0.76934484572E+02 -0.29104123851E+03  0.37771323136E+03  0.10566000000E+00 0.  1.
         13    1    1    2    0    0 -0.16254902662E+03 -0.68805348664E+02  0.32586491284E+03  0.37059993881E+03  0.10566000000E+00 0. -1.
         -4    1    1    2    0  502  0.39067915736E+03 -0.81291359080E+01 -0.32684191942E+03  0.50943294666E+03  0.00000000000E+00 0. -1.
</event>
<event>
 5    1  0.4866530E-005  0.3963964E+03  0.7818608E-02  0.9788648E-01
         21   -1    0    0  501  502  0.00000000000E+00  0.00000000000E+00  0.41269332236E+03  0.41269332236E+03  0.00000000000E+00 0. -1.
         -4   -1    0    0    0  501 -0.00000000000E+00 -0.00000000000E+00 -0.23070525336E+04  0.23070525336E+04  0.00000000000E+00 0. -1.
        -13    1    1    2    0    0 -0.42883804227E+03 -0.46386266537E+02 -0.15052230116E+04  0.15658065264E+04  0.10566000000E+00 0.  1.
         13    1    1    2    0    0  0.75854340968E+01 -0.35187225496E+03  0.13055463986E+03  0.37538799631E+03  0.10566000000E+00 0. -1.
         -4    1    1    2    0  502  0.42125260818E+03  0.39825852150E+03 -0.51969083941E+03  0.77855133319E+03  0.00000000000E+00 0. -1.
</event>
<event>
 5    1  0.4866530E-005  0.1195454E+03  0.7818608E-02  0.1135742E+00
         21   -1    0    0  501  502  0.00000000000E+00  0.00000000000E+00  0.57370633051E+03  0.57370633051E+03  0.00000000000E+00 0.  1.
          4   -1    0    0  502    0 -0.00000000000E+00 -0.00000000000E+00 -0.76762021029E+02  0.76762021029E+02  0.00000000000E+00 0.  1.
        -13    1    1    2    0    0  0.26361280244E+02  0.11342024833E+03  0.14354966000E+03  0.18483935154E+03  0.10566000000E+00 0.  1.
         13    1    1    2    0    0 -0.18220813050E+02 -0.11949477411E+03  0.91362522793E+01  0.12122079581E+03  0.10566000000E+00 0. -1.
          4    1    1    2  501    0 -0.81404671938E+01  0.60745257789E+01  0.34425839720E+03  0.34440820419E+03  0.00000000000E+00 0.  1.
</event>
<event>
 5    1  0.4866530E-005  0.2497488E+02  0.7818608E-02  0.1450493E+00
         21   -1    0    0  501  502  0.00000000000E+00  0.00000000000E+00  0.80197081913E+02  0.80197081913E+02  0.00000000000E+00 0.  1.
          4   -1    0    0  502    0 -0.00000000000E+00 -0.00000000000E+00 -0.81223331933E+02  0.81223331933E+02  0.00000000000E+00 0.  1.
        -13    1    1    2    0    0 -0.26925050460E+02  0.31887897193E+01 -0.57621414141E+02  0.63681749770E+02  0.10566000000E+00 0.  1.
         13    1    1    2    0    0  0.18117196548E+02  0.20055456149E+02 -0.82779520020E+01  0.28266407368E+02  0.10566000000E+00 0. -1.
          4    1    1    2  501    0  0.88078539117E+01 -0.23244245869E+02  0.64873116122E+02  0.69472256707E+02  0.00000000000E+00 0.  1.
</event>
<event>
 5    1  0.4866530E-005  0.4181798E+03  0.7818608E-02  0.1000202E+00
          4   -1    0    0  502    0 -0.00000000000E+00  0.00000000000E+00  0.15847424986E+04  0.15847424986E+04  0.00000000000E+00 0.  1.
         21   -1    0    0  501  502  0.00000000000E+00 -0.00000000000E+00 -0.31009216986E+03  0.31009216986E+03  0.00000000000E+00 0.  1.
        -13    1    1    2    0    0 -0.31444358571E+03 -0.22733466916E+03 -0.79300718610E+01  0.38809627362E+03  0.10566000000E+00 0.  1.
         13    1    1    2    0    0 -0.13352745488E+03 -0.40564807986E+02  0.74306245897E+03  0.75605351262E+03  0.10566000000E+00 0. -1.
          4    1    1    2  501    0  0.44797104059E+03  0.26789947715E+03  0.53951794167E+03  0.75068488225E+03  0.00000000000E+00 0.  1.
</event>
<event>
 5    1  0.4866530E-005  0.8555645E+02  0.7818608E-02  0.1190954E+00
         -4   -1    0    0    0  501 -0.00000000000E+00  0.00000000000E+00  0.13807942685E+03  0.13807942685E+03  0.00000000000E+00 0. -1.
         21   -1    0    0  501  502  0.00000000000E+00 -0.00000000000E+00 -0.78320914576E+02  0.78320914576E+02  0.00000000000E+00 0.  1.
        -13    1    1    2    0    0 -0.80949465310E+02 -0.41786811180E+02 -0.12776506273E+02  0.91990237521E+02  0.10566000000E+00 0.  1.
         13    1    1    2    0    0  0.69234266035E+02  0.47080429906E+02  0.73646049399E+02  0.11150651205E+03  0.10566000000E+00 0. -1.
         -4    1    1    2    0  502  0.11715199275E+02 -0.52936187259E+01 -0.11110308499E+01  0.12903591858E+02  0.00000000000E+00 0. -1.
</event>
<event>
 5    1  0.4866530E-005  0.5543326E+03  0.7818608E-02  0.9366226E-01
         21   -1    0    0  501  502  0.00000000000E+00  0.00000000000E+00  0.11898346055E+04  0.11898346055E+04  0.00000000000E+00 0. -1.
         -4   -1    0    0    0  501 -0.00000000000E+00 -0.00000000000E+00 -0.53280545988E+03  0.53280545988E+03  0.00000000000E+00 0. -1.
        -13    1    1    2    0    0  0.16831173421E+03 -0.47411066078E+03  0.56657315635E+02  0.50628037797E+03  0.10566000000E+00 0.  1.
         13    1    1    2    0    0 -0.20765307468E+03  0.57380172324E+03  0.37939281007E+01  0.61023161346E+03  0.10566000000E+00 0. -1.
         -4    1    1    2    0  502  0.39341340468E+02 -0.99691062457E+02  0.59657790184E+03  0.60612807390E+03  0.00000000000E+00 0. -1.
</event>
<event>
 5    1  0.4866530E-005  0.1898868E+03  0.7818608E-02  0.1067299E+00
         -4   -1    0    0    0  501 -0.00000000000E+00  0.00000000000E+00  0.31823430860E+03  0.31823430860E+03  0.00000000000E+00 0. -1.
         21   -1    0    0  501  502  0.00000000000E+00 -0.00000000000E+00 -0.56001011820E+03  0.56001011820E+03  0.00000000000E+00 0.  1.
        -13    1    1    2    0    0 -0.14337519400E+03  0.25166385907E+03 -0.28285118805E+03  0.40484064762E+03  0.10566000000E+00 0.  1.
         13    1    1    2    0    0  0.16168361120E+02 -0.18102984785E+03  0.19157295503E+03  0.26407088059E+03  0.10566000000E+00 0. -1.
         -4    1    1    2    0  502  0.12720683288E+03 -0.70634011220E+02 -0.15049757658E+03  0.20933289859E+03  0.00000000000E+00 0. -1.
</event>
<event>
 5    1  0.4866530E-005  0.3816726E+03  0.7818608E-02  0.1010957E+00
         21   -1    0    0  501  502  0.00000000000E+00  0.00000000000E+00  0.93275490332E+03  0.93275490332E+03  0.00000000000E+00 0. -1.
         -4   -1    0    0    0  501 -0.00000000000E+00 -0.00000000000E+00 -0.36810156216E+03  0.36810156216E+03  0.00000000000E+00 0. -1.
        -13    1    1    2    0    0 -0.10268359145E+03 -0.78951766611E+02 -0.28176669383E+02  0.13255654365E+03  0.10566000000E+00 0.  1.
         13    1    1    2    0    0  0.36658568586E+03  0.17003898544E+03  0.74706043999E+03  0.84935130177E+03  0.10566000000E+00 0. -1.
         -4    1    1    2    0  502 -0.26390209441E+03 -0.91087218833E+02 -0.15423042945E+03  0.31894862006E+03  0.00000000000E+00 0. -1.
</event>
<event>
 5    1  0.4866530E-005  0.3156701E+03  0.7818608E-02  0.1012763E+00
         -4   -1    0    0    0  501 -0.00000000000E+00  0.00000000000E+00  0.16762327959E+04  0.16762327959E+04  0.00000000000E+00 0. -1.
         21   -1    0    0  501  502  0.00000000000E+00 -0.00000000000E+00 -0.23091931292E+03  0.23091931292E+03  0.00000000000E+00 0. -1.
        -13    1    1    2    0    0 -0.18973091682E+03 -0.10342149238E+03  0.45030623867E+03  0.49946926395E+03  0.10566000000E+00 0.  1.
         13    1    1    2    0    0 -0.14413183856E+03  0.14438211752E+03  0.10475562888E+04  0.10672367929E+04  0.10566000000E+00 0. -1.
         -4    1    1    2    0  502  0.33386275538E+03 -0.40960625139E+02 -0.52549044458E+02  0.34044605199E+03  0.00000000000E+00 0. -1.
</event>
<event>
 5    1  0.4866530E-005  0.1295315E+03  0.7818608E-02  0.1123256E+00
          4   -1    0    0  502    0 -0.00000000000E+00  0.00000000000E+00  0.32542568252E+02  0.32542568252E+02  0.00000000000E+00 0.  1.
         21   -1    0    0  501  502  0.00000000000E+00 -0.00000000000E+00 -0.99343119507E+03  0.99343119507E+03  0.00000000000E+00 0. -1.
        -13    1    1    2    0    0  0.58584333929E+02 -0.11110177339E+03 -0.14296248470E+03  0.19029979356E+03  0.10566000000E+00 0.  1.
         13    1    1    2    0    0 -0.71012732421E+02  0.12533209766E+03 -0.60508209849E+03  0.62199300635E+03  0.10566000000E+00 0. -1.
          4    1    1    2  501    0  0.12428398491E+02 -0.14230324266E+02 -0.21284404363E+03  0.21368096342E+03  0.00000000000E+00 0.  1.
</event>
<event>
 5    1  0.4866530E-005  0.1418545E+03  0.7818608E-02  0.1158162E+00
         -4   -1    0    0    0  501 -0.00000000000E+00  0.00000000000E+00  0.50163323757E+03  0.50163323757E+03  0.00000000000E+00 0. -1.
         21   -1    0    0  501  502  0.00000000000E+00 -0.00000000000E+00 -0.67906013075E+02  0.67906013075E+02  0.00000000000E+00 0. -1.
        -13    1    1    2    0    0  0.13222654912E+02  0.38727783384E+02  0.18418214161E+03  0.18867366605E+03  0.10566000000E+00 0.  1.
         13    1    1    2    0    0  0.13559005186E+03 -0.95735319614E+01  0.11170136793E+03  0.17593612886E+03  0.10566000000E+00 0. -1.
         -4    1    1    2    0  502 -0.14881270677E+03 -0.29154251422E+02  0.13784371496E+03  0.20492945573E+03  0.00000000000E+00 0. -1.
</event>
<event>
 5    1  0.4866530E-005  0.5565787E+03  0.7818608E-02  0.9772804E-01
         21   -1    0    0  501  502  0.00000000000E+00  0.00000000000E+00  0.33954031288E+03  0.33954031288E+03  0.00000000000E+00 0.  1.
          4   -1    0    0  502    0 -0.00000000000E+00 -0.00000000000E+00 -0.16693291782E+04  0.16693291782E+04  0.00000000000E+00 0.  1.
        -13    1    1    2    0    0  0.56624105971E+03  0.16560061364E+03 -0.12862237503E+03  0.60381804168E+03  0.10566000000E+00 0.  1.
         13    1    1    2    0    0 -0.11552942011E+03  0.54373899263E+02 -0.63922521286E+03  0.65185309063E+03  0.10566000000E+00 0. -1.
          4    1    1    2  501    0 -0.45071163959E+03 -0.21997451291E+03 -0.56194127746E+03  0.75319835880E+03  0.00000000000E+00 0.  1.
</event>
<event>
 5    1  0.4866530E-005  0.6676206E+03  0.7818608E-02  0.9171320E-01
         21   -1    0    0  501  502  0.00000000000E+00  0.00000000000E+00  0.27955131958E+03  0.27955131958E+03  0.00000000000E+00 0.  1.
         -4   -1    0    0    0  501 -0.00000000000E+00 -0.00000000000E+00 -0.37864351746E+04  0.37864351746E+04  0.00000000000E+00 0. -1.
        -13    1    1    2    0    0 -0.61944664140E+03  0.41685011857E+03 -0.18180269474E+04  0.19653753218E+04  0.10566000000E+00 0.  1.
         13    1    1    2    0    0  0.13443785231E+03 -0.67134845254E+03 -0.11060573181E+04  0.13008247702E+04  0.10566000000E+00 0. -1.
         -4    1    1    2    0  502  0.48500878908E+03  0.25449833397E+03 -0.58279958958E+03  0.79978640217E+03  0.00000000000E+00 0. -1.
</event>
<event>
 5    1  0.5633231E-005  0.2296812E+03  0.7818608E-02  0.1065766E+00
         -4   -1    0    0    0  501 -0.00000000000E+00  0.00000000000E+00  0.36032582854E+03  0.36032582854E+03  0.00000000000E+00 0. -1.
         21   -1    0    0  501  502  0.00000000000E+00 -0.00000000000E+00 -0.96374343378E+03  0.96374343378E+03  0.00000000000E+00 0. -1.
        -13    1    1    2    0    0 -0.53194996411E+02 -0.98728576160E+02  0.58144900601E+02  0.12632450286E+03  0.10566000000E+00 0.  1.
         13    1    1    2    0    0 -0.14118022288E+03 -0.33915115189E+02  0.23201418080E+03  0.27370181152E+03  0.10566000000E+00 0. -1.
         -4    1    1    2    0  502  0.19437521929E+03  0.13264369135E+03 -0.89357668664E+03  0.92404294794E+03  0.00000000000E+00 0. -1.
</event>
<event>
 5    1  0.4866530E-005  0.1385393E+03  0.7818608E-02  0.1112999E+00
         21   -1    0    0  501  502  0.00000000000E+00  0.00000000000E+00  0.61988449270E+03  0.61988449270E+03  0.00000000000E+00 0. -1.
         -4   -1    0    0    0  501 -0.00000000000E+00 -0.00000000000E+00 -0.60855091462E+03  0.60855091462E+03  0.00000000000E+00 0. -1.
        -13    1    1    2    0    0  0.77357960500E+02  0.12587265002E+03  0.81712326068E+02  0.16883451505E+03  0.10566000000E+00 0.  1.
         13    1    1    2    0    0 -0.66536218408E+02 -0.12082194824E+03 -0.55649708887E+03  0.57333588116E+03  0.10566000000E+00 0. -1.
         -4    1    1    2    0  502 -0.10821742092E+02 -0.50507017876E+01  0.48611834088E+03  0.48626501111E+03  0.00000000000E+00 0. -1.
</event>
<event>
 5    1  0.4866530E-005  0.4643758E+03  0.7818608E-02  0.9576470E-01
         21   -1    0    0  501  502  0.00000000000E+00  0.00000000000E+00  0.36048335657E+03  0.36048335657E+03  0.00000000000E+00 0. -1.
         -4   -1    0    0    0  501 -0.00000000000E+00 -0.00000000000E+00 -0.21682355912E+04  0.21682355912E+04  0.00000000000E+00 0. -1.
        -13    1    1    2    0    0  0.19447179422E+03 -0.39163000720E+03 -0.12062349278E+04  0.12830417193E+04  0.10566000000E+00 0.  1.
         13    1    1    2    0    0 -0.31532673592E+03 -0.15903625021E+03 -0.58297079863E+03  0.68159991380E+03  0.10566000000E+00 0. -1.
         -4    1    1    2    0  502  0.12085494170E+03  0.55066625742E+03 -0.18546508244E+02  0.56407731470E+03  0.00000000000E+00 0. -1.
</event>
<event>
 5    1  0.4866530E-005  0.4473087E+03  0.7818608E-02  0.1015980E+00
         21   -1    0    0  501  502  0.00000000000E+00  0.00000000000E+00  0.41047936134E+03  0.41047936134E+03  0.00000000000E+00 0. -1.
         -4   -1    0    0    0  501 -0.00000000000E+00 -0.00000000000E+00 -0.75364011372E+03  0.75364011372E+03  0.00000000000E+00 0. -1.
        -13    1    1    2    0    0 -0.18841517683E+02  0.65904953402E+02 -0.13415185705E+03  0.15064925352E+03  0.10566000000E+00 0.  1.
         13    1    1    2    0    0  0.45014850448E+03  0.28891622570E+02  0.11529777793E+03  0.46557705130E+03  0.10566000000E+00 0. -1.
         -4    1    1    2    0  502 -0.43130698680E+03 -0.94796575972E+02 -0.32430667325E+03  0.54789317024E+03  0.00000000000E+00 0. -1.
</event>
<event>
 5    1  0.4866530E-005  0.5166672E+03  0.7818608E-02  0.9797111E-01
         -4   -1    0    0    0  501 -0.00000000000E+00  0.00000000000E+00  0.83915128671E+03  0.83915128671E+03  0.00000000000E+00 0. -1.
         21   -1    0    0  501  502  0.00000000000E+00 -0.00000000000E+00 -0.57677413135E+03  0.57677413135E+03  0.00000000000E+00 0. -1.
        -13    1    1    2    0    0  0.92560209605E+02 -0.11403616121E+03  0.31693937501E+03  0.34931678611E+03  0.10566000000E+00 0.  1.
         13    1    1    2    0    0 -0.57222956609E+03  0.60874463189E+02  0.31798175890E+02  0.57633628355E+03  0.10566000000E+00 0. -1.
         -4    1    1    2    0  502  0.47966935649E+03  0.53161698025E+02 -0.86360395543E+02  0.49027234840E+03  0.00000000000E+00 0. -1.
</event>
<event>
 5    1  0.4866530E-005  0.4087880E+03  0.7818608E-02  0.9704003E-01
         21   -1    0    0  501  502  0.00000000000E+00  0.00000000000E+00  0.42430698754E+03  0.42430698754E+03  0.00000000000E+00 0.  1.
         -4   -1    0    0    0  501 -0.00000000000E+00 -0.00000000000E+00 -0.13706229771E+04  0.13706229771E+04  0.00000000000E+00 0. -1.
        -13    1    1    2    0    0  0.24341952500E+03  0.34530418046E+03 -0.25783889276E+03  0.49494337856E+03  0.10566000000E+00 0.  1.
         13    1    1    2    0    0 -0.17177065804E+03 -0.36751894347E+03 -0.94730080505E+03  0.10305116007E+04  0.10566000000E+00 0. -1.
         -4    1    1    2    0  502 -0.71648866961E+02  0.22214763013E+02  0.25882370821E+03  0.26947498542E+03  0.00000000000E+00 0. -1.
</event>
<event>
 5    1  0.4866530E-005  0.1218495E+03  0.7818608E-02  0.1132746E+00
         -4   -1    0    0    0  501 -0.00000000000E+00  0.00000000000E+00  0.39665950004E+03  0.39665950004E+03  0.00000000000E+00 0. -1.
         21   -1    0    0  501  502  0.00000000000E+00 -0.00000000000E+00 -0.24129589661E+03  0.24129589661E+03  0.00000000000E+00 0.  1.
        -13    1    1    2    0    0 -0.38908758860E+02 -0.11335846324E+03 -0.19478124128E+03  0.22870018763E+03  0.10566000000E+00 0.  1.
         13    1    1    2    0    0  0.59997021401E+02  0.10626687578E+03  0.36340975061E+03  0.38335225246E+03  0.10566000000E+00 0. -1.
         -4    1    1    2    0  502 -0.21088262541E+02  0.70915874633E+01 -0.13264905900E+02  0.25902956555E+02  0.00000000000E+00 0. -1.
</event>
<event>
 5    1  0.4866530E-005  0.4706350E+03  0.7818608E-02  0.9877808E-01
         21   -1    0    0  501  502  0.00000000000E+00  0.00000000000E+00  0.58978520705E+03  0.58978520705E+03  0.00000000000E+00 0.  1.
          4   -1    0    0  502    0 -0.00000000000E+00 -0.00000000000E+00 -0.11524252692E+04  0.11524252692E+04  0.00000000000E+00 0.  1.
        -13    1    1    2    0    0 -0.20581681374E+03 -0.43579950944E+03  0.27754269791E+03  0.55615801134E+03  0.10566000000E+00 0.  1.
         13    1    1    2    0    0 -0.10894939003E+03  0.99924934984E+02 -0.68425886278E+03  0.70004654465E+03  0.10566000000E+00 0. -1.
          4    1    1    2  501    0  0.31476620377E+03  0.33587457446E+03 -0.15592389732E+03  0.48600592029E+03  0.00000000000E+00 0.  1.
</event>
<event>
 5    1  0.4866530E-005  0.6178663E+02  0.7818608E-02  0.1264647E+00
          4   -1    0    0  502    0 -0.00000000000E+00  0.00000000000E+00  0.58431993299E+02  0.58431993299E+02  0.00000000000E+00 0.  1.
         21   -1    0    0  501  502  0.00000000000E+00 -0.00000000000E+00 -0.68727815942E+03  0.68727815942E+03  0.00000000000E+00 0. -1.
        -13    1    1    2    0    0  0.33057911083E+02  0.29206084421E+02  0.37784273212E+02  0.58081695211E+02  0.10566000000E+00 0.  1.
         13    1    1    2    0    0 -0.60932829194E+02 -0.84347507823E+02 -0.35517367239E+03  0.37010222976E+03  0.10566000000E+00 0. -1.
          4    1    1    2  501    0  0.27874918111E+02  0.55141423401E+02 -0.31145676694E+03  0.31752622774E+03  0.00000000000E+00 0.  1.
</event>
<event>
 5    1  0.4866530E-005  0.5208950E+03  0.7818608E-02  0.9433314E-01
         21   -1    0    0  501  502  0.00000000000E+00  0.00000000000E+00  0.26310665961E+03  0.26310665961E+03  0.00000000000E+00 0.  1.
          4   -1    0    0  502    0 -0.00000000000E+00 -0.00000000000E+00 -0.25328844001E+04  0.25328844001E+04  0.00000000000E+00 0.  1.
        -13    1    1    2    0    0 -0.54998360744E+03 -0.53534216832E+03 -0.78986708838E+03  0.11013461010E+04  0.10566000000E+00 0.  1.
         13    1    1    2    0    0  0.26158209289E+03  0.36932416210E+03 -0.11007892527E+04  0.11901943195E+04  0.10566000000E+00 0. -1.
          4    1    1    2  501    0  0.28840151455E+03  0.16601800622E+03 -0.37912139936E+03  0.50445063925E+03  0.00000000000E+00 0.  1.
</event>
<event>
 5    1  0.4866530E-005  0.5004761E+03  0.7818608E-02  0.9611668E-01
         -4   -1    0    0    0  501 -0.00000000000E+00  0.00000000000E+00  0.19900292407E+04  0.19900292407E+04  0.00000000000E+00 0. -1.
         21   -1    0    0  501  502  0.00000000000E+00 -0.00000000000E+00 -0.28395070752E+03  0.28395070752E+03  0.00000000000E+00 0. -1.
        -13    1    1    2    0    0 -0.25032979923E+03  0.17967967849E+03  0.86632801862E+03  0.91949662438E+03  0.10566000000E+00 0.  1.
         13    1    1    2    0    0  0.44333072458E+03 -0.50938139325E+03  0.46942546841E+03  0.82241827357E+03  0.10566000000E+00 0. -1.
         -4    1    1    2    0  502 -0.19300092535E+03  0.32970171476E+03  0.37032504618E+03  0.53206505028E+03  0.00000000000E+00 0. -1.
</event>
<event>
 5    1  0.4866530E-005  0.2699361E+03  0.7818608E-02  0.1040787E+00
         21   -1    0    0  501  502  0.00000000000E+00  0.00000000000E+00  0.10814502415E+04  0.10814502415E+04  0.00000000000E+00 0.  1.
          4   -1    0    0  502    0 -0.00000000000E+00 -0.00000000000E+00 -0.33653753406E+03  0.33653753406E+03  0.00000000000E+00 0.  1.
        -13    1    1    2    0    0 -0.34960911099E+03  0.64396275537E+02 -0.16258904551E+03  0.39090743108E+03  0.10566000000E+00 0.  1.
         13    1    1    2    0    0  0.89171971990E+02 -0.11376968523E+03  0.96361725100E+02  0.17372614971E+03  0.10566000000E+00 0. -1.
          4    1    1    2  501    0  0.26043713900E+03  0.49373409693E+02  0.81114002782E+03  0.85335419475E+03  0.00000000000E+00 0.  1.
</event>
<event>
 5    1  0.4866530E-005  0.8417331E+02  0.7818608E-02  0.1193782E+00
          4   -1    0    0  502    0 -0.00000000000E+00  0.00000000000E+00  0.20321748951E+03  0.20321748951E+03  0.00000000000E+00 0.  1.
         21   -1    0    0  501  502  0.00000000000E+00 -0.00000000000E+00 -0.86497537696E+03  0.86497537696E+03  0.00000000000E+00 0. -1.
        -13    1    1    2    0    0 -0.78939215857E+02 -0.27814656268E+02  0.18729974527E+03  0.20514936180E+03  0.10566000000E+00 0.  1.
         13    1    1    2    0    0  0.98674029743E+02  0.50705650480E+02 -0.47572226584E+03  0.48848675777E+03  0.10566000000E+00 0. -1.
          4    1    1    2  501    0 -0.19734813886E+02 -0.22890994212E+02 -0.37333536688E+03  0.37455674691E+03  0.00000000000E+00 0.  1.
</event>
<event>
 5    1  0.4866530E-005  0.4995836E+03  0.7818608E-02  0.9741035E-01
         21   -1    0    0  501  502  0.00000000000E+00  0.00000000000E+00  0.18035247676E+03  0.18035247676E+03  0.00000000000E+00 0.  1.
          4   -1    0    0  502    0 -0.00000000000E+00 -0.00000000000E+00 -0.24654011945E+04  0.24654011945E+04  0.00000000000E+00 0.  1.
        -13    1    1    2    0    0  0.12200163385E+03 -0.41357283748E+03 -0.65282761603E+03  0.78237510056E+03  0.10566000000E+00 0.  1.
         13    1    1    2    0    0  0.17487259838E+03 -0.90654234171E+02 -0.92373874072E+03  0.94450616097E+03  0.10566000000E+00 0. -1.
          4    1    1    2  501    0 -0.29687423223E+03  0.50422707165E+03 -0.70848236100E+03  0.91887240975E+03  0.00000000000E+00 0.  1.
</event>
<event>
 5    1  0.4866530E-005  0.2133711E+03  0.7818608E-02  0.1051337E+00
         -4   -1    0    0    0  501 -0.00000000000E+00  0.00000000000E+00  0.78792789771E+03  0.78792789771E+03  0.00000000000E+00 0. -1.
         21   -1    0    0  501  502  0.00000000000E+00 -0.00000000000E+00 -0.54605515866E+03  0.54605515866E+03  0.00000000000E+00 0.  1.
        -13    1    1    2    0    0 -0.15622850291E+03 -0.21842633235E+03  0.38439146134E+02  0.27128395991E+03  0.10566000000E+00 0.  1.
         13    1    1    2    0    0 -0.36158868902E+02  0.21231676811E+03  0.59151511104E+03  0.62950457629E+03  0.10566000000E+00 0. -1.
         -4    1    1    2    0  502  0.19238737181E+03  0.61095642450E+01 -0.38808151812E+03  0.43319452018E+03  0.00000000000E+00 0. -1.
</event>
<event>
 5    1  0.4866530E-005  0.5006779E+03  0.7818608E-02  0.9563315E-01
          4   -1    0    0  502    0 -0.00000000000E+00  0.00000000000E+00  0.19554532214E+04  0.19554532214E+04  0.00000000000E+00 0.  1.
         21   -1    0    0  501  502  0.00000000000E+00 -0.00000000000E+00 -0.28310190438E+03  0.28310190438E+03  0.00000000000E+00 0.  1.
        -13    1    1    2    0    0 -0.24459362972E+03 -0.35173443882E+03  0.70510755429E+03  0.82505747280E+03  0.10566000000E+00 0.  1.
         13    1    1    2    0    0  0.23414053519E+03 -0.28091564537E+03  0.19270557660E+03  0.41336526275E+03  0.10566000000E+00 0. -1.
          4    1    1    2  501    0  0.10453094530E+02  0.63265008419E+03  0.77453818618E+03  0.10001323903E+04  0.00000000000E+00 0.  1.
</event>
<event>
 5    1  0.4866530E-005  0.8647903E+02  0.7818608E-02  0.1189100E+00
         -4   -1    0    0    0  501 -0.00000000000E+00  0.00000000000E+00  0.18295891904E+02  0.18295891904E+02  0.00000000000E+00 0. -1.
         21   -1    0    0  501  502  0.00000000000E+00 -0.00000000000E+00 -0.10041477717E+04  0.10041477717E+04  0.00000000000E+00 0.  1.
        -13    1    1    2    0    0  0.72762133458E+02  0.61414925894E+02 -0.47676709265E+03  0.48618205745E+03  0.10566000000E+00 0.  1.
         13    1    1    2    0    0 -0.67544126146E+02 -0.50167396733E+02 -0.11769701595E+03  0.14467748753E+03  0.10566000000E+00 0. -1.
         -4    1    1    2    0  502 -0.52180073117E+01 -0.11247529161E+02 -0.39138777120E+03  0.39158411862E+03  0.00000000000E+00 0. -1.
</event>
<event>
 5    1  0.4866530E-005  0.4053614E+03  0.7818608E-02  0.9713688E-01
         21   -1    0    0  501  502  0.00000000000E+00  0.00000000000E+00  0.16908486759E+04  0.16908486759E+04  0.00000000000E+00 0. -1.
          4   -1    0    0  502    0 -0.00000000000E+00 -0.00000000000E+00 -0.13176624717E+03  0.13176624717E+03  0.00000000000E+00 0.  1.
        -13    1    1    2    0    0 -0.39113692382E+03  0.18412007394E+03  0.84411052133E+03  0.94837275276E+03  0.10566000000E+00 0.  1.
         13    1    1    2    0    0  0.36791632026E+03 -0.13259571076E+03  0.41992008661E+03  0.57382656920E+03  0.10566000000E+00 0. -1.
          4    1    1    2  501    0  0.23220603563E+02 -0.51524363188E+02  0.29505182082E+03  0.30041560112E+03  0.00000000000E+00 0.  1.
</event>
<event>
 5    1  0.4866530E-005  0.2183613E+03  0.7818608E-02  0.1048229E+00
         21   -1    0    0  501  502  0.00000000000E+00  0.00000000000E+00  0.20464485194E+03  0.20464485194E+03  0.00000000000E+00 0. -1.
         -4   -1    0    0    0  501 -0.00000000000E+00 -0.00000000000E+00 -0.69533908731E+03  0.69533908731E+03  0.00000000000E+00 0. -1.
        -13    1    1    2    0    0 -0.19056395520E+03  0.13133612320E+03 -0.19346774578E+03  0.30165141819E+03  0.10566000000E+00 0.  1.
         13    1    1    2    0    0  0.14549173571E+02 -0.25215967258E+03 -0.29019959873E+03  0.38472327353E+03  0.10566000000E+00 0. -1.
         -4    1    1    2    0  502  0.17601478163E+03  0.12082354938E+03 -0.70268908642E+01  0.21360924753E+03  0.00000000000E+00 0. -1.
</event>
<event>
 5    1  0.4866530E-005  0.5284004E+03  0.7818608E-02  0.9417806E-01
         21   -1    0    0  501  502  0.00000000000E+00  0.00000000000E+00  0.13215916539E+04  0.13215916539E+04  0.00000000000E+00 0. -1.
          4   -1    0    0  502    0 -0.00000000000E+00 -0.00000000000E+00 -0.11308300717E+04  0.11308300717E+04  0.00000000000E+00 0.  1.
        -13    1    1    2    0    0  0.14000804889E+03 -0.34740552403E+03 -0.88201259256E+02  0.38480166993E+03  0.10566000000E+00 0.  1.
         13    1    1    2    0    0 -0.83090145776E+02  0.66414866902E+03 -0.74073694272E+03  0.99834295528E+03  0.10566000000E+00 0. -1.
          4    1    1    2  501    0 -0.56917903118E+02 -0.31674314499E+03  0.10196997842E+04  0.10692771004E+04  0.00000000000E+00 0.  1.
</event>
<event>
 5    1  0.4866530E-005  0.1277110E+03  0.7818608E-02  0.1125439E+00
         -4   -1    0    0    0  501 -0.00000000000E+00  0.00000000000E+00  0.12045783467E+03  0.12045783467E+03  0.00000000000E+00 0. -1.
         21   -1    0    0  501  502  0.00000000000E+00 -0.00000000000E+00 -0.69722651800E+03  0.69722651800E+03  0.00000000000E+00 0. -1.
        -13    1    1    2    0    0  0.10428501066E+03  0.67814813924E+02 -0.50530725747E+03  0.52039374328E+03  0.10566000000E+00 0.  1.
         13    1    1    2    0    0 -0.96640493216E+02 -0.83972160696E+02  0.75910100011E+02  0.14883905116E+03  0.10566000000E+00 0. -1.
         -4    1    1    2    0  502 -0.76445174463E+01  0.16157346772E+02 -0.14737152587E+03  0.14845155823E+03  0.00000000000E+00 0. -1.
</event>
<event>
 5    1  0.4866530E-005  0.2973278E+03  0.7818608E-02  0.1027548E+00
         21   -1    0    0  501  502  0.00000000000E+00  0.00000000000E+00  0.15204999778E+03  0.15204999778E+03  0.00000000000E+00 0.  1.
          4   -1    0    0  502    0 -0.00000000000E+00 -0.00000000000E+00 -0.24049043108E+04  0.24049043108E+04  0.00000000000E+00 0.  1.
        -13    1    1    2    0    0  0.12113881762E+03  0.26526273078E+03 -0.58153631700E+02  0.29735632752E+03  0.10566000000E+00 0.  1.
         13    1    1    2    0    0  0.16119592800E+03 -0.18869964489E+02 -0.71442223460E+03  0.73262496764E+03  0.10566000000E+00 0. -1.
          4    1    1    2  501    0 -0.28233474562E+03 -0.24639276629E+03 -0.14802784468E+04  0.15269730134E+04  0.00000000000E+00 0.  1.
</event>
<event>
 5    1  0.4866530E-005  0.1327067E+03  0.7818608E-02  0.1150727E+00
         -4   -1    0    0    0  501 -0.00000000000E+00  0.00000000000E+00  0.22053181055E+03  0.22053181055E+03  0.00000000000E+00 0. -1.
         21   -1    0    0  501  502  0.00000000000E+00 -0.00000000000E+00 -0.17157191554E+03  0.17157191554E+03  0.00000000000E+00 0. -1.
        -13    1    1    2    0    0  0.59524298002E+02 -0.76261825464E+01 -0.50004738116E+02  0.78113927766E+02  0.10566000000E+00 0.  1.
         13    1    1    2    0    0 -0.17184594440E+03 -0.22689043550E+02  0.94816133262E+02  0.19757512899E+03  0.10566000000E+00 0. -1.
         -4    1    1    2    0  502  0.11232164640E+03  0.30315226096E+02  0.41484998649E+01  0.11641466933E+03  0.00000000000E+00 0. -1.
</event>
<event>
 5    1  0.4866530E-005  0.3411172E+03  0.7818608E-02  0.9916476E-01
         21   -1    0    0  501  502  0.00000000000E+00  0.00000000000E+00  0.47365610455E+03  0.47365610455E+03  0.00000000000E+00 0. -1.
         -4   -1    0    0    0  501 -0.00000000000E+00 -0.00000000000E+00 -0.46585138503E+03  0.46585138503E+03  0.00000000000E+00 0. -1.
        -13    1    1    2    0    0  0.53089682132E+02  0.25889663585E+03  0.57800038622E+01  0.26434712409E+03  0.10566000000E+00 0.  1.
         13    1    1    2    0    0 -0.14943200593E+03 -0.40974973180E+03 -0.12728877706E+03  0.45434261415E+03  0.10566000000E+00 0. -1.
         -4    1    1    2    0  502  0.96342323794E+02  0.15085309595E+03  0.12931349271E+03  0.22081775135E+03  0.00000000000E+00 0. -1.
</event>
<event>
 5    1  0.4866530E-005  0.1662671E+03  0.7818608E-02  0.1086090E+00
         21   -1    0    0  501  502  0.00000000000E+00  0.00000000000E+00  0.79332254127E+02  0.79332254127E+02  0.00000000000E+00 0.  1.
         -4   -1    0    0    0  501 -0.00000000000E+00 -0.00000000000E+00 -0.48939623232E+03  0.48939623232E+03  0.00000000000E+00 0. -1.
        -13    1    1    2    0    0 -0.17043475036E+03 -0.37164288919E+02 -0.13226691404E+03  0.21891490634E+03  0.10566000000E+00 0.  1.
         13    1    1    2    0    0  0.16345924992E+03 -0.98533171971E+01 -0.23060165460E+03  0.28283060038E+03  0.10566000000E+00 0. -1.
         -4    1    1    2    0  502  0.69755004443E+01  0.47017606116E+02 -0.47195409557E+02  0.66982979738E+02  0.00000000000E+00 0. -1.
</event>
<event>
 5    1  0.4866530E-005  0.5362608E+02  0.7818608E-02  0.1280102E+00
          4   -1    0    0  502    0 -0.00000000000E+00  0.00000000000E+00  0.31716229910E+02  0.31716229910E+02  0.00000000000E+00 0.  1.
         21   -1    0    0  501  502  0.00000000000E+00 -0.00000000000E+00 -0.23213021310E+03  0.23213021310E+03  0.00000000000E+00 0.  1.
        -13    1    1    2    0    0 -0.51536325743E+02 -0.22687486720E+02 -0.46240961826E+02  0.72862559929E+02  0.10566000000E+00 0.  1.
         13    1    1    2    0    0  0.35857337709E+02 -0.36400133332E+02 -0.61384042454E+02  0.79866953154E+02  0.10566000000E+00 0. -1.
          4    1    1    2  501    0  0.15678988034E+02  0.59087620052E+02 -0.92788978913E+02  0.11111692993E+03  0.00000000000E+00 0.  1.
</event>
<event>
 5    1  0.4866530E-005  0.4122483E+03  0.7818608E-02  0.9840286E-01
         21   -1    0    0  501  502  0.00000000000E+00  0.00000000000E+00  0.38464941191E+03  0.38464941191E+03  0.00000000000E+00 0. -1.
         -4   -1    0    0    0  501 -0.00000000000E+00 -0.00000000000E+00 -0.10992962110E+04  0.10992962110E+04  0.00000000000E+00 0. -1.
        -13    1    1    2    0    0 -0.24738468274E+03  0.33523020493E+02 -0.15064988800E+03  0.29157910432E+03  0.10566000000E+00 0.  1.
         13    1    1    2    0    0  0.37536370791E+03 -0.39809848380E+03 -0.59055565298E+03  0.80506913148E+03  0.10566000000E+00 0. -1.
         -4    1    1    2    0  502 -0.12797902517E+03  0.36457546331E+03  0.26558741841E+02  0.38729738716E+03  0.00000000000E+00 0. -1.
</event>
<event>
 5    1  0.4866530E-005  0.3364993E+03  0.7818608E-02  0.1007413E+00
         -4   -1    0    0    0  501 -0.00000000000E+00  0.00000000000E+00  0.10744481707E+04  0.10744481707E+04  0.00000000000E+00 0. -1.
         21   -1    0    0  501  502  0.00000000000E+00 -0.00000000000E+00 -0.59205906159E+03  0.59205906159E+03  0.00000000000E+00 0. -1.
        -13    1    1    2    0    0  0.20296312575E+03 -0.60716080042E+02  0.59965530135E+03  0.63597717286E+03  0.10566000000E+00 0.  1.
         13    1    1    2    0    0  0.26266121225E+03  0.18027660315E+03 -0.36931391480E+03  0.48773286222E+03  0.10566000000E+00 0. -1.
         -4    1    1    2    0  502 -0.46562433800E+03 -0.11956052311E+03  0.25204772252E+03  0.54279719716E+03  0.00000000000E+00 0. -1.
</event>
<event>
 5    1  0.4866530E-005  0.1441336E+03  0.7818608E-02  0.1107046E+00
         21   -1    0    0  501  502  0.00000000000E+00  0.00000000000E+00  0.24240983403E+03  0.24240983403E+03  0.00000000000E+00 0.  1.
         -4   -1    0    0    0  501 -0.00000000000E+00 -0.00000000000E+00 -0.12402339569E+03  0.12402339569E+03  0.00000000000E+00 0. -1.
        -13    1    1    2    0    0 -0.13138305766E+03 -0.52759299043E+02  0.99471138749E+02  0.17303054668E+03  0.10566000000E+00 0.  1.
         13    1    1    2    0    0  0.12068723326E+03  0.83091979287E+02 -0.14233190595E+02  0.14721508134E+03  0.10566000000E+00 0. -1.
         -4    1    1    2    0  502  0.10695824393E+02 -0.30332680244E+02  0.33148490182E+02  0.46187601709E+02  0.00000000000E+00 0. -1.
</event>
<event>
 5    1  0.4866530E-005  0.2268174E+03  0.7818608E-02  0.1043159E+00
         21   -1    0    0  501  502  0.00000000000E+00  0.00000000000E+00  0.42422199626E+03  0.42422199626E+03  0.00000000000E+00 0. -1.
         -4   -1    0    0    0  501 -0.00000000000E+00 -0.00000000000E+00 -0.74310039887E+03  0.74310039887E+03  0.00000000000E+00 0. -1.
        -13    1    1    2    0    0  0.13015666212E+03 -0.70569030495E+02  0.17300965188E+02  0.14906401082E+03  0.10566000000E+00 0.  1.
         13    1    1    2    0    0 -0.23068538930E+03  0.93659527801E+02 -0.64568178253E+03  0.69202083165E+03  0.10566000000E+00 0. -1.
         -4    1    1    2    0  502  0.10052872717E+03 -0.23090497305E+02  0.30950241472E+03  0.32623755267E+03  0.00000000000E+00 0. -1.
</event>
<event>
 5    1  0.4866530E-005  0.3238566E+03  0.7818608E-02  0.9979173E-01
         21   -1    0    0  501  502  0.00000000000E+00  0.00000000000E+00  0.14131148407E+03  0.14131148407E+03  0.00000000000E+00 0.  1.
         -4   -1    0    0    0  501 -0.00000000000E+00 -0.00000000000E+00 -0.16430344906E+04  0.16430344906E+04  0.00000000000E+00 0. -1.
        -13    1    1    2    0    0  0.10674467494E+03  0.30394010920E+03 -0.13009432277E+04  0.13402340499E+04  0.10566000000E+00 0.  1.
         13    1    1    2    0    0 -0.11485276745E+03 -0.31080679055E+03 -0.23633918796E+03  0.40699906901E+03  0.10566000000E+00 0. -1.
         -4    1    1    2    0  502  0.81080925045E+01  0.68666813421E+01  0.35559409196E+02  0.37112855712E+02  0.00000000000E+00 0. -1.
</event>
<event>
 5    1  0.4866530E-005  0.4092711E+03  0.7818608E-02  0.9702646E-01
         21   -1    0    0  501  502  0.00000000000E+00  0.00000000000E+00  0.33196670838E+03  0.33196670838E+03  0.00000000000E+00 0. -1.
          4   -1    0    0  502    0 -0.00000000000E+00 -0.00000000000E+00 -0.21276836502E+04  0.21276836502E+04  0.00000000000E+00 0.  1.
        -13    1    1    2    0    0  0.69556394917E+02  0.40410030084E+03 -0.19487400007E+04  0.19914122493E+04  0.10566000000E+00 0.  1.
         13    1    1    2    0    0 -0.71527132758E+02 -0.39362637542E+03  0.97607648836E+02  0.41180713741E+03  0.10566000000E+00 0. -1.
          4    1    1    2  501    0  0.19707378401E+01 -0.10473925421E+02  0.55415410018E+02  0.56430971893E+02  0.00000000000E+00 0.  1.
</event>
<event>
 5    1  0.4866530E-005  0.1310216E+03  0.7818608E-02  0.1121498E+00
         21   -1    0    0  501  502  0.00000000000E+00  0.00000000000E+00  0.63595867479E+03  0.63595867479E+03  0.00000000000E+00 0.  1.
         -4   -1    0    0    0  501 -0.00000000000E+00 -0.00000000000E+00 -0.61353829256E+02  0.61353829256E+02  0.00000000000E+00 0. -1.
        -13    1    1    2    0    0  0.10026377714E+03 -0.55876679061E+02  0.43938733768E+03  0.45413243877E+03  0.10566000000E+00 0.  1.
         13    1    1    2    0    0 -0.11987483004E+03  0.60156955100E+02  0.31810957548E+02  0.13784332522E+03  0.10566000000E+00 0. -1.
         -4    1    1    2    0  502  0.19611052898E+02 -0.42802760386E+01  0.10340655031E+03  0.10533674005E+03  0.00000000000E+00 0. -1.
</event>
<event>
 5    1  0.4866530E-005  0.6903180E+02  0.7818608E-02  0.1259207E+00
         -4   -1    0    0    0  501 -0.00000000000E+00  0.00000000000E+00  0.38532340033E+03  0.38532340033E+03  0.00000000000E+00 0. -1.
         21   -1    0    0  501  502  0.00000000000E+00 -0.00000000000E+00 -0.36533165293E+03  0.36533165293E+03  0.00000000000E+00 0. -1.
        -13    1    1    2    0    0 -0.34708976670E+02 -0.11719041900E+02 -0.15735250776E+03  0.16156073739E+03  0.10566000000E+00 0.  1.
         13    1    1    2    0    0  0.64230185097E+02  0.73683759090E+02  0.37098615762E+03  0.38364769430E+03  0.10566000000E+00 0. -1.
         -4    1    1    2    0  502 -0.29521208427E+02 -0.61964717191E+02 -0.19364190247E+03  0.20544662157E+03  0.00000000000E+00 0. -1.
</event>
<event>
 5    1  0.4866530E-005  0.2980717E+02  0.7818608E-02  0.1406464E+00
         21   -1    0    0  501  502  0.00000000000E+00  0.00000000000E+00  0.95100807189E+02  0.95100807189E+02  0.00000000000E+00 0.  1.
         -4   -1    0    0    0  501 -0.00000000000E+00 -0.00000000000E+00 -0.17831177813E+02  0.17831177813E+02  0.00000000000E+00 0. -1.
        -13    1    1    2    0    0 -0.31098066654E+02 -0.21532374566E+02  0.46002757201E+02  0.59556676689E+02  0.10566000000E+00 0.  1.
         13    1    1    2    0    0  0.17473208092E+02  0.20614976108E+02  0.11544306016E+02  0.29386602498E+02  0.10566000000E+00 0. -1.
         -4    1    1    2    0  502  0.13624858562E+02  0.91739845810E+00  0.19722566160E+02  0.23988705816E+02  0.00000000000E+00 0. -1.
</event>
<event>
 5    1  0.4866530E-005  0.1701447E+03  0.7818608E-02  0.1082783E+00
         21   -1    0    0  501  502  0.00000000000E+00  0.00000000000E+00  0.14980533262E+03  0.14980533262E+03  0.00000000000E+00 0. -1.
          4   -1    0    0  502    0 -0.00000000000E+00 -0.00000000000E+00 -0.43110599500E+03  0.43110599500E+03  0.00000000000E+00 0.  1.
        -13    1    1    2    0    0  0.72461109340E+02  0.15224828297E+03 -0.32689458060E+03  0.36781820240E+03  0.10566000000E+00 0.  1.
         13    1    1    2    0    0 -0.85383478327E+02 -0.15566392485E+03  0.13180324144E+02  0.17803181733E+03  0.10566000000E+00 0. -1.
          4    1    1    2  501    0  0.12922368987E+02  0.34156418896E+01  0.32413594071E+02  0.35061307882E+02  0.00000000000E+00 0.  1.
</event>
<event>
 5    1  0.4866530E-005  0.3845921E+03  0.7818608E-02  0.9774629E-01
          4   -1    0    0  502    0 -0.00000000000E+00  0.00000000000E+00  0.15671258908E+04  0.15671258908E+04  0.00000000000E+00 0.  1.
         21   -1    0    0  501  502  0.00000000000E+00 -0.00000000000E+00 -0.93106411253E+03  0.93106411253E+03  0.00000000000E+00 0.  1.
        -13    1    1    2    0    0  0.23073497042E+03  0.26832150221E+03  0.80799876166E+03  0.88209810403E+03  0.10566000000E+00 0.  1.
         13    1    1    2    0    0 -0.94104194608E+02 -0.49297441260E+03  0.61070116878E+03  0.79046524252E+03  0.10566000000E+00 0. -1.
          4    1    1    2  501    0 -0.13663077581E+03  0.22465291039E+03 -0.78263815220E+03  0.82562665674E+03  0.00000000000E+00 0.  1.
</event>
<event>
 5    1  0.4866530E-005  0.5454679E+03  0.7818608E-02  0.9435109E-01
         21   -1    0    0  501  502  0.00000000000E+00  0.00000000000E+00  0.43177907072E+03  0.43177907072E+03  0.00000000000E+00 0. -1.
         -4   -1    0    0    0  501 -0.00000000000E+00 -0.00000000000E+00 -0.19861366113E+04  0.19861366113E+04  0.00000000000E+00 0. -1.
        -13    1    1    2    0    0 -0.34120220427E+03 -0.49369284225E+03 -0.90883492231E+03  0.10890971003E+04  0.10566000000E+00 0.  1.
         13    1    1    2    0    0 -0.33351095504E+03  0.29559934704E+03 -0.34730610195E+03  0.56500448734E+03  0.10566000000E+00 0. -1.
         -4    1    1    2    0  502  0.67471315931E+03  0.19809349522E+03 -0.29821651635E+03  0.76381409441E+03  0.00000000000E+00 0. -1.
</event>
<event>
 5    1  0.4866530E-005  0.2733160E+03  0.7818608E-02  0.1018971E+00
         21   -1    0    0  501  502  0.00000000000E+00  0.00000000000E+00  0.32203943219E+02  0.32203943219E+02  0.00000000000E+00 0.  1.
         -4   -1    0    0    0  501 -0.00000000000E+00 -0.00000000000E+00 -0.25486497997E+04  0.25486497997E+04  0.00000000000E+00 0. -1.
        -13    1    1    2    0    0  0.10402714120E+03 -0.24455213749E+03 -0.98323073252E+03  0.10185136615E+04  0.10566000000E+00 0.  1.
         13    1    1    2    0    0 -0.12148470472E+03  0.25121845045E+03 -0.14761150443E+04  0.15022599238E+04  0.10566000000E+00 0. -1.
         -4    1    1    2    0  502  0.17457563517E+02 -0.66663129608E+01 -0.57100079589E+02  0.60080157635E+02  0.00000000000E+00 0. -1.
</event>
<event>
 5    1  0.4866530E-005  0.4171853E+03  0.7818608E-02  0.9944081E-01
         -4   -1    0    0    0  501 -0.00000000000E+00  0.00000000000E+00  0.24670876145E+04  0.24670876145E+04  0.00000000000E+00 0. -1.
         21   -1    0    0  501  502  0.00000000000E+00 -0.00000000000E+00 -0.14023925343E+03  0.14023925343E+03  0.00000000000E+00 0. -1.
        -13    1    1    2    0    0  0.15805441242E+03 -0.62939952486E+02  0.33856818297E+03  0.37890772041E+03  0.10566000000E+00 0.  1.
         13    1    1    2    0    0 -0.30986875838E+03 -0.32388100642E+03  0.15931399883E+04  0.16549962499E+04  0.10566000000E+00 0. -1.
         -4    1    1    2    0  502  0.15181434596E+03  0.38682095891E+03  0.39514018977E+03  0.57342289757E+03  0.00000000000E+00 0. -1.
</event>
<event>
 5    1  0.4866530E-005  0.4344368E+02  0.7818608E-02  0.1321058E+00
         21   -1    0    0  501  502  0.00000000000E+00  0.00000000000E+00  0.25313148440E+03  0.25313148440E+03  0.00000000000E+00 0. -1.
         -4   -1    0    0    0  501 -0.00000000000E+00 -0.00000000000E+00 -0.15240980606E+02  0.15240980606E+02  0.00000000000E+00 0. -1.
        -13    1    1    2    0    0 -0.14652518099E+02  0.36296661632E+02  0.13665213812E+03  0.14214767655E+03  0.10566000000E+00 0.  1.
         13    1    1    2    0    0 -0.81742620969E+01 -0.46299700283E+02  0.46727702991E+02  0.66287028882E+02  0.10566000000E+00 0. -1.
         -4    1    1    2    0  502  0.22826780196E+02  0.10003038652E+02  0.54510662678E+02  0.59937759567E+02  0.00000000000E+00 0. -1.
</event>
<event>
 5    1  0.4866530E-005  0.4813305E+03  0.7818608E-02  0.9526394E-01
         -4   -1    0    0    0  501 -0.00000000000E+00  0.00000000000E+00  0.11863292426E+04  0.11863292426E+04  0.00000000000E+00 0. -1.
         21   -1    0    0  501  502  0.00000000000E+00 -0.00000000000E+00 -0.58275182794E+03  0.58275182794E+03  0.00000000000E+00 0.  1.
        -13    1    1    2    0    0 -0.46595294308E+03 -0.62218821636E+02  0.50903561312E+03  0.69289291635E+03  0.10566000000E+00 0.  1.
         13    1    1    2    0    0  0.12725647989E+03  0.49971458851E+03  0.86382903836E+02  0.52284882986E+03  0.10566000000E+00 0. -1.
         -4    1    1    2    0  502  0.33869646319E+03 -0.43749576688E+03  0.81588976787E+01  0.55333932431E+03  0.00000000000E+00 0. -1.
</event>
<event>
 5    1  0.4866530E-005  0.1229799E+03  0.7818608E-02  0.1159857E+00
          4   -1    0    0  502    0 -0.00000000000E+00  0.00000000000E+00  0.34499057837E+03  0.34499057837E+03  0.00000000000E+00 0.  1.
         21   -1    0    0  501  502  0.00000000000E+00 -0.00000000000E+00 -0.77312001917E+02  0.77312001917E+02  0.00000000000E+00 0.  1.
        -13    1    1    2    0    0 -0.13259893639E+03 -0.32387061149E+02  0.86475598163E+02  0.16158415734E+03  0.10566000000E+00 0.  1.
         13    1    1    2    0    0  0.18055453195E+02  0.57491398466E+02  0.10439994532E+03  0.12054302150E+03  0.10566000000E+00 0. -1.
          4    1    1    2  501    0  0.11454348320E+03 -0.25104337317E+02  0.76803032975E+02  0.14017540144E+03  0.00000000000E+00 0.  1.
</event>
<event>
 5    1  0.4866530E-005  0.1210070E+03  0.7818608E-02  0.1133833E+00
         -4   -1    0    0    0  501 -0.00000000000E+00  0.00000000000E+00  0.56131123385E+03  0.56131123385E+03  0.00000000000E+00 0. -1.
         21   -1    0    0  501  502  0.00000000000E+00 -0.00000000000E+00 -0.47627870297E+02  0.47627870297E+02  0.00000000000E+00 0. -1.
        -13    1    1    2    0    0 -0.90751381626E+02  0.63119315772E+02  0.20872718507E+03  0.23619252791E+03  0.10566000000E+00 0.  1.
         13    1    1    2    0    0  0.13753436616E+03 -0.51639524892E+02  0.14787453427E+03  0.20844479235E+03  0.10566000000E+00 0. -1.
         -4    1    1    2    0  502 -0.46782984534E+02 -0.11479790880E+02  0.15708164421E+03  0.16430178389E+03  0.00000000000E+00 0. -1.
</event>
<event>
 5    1  0.4866530E-005  0.4253817E+03  0.7818608E-02  0.9680238E-01
         21   -1    0    0  501  502  0.00000000000E+00  0.00000000000E+00  0.21800002789E+03  0.21800002789E+03  0.00000000000E+00 0. -1.
         -4   -1    0    0    0  501 -0.00000000000E+00 -0.00000000000E+00 -0.39448450006E+04  0.39448450006E+04  0.00000000000E+00 0. -1.
        -13    1    1    2    0    0 -0.41017935824E+03 -0.16444477033E+03 -0.24842660917E+04  0.25232651890E+04  0.10566000000E+00 0.  1.
         13    1    1    2    0    0 -0.10792219023E+03  0.39389735873E+03 -0.20411132605E+03  0.45657833166E+03  0.10566000000E+00 0. -1.
         -4    1    1    2    0  502  0.51810154847E+03 -0.22945258839E+03 -0.10384675549E+04  0.11830015078E+04  0.00000000000E+00 0. -1.
</event>
<event>
 5    1  0.4866530E-005  0.4402184E+03  0.7818608E-02  0.9619608E-01
         21   -1    0    0  501  502  0.00000000000E+00  0.00000000000E+00  0.26887420999E+03  0.26887420999E+03  0.00000000000E+00 0.  1.
          4   -1    0    0  502    0 -0.00000000000E+00 -0.00000000000E+00 -0.24345317349E+04  0.24345317349E+04  0.00000000000E+00 0.  1.
        -13    1    1    2    0    0  0.32915098917E+03  0.37325643799E+03 -0.11091043104E+04  0.12156369214E+04  0.10566000000E+00 0.  1.
         13    1    1    2    0    0  0.81078391323E+02 -0.47046457405E+03 -0.93365990000E+03  0.10486331298E+04  0.10566000000E+00 0. -1.
          4    1    1    2  501    0 -0.41022938049E+03  0.97208136066E+02 -0.12289331453E+03  0.43913589365E+03  0.00000000000E+00 0.  1.
</event>
<event>
 5    1  0.4866530E-005  0.3454845E+03  0.7818608E-02  0.9992386E-01
          4   -1    0    0  502    0 -0.00000000000E+00  0.00000000000E+00  0.10859745748E+04  0.10859745748E+04  0.00000000000E+00 0.  1.
         21   -1    0    0  501  502  0.00000000000E+00 -0.00000000000E+00 -0.39613287006E+03  0.39613287006E+03  0.00000000000E+00 0.  1.
        -13    1    1    2    0    0  0.62902263724E+02 -0.53796930213E+03  0.68500858487E+03  0.87327225842E+03  0.10566000000E+00 0.  1.
         13    1    1    2    0    0  0.66483442512E+02  0.24662064189E+03  0.10279960701E+03  0.27533535824E+03  0.10566000000E+00 0. -1.
          4    1    1    2  501    0 -0.12938570624E+03  0.29134866024E+03 -0.97966487149E+02  0.33349982819E+03  0.00000000000E+00 0.  1.
</event>
<event>
 5    1  0.4866530E-005  0.4426882E+02  0.7818608E-02  0.1363881E+00
         21   -1    0    0  501  502  0.00000000000E+00  0.00000000000E+00  0.39561671376E+02  0.39561671376E+02  0.00000000000E+00 0.  1.
          4   -1    0    0  502    0 -0.00000000000E+00 -0.00000000000E+00 -0.10895721190E+03  0.10895721190E+03  0.00000000000E+00 0.  1.
        -13    1    1    2    0    0 -0.28116997749E+02 -0.39686827076E+02 -0.70676468468E+02  0.85795012471E+02  0.10566000000E+00 0.  1.
         13    1    1    2    0    0 -0.91177597157E+01  0.16484357283E+02  0.30697038410E+00  0.18840726422E+02  0.10566000000E+00 0. -1.
          4    1    1    2  501    0  0.37234757465E+02  0.23202469793E+02  0.97395755570E+00  0.43883144387E+02  0.00000000000E+00 0.  1.
</event>
<event>
 5    1  0.4866530E-005  0.4686186E+03  0.7818608E-02  0.1003397E+00
         21   -1    0    0  501  502  0.00000000000E+00  0.00000000000E+00  0.27490254528E+03  0.27490254528E+03  0.00000000000E+00 0. -1.
         -4   -1    0    0    0  501 -0.00000000000E+00 -0.00000000000E+00 -0.11404153783E+04  0.11404153783E+04  0.00000000000E+00 0. -1.
        -13    1    1    2    0    0  0.63141911389E+02  0.63206916898E+02 -0.26140769051E+03  0.27625351969E+03  0.10566000000E+00 0.  1.
         13    1    1    2    0    0 -0.49247026128E+03  0.44935205699E+00 -0.15930244451E+03  0.51759486102E+03  0.10566000000E+00 0. -1.
         -4    1    1    2    0  502  0.42932834989E+03 -0.63656268955E+02 -0.44480269804E+03  0.62146954292E+03  0.00000000000E+00 0. -1.
</event>
<event>
 5    1  0.4866530E-005  0.2073990E+03  0.7818608E-02  0.1055179E+00
         -4   -1    0    0    0  501 -0.00000000000E+00  0.00000000000E+00  0.69064177883E+03  0.69064177883E+03  0.00000000000E+00 0. -1.
         21   -1    0    0  501  502  0.00000000000E+00 -0.00000000000E+00 -0.23022833683E+03  0.23022833683E+03  0.00000000000E+00 0.  1.
        -13    1    1    2    0    0  0.18686787121E+03 -0.10042603066E+03  0.13202739156E+03  0.24987243188E+03  0.10566000000E+00 0.  1.
         13    1    1    2    0    0 -0.20865519530E+03  0.22737618119E+02  0.46621807993E+03  0.51128592688E+03  0.10566000000E+00 0. -1.
         -4    1    1    2    0  502  0.21787324083E+02  0.77688412544E+02 -0.13783202950E+03  0.15971175690E+03  0.00000000000E+00 0. -1.
</event>
<event>
 5    1  0.4866530E-005  0.1580083E+03  0.7818608E-02  0.1093472E+00
         21   -1    0    0  501  502  0.00000000000E+00  0.00000000000E+00  0.17028093834E+03  0.17028093834E+03  0.00000000000E+00 0.  1.
         -4   -1    0    0    0  501 -0.00000000000E+00 -0.00000000000E+00 -0.26001002185E+03  0.26001002185E+03  0.00000000000E+00 0. -1.
        -13    1    1    2    0    0  0.10494535793E+03 -0.16184188146E+03 -0.35395091389E+02  0.19611003647E+03  0.10566000000E+00 0.  1.
         13    1    1    2    0    0 -0.81608336488E+02  0.11559979442E+03 -0.93186823868E+02  0.16943148574E+03  0.10566000000E+00 0. -1.
         -4    1    1    2    0  502 -0.23337021442E+02  0.46242087042E+02  0.38852831752E+02  0.64749437982E+02  0.00000000000E+00 0. -1.
</event>
<event>
 5    1  0.4866530E-005  0.3552775E+03  0.7818608E-02  0.1001198E+00
         21   -1    0    0  501  502  0.00000000000E+00  0.00000000000E+00  0.65016349993E+03  0.65016349993E+03  0.00000000000E+00 0. -1.
         -4   -1    0    0    0  501 -0.00000000000E+00 -0.00000000000E+00 -0.13601222754E+04  0.13601222754E+04  0.00000000000E+00 0. -1.
        -13    1    1    2    0    0  0.17363015591E+03 -0.13555140544E+03 -0.93086794802E+03  0.95657553930E+03  0.10566000000E+00 0.  1.
         13    1    1    2    0    0 -0.34702667047E+03 -0.17872282847E+03 -0.24854749721E+03  0.46275828352E+03  0.10566000000E+00 0. -1.
         -4    1    1    2    0  502  0.17339651456E+03  0.31427423392E+03  0.46945666978E+03  0.59095195250E+03  0.00000000000E+00 0. -1.
</event>
<event>
 5    1  0.4866530E-005  0.3005921E+03  0.7818608E-02  0.1011628E+00
          4   -1    0    0  502    0 -0.00000000000E+00  0.00000000000E+00  0.21352027763E+04  0.21352027763E+04  0.00000000000E+00 0.  1.
         21   -1    0    0  501  502  0.00000000000E+00 -0.00000000000E+00 -0.28646586575E+03  0.28646586575E+03  0.00000000000E+00 0.  1.
        -13    1    1    2    0    0 -0.27109492318E+03  0.46265304465E+02 -0.93126398310E+02  0.29035404767E+03  0.10566000000E+00 0.  1.
         13    1    1    2    0    0 -0.24060027719E+03  0.97255789902E+02  0.11411606064E+04  0.11702968524E+04  0.10566000000E+00 0. -1.
          4    1    1    2  501    0  0.51169520037E+03 -0.14352109437E+03  0.80070270251E+03  0.96101774199E+03  0.00000000000E+00 0.  1.
</event>
<event>
 5    1  0.4866530E-005  0.1414716E+03  0.7818608E-02  0.1109841E+00
          4   -1    0    0  502    0 -0.00000000000E+00  0.00000000000E+00  0.10349752756E+03  0.10349752756E+03  0.00000000000E+00 0.  1.
         21   -1    0    0  501  502  0.00000000000E+00 -0.00000000000E+00 -0.25875123692E+03  0.25875123692E+03  0.00000000000E+00 0. -1.
        -13    1    1    2    0    0 -0.20114197986E+02 -0.13615308311E+03 -0.16341876159E+02  0.13859765901E+03  0.10566000000E+00 0.  1.
         13    1    1    2    0    0  0.15566315458E+02  0.14725395356E+03 -0.89979301353E+02  0.17326950930E+03  0.10566000000E+00 0. -1.
          4    1    1    2  501    0  0.45478825282E+01 -0.11100870447E+02 -0.48932531848E+02  0.50381596176E+02  0.00000000000E+00 0.  1.
</event>
<event>
 5    1  0.4866530E-005  0.5884680E+02  0.7818608E-02  0.1266428E+00
         21   -1    0    0  501  502  0.00000000000E+00  0.00000000000E+00  0.25019987397E+03  0.25019987397E+03  0.00000000000E+00 0.  1.
         -4   -1    0    0    0  501 -0.00000000000E+00 -0.00000000000E+00 -0.75688603677E+02  0.75688603677E+02  0.00000000000E+00 0. -1.
        -13    1    1    2    0    0 -0.31082133254E+02  0.55056679271E+02 -0.36885226509E+02  0.73197459236E+02  0.10566000000E+00 0.  1.
         13    1    1    2    0    0 -0.46328270959E+02 -0.15635284859E+02  0.10100745735E+03  0.11221982190E+03  0.10566000000E+00 0. -1.
         -4    1    1    2    0  502  0.77410404213E+02 -0.39421394412E+02  0.11038903944E+03  0.14047119650E+03  0.00000000000E+00 0. -1.
</event>
<event>
 5    1  0.7084384E-005  0.7314276E+03  0.7818608E-02  0.9078594E-01
         21   -1    0    0  501  502  0.00000000000E+00  0.00000000000E+00  0.78751604491E+03  0.78751604491E+03  0.00000000000E+00 0.  1.
         -4   -1    0    0    0  501 -0.00000000000E+00 -0.00000000000E+00 -0.17234792874E+04  0.17234792874E+04  0.00000000000E+00 0. -1.
        -13    1    1    2    0    0 -0.74724676830E+03  0.46413637612E+03 -0.75984295457E+03  0.11623947846E+04  0.10566000000E+00 0.  1.
         13    1    1    2    0    0  0.55605587185E+03 -0.29853807129E+03 -0.58973506974E+03  0.86377692506E+03  0.10566000000E+00 0. -1.
         -4    1    1    2    0  502  0.19119089645E+03 -0.16559830483E+03  0.41361478178E+03  0.48482362273E+03  0.00000000000E+00 0. -1.
</event>
<event>
 5    1  0.4866530E-005  0.4266252E+03  0.7818608E-02  0.9655157E-01
         21   -1    0    0  501  502  0.00000000000E+00  0.00000000000E+00  0.22782708525E+03  0.22782708525E+03  0.00000000000E+00 0. -1.
         -4   -1    0    0    0  501 -0.00000000000E+00 -0.00000000000E+00 -0.30063655674E+04  0.30063655674E+04  0.00000000000E+00 0. -1.
        -13    1    1    2    0    0 -0.44744030708E+02  0.39957650986E+03 -0.14632557919E+04  0.15174916603E+04  0.10566000000E+00 0.  1.
         13    1    1    2    0    0 -0.19174015995E+03 -0.46480617953E+03 -0.13751483430E+04  0.14641864806E+04  0.10566000000E+00 0. -1.
         -4    1    1    2    0  502  0.23648419065E+03  0.65229669665E+02  0.59865652792E+02  0.25251451170E+03  0.00000000000E+00 0. -1.
</event>
<event>
 5    1  0.4866530E-005  0.2430446E+03  0.7818608E-02  0.1034061E+00
         -4   -1    0    0    0  501 -0.00000000000E+00  0.00000000000E+00  0.44829644754E+03  0.44829644754E+03  0.00000000000E+00 0. -1.
         21   -1    0    0  501  502  0.00000000000E+00 -0.00000000000E+00 -0.53123017885E+03  0.53123017885E+03  0.00000000000E+00 0.  1.
        -13    1    1    2    0    0 -0.28017860317E+03 -0.83888664191E+02 -0.19823218643E+03  0.35331765956E+03  0.10566000000E+00 0.  1.
         13    1    1    2    0    0  0.22488685034E+03  0.72354867702E+02  0.32907755185E+03  0.40509427129E+03  0.10566000000E+00 0. -1.
         -4    1    1    2    0  502  0.55291752831E+02  0.11533796488E+02 -0.21377909672E+03  0.22111469555E+03  0.00000000000E+00 0. -1.
</event>
<event>
 5    1  0.4866530E-005  0.4933281E+03  0.7818608E-02  0.1001975E+00
         21   -1    0    0  501  502  0.00000000000E+00  0.00000000000E+00  0.35032558063E+03  0.35032558063E+03  0.00000000000E+00 0. -1.
         -4   -1    0    0    0  501 -0.00000000000E+00 -0.00000000000E+00 -0.10437338898E+04  0.10437338898E+04  0.00000000000E+00 0. -1.
        -13    1    1    2    0    0 -0.64432951179E+02  0.47773511081E+02 -0.29664518434E+03  0.30729837311E+03  0.10566000000E+00 0.  1.
         13    1    1    2    0    0 -0.45996001566E+03 -0.10647719800E+03 -0.10446464002E+03  0.48354263709E+03  0.10566000000E+00 0. -1.
         -4    1    1    2    0  502  0.52439296684E+03  0.58703686921E+02 -0.29229848478E+03  0.60321846021E+03  0.00000000000E+00 0. -1.
</event>
<event>
 5    1  0.4866530E-005  0.6122482E+02  0.7818608E-02  0.1260495E+00
         21   -1    0    0  501  502  0.00000000000E+00  0.00000000000E+00  0.71853188182E+02  0.71853188182E+02  0.00000000000E+00 0. -1.
         -4   -1    0    0    0  501 -0.00000000000E+00 -0.00000000000E+00 -0.30717143795E+03  0.30717143795E+03  0.00000000000E+00 0. -1.
        -13    1    1    2    0    0 -0.34655039101E+02 -0.37596558098E+02 -0.39452383830E+02  0.64583083465E+02  0.10566000000E+00 0.  1.
         13    1    1    2    0    0  0.71595228624E+02 -0.11922863556E+02 -0.23185043401E+03  0.24294580950E+03  0.10566000000E+00 0. -1.
         -4    1    1    2    0  502 -0.36940189523E+02  0.49519421654E+02  0.35984568069E+02  0.71495733174E+02  0.00000000000E+00 0. -1.
</event>
<event>
 5    1  0.4866530E-005  0.4647734E+03  0.7818608E-02  0.9571766E-01
         -4   -1    0    0    0  501 -0.00000000000E+00  0.00000000000E+00  0.38194161166E+03  0.38194161166E+03  0.00000000000E+00 0. -1.
         21   -1    0    0  501  502  0.00000000000E+00 -0.00000000000E+00 -0.15762417750E+04  0.15762417750E+04  0.00000000000E+00 0.  1.
        -13    1    1    2    0    0 -0.16300621134E+03 -0.41249654056E+03 -0.23316563357E+03  0.50108945784E+03  0.10566000000E+00 0.  1.
         13    1    1    2    0    0 -0.13355675559E+03 -0.11181049528E+03  0.12548901358E+03  0.21467765955E+03  0.10566000000E+00 0. -1.
         -4    1    1    2    0  502  0.29656296693E+03  0.52430703584E+03 -0.10866235433E+04  0.12424162693E+04  0.00000000000E+00 0. -1.
</event>
<event>
 5    1  0.4866530E-005  0.4450280E+03  0.7818608E-02  0.9877291E-01
          4   -1    0    0  502    0 -0.00000000000E+00  0.00000000000E+00  0.32627842844E+03  0.32627842844E+03  0.00000000000E+00 0.  1.
         21   -1    0    0  501  502  0.00000000000E+00 -0.00000000000E+00 -0.10141716778E+04  0.10141716778E+04  0.00000000000E+00 0.  1.
        -13    1    1    2    0    0  0.37648532489E+03 -0.20730027958E+03 -0.43843229493E+03  0.61395235497E+03  0.10566000000E+00 0.  1.
         13    1    1    2    0    0  0.11594284759E+03  0.13128729114E+03 -0.11797443021E+03  0.21118019336E+03  0.10566000000E+00 0. -1.
          4    1    1    2  501    0 -0.49242817248E+03  0.76012988440E+02 -0.13148652425E+03  0.51531755794E+03  0.00000000000E+00 0.  1.
</event>
<event>
 5    1  0.4866530E-005  0.1921934E+03  0.7818608E-02  0.1065623E+00
         21   -1    0    0  501  502  0.00000000000E+00  0.00000000000E+00  0.78351281514E+02  0.78351281514E+02  0.00000000000E+00 0.  1.
         -4   -1    0    0    0  501 -0.00000000000E+00 -0.00000000000E+00 -0.83886687919E+03  0.83886687919E+03  0.00000000000E+00 0. -1.
        -13    1    1    2    0    0 -0.14817952883E+03  0.10319608887E+03 -0.27961411370E+03  0.33285232351E+03  0.10566000000E+00 0.  1.
         13    1    1    2    0    0  0.16758358815E+03 -0.11009118050E+03 -0.51041025031E+03  0.54838213121E+03  0.10566000000E+00 0. -1.
         -4    1    1    2    0  502 -0.19404059322E+02  0.68950916379E+01  0.29508766326E+02  0.35983705992E+02  0.00000000000E+00 0. -1.
</event>
<event>
 5    1  0.4866530E-005  0.3176584E+03  0.7818608E-02  0.1006343E+00
         21   -1    0    0  501  502  0.00000000000E+00  0.00000000000E+00  0.20776531361E+03  0.20776531361E+03  0.00000000000E+00 0.  1.
          4   -1    0    0  502    0 -0.00000000000E+00 -0.00000000000E+00 -0.21761819276E+04  0.21761819276E+04  0.00000000000E+00 0.  1.
        -13    1    1    2    0    0  0.39203213294E+03  0.14182382438E+03 -0.12219245749E+04  0.12910859260E+04  0.10566000000E+00 0.  1.
         13    1    1    2    0    0 -0.93794703710E+02 -0.24322731340E+03 -0.73254577231E+03  0.77754761406E+03  0.10566000000E+00 0. -1.
          4    1    1    2  501    0 -0.29823742923E+03  0.10140348902E+03 -0.13946266783E+02  0.31531370116E+03  0.00000000000E+00 0.  1.
</event>
<event>
 5    1  0.4866530E-005  0.4937127E+03  0.7818608E-02  0.9737662E-01
          4   -1    0    0  502    0 -0.00000000000E+00  0.00000000000E+00  0.80921013272E+03  0.80921013272E+03  0.00000000000E+00 0.  1.
         21   -1    0    0  501  502  0.00000000000E+00 -0.00000000000E+00 -0.69136551806E+03  0.69136551806E+03  0.00000000000E+00 0.  1.
        -13    1    1    2    0    0 -0.57633051639E+03 -0.45248315724E+02 -0.31879102943E+03  0.66017573858E+03  0.10566000000E+00 0.  1.
         13    1    1    2    0    0  0.18748328790E+03  0.86502719941E+02  0.39685113748E+03  0.44735169641E+03  0.10566000000E+00 0. -1.
          4    1    1    2  501    0  0.38884722849E+03 -0.41254404217E+02  0.39784506604E+02  0.39304821579E+03  0.00000000000E+00 0.  1.
</event>
<event>
 5    1  0.4866530E-005  0.6108783E+03  0.7818608E-02  0.9263376E-01
          4   -1    0    0  502    0 -0.00000000000E+00  0.00000000000E+00  0.21808618895E+04  0.21808618895E+04  0.00000000000E+00 0.  1.
         21   -1    0    0  501  502  0.00000000000E+00 -0.00000000000E+00 -0.27146206283E+03  0.27146206283E+03  0.00000000000E+00 0. -1.
        -13    1    1    2    0    0 -0.48858049973E+03 -0.52251111782E+03  0.13243212136E+04  0.15051762225E+04  0.10566000000E+00 0.  1.
         13    1    1    2    0    0  0.35609569127E+03  0.34494640166E+03  0.51483341305E+03  0.71473464706E+03  0.10566000000E+00 0. -1.
          4    1    1    2  501    0  0.13248480845E+03  0.17756471616E+03  0.70245200032E+02  0.23241308273E+03  0.00000000000E+00 0.  1.
</event>
<event>
 5    1  0.4866530E-005  0.3356385E+03  0.7818608E-02  0.9935940E-01
         21   -1    0    0  501  502  0.00000000000E+00  0.00000000000E+00  0.26876837938E+03  0.26876837938E+03  0.00000000000E+00 0.  1.
          4   -1    0    0  502    0 -0.00000000000E+00 -0.00000000000E+00 -0.20214694562E+04  0.20214694562E+04  0.00000000000E+00 0.  1.
        -13    1    1    2    0    0  0.12723933841E+03 -0.46659440030E+03 -0.27178225674E+02  0.48439534550E+03  0.10566000000E+00 0.  1.
         13    1    1    2    0    0 -0.16380578400E+03  0.27317422730E+03 -0.83185774653E+03  0.89075463229E+03  0.10566000000E+00 0. -1.
          4    1    1    2  501    0  0.36566445588E+02  0.19342017300E+03 -0.89366510462E+03  0.91508785780E+03  0.00000000000E+00 0.  1.
</event>
<event>
 5    1  0.4866530E-005  0.4990446E+03  0.7818608E-02  0.9674043E-01
         21   -1    0    0  501  502  0.00000000000E+00  0.00000000000E+00  0.38821335505E+03  0.38821335505E+03  0.00000000000E+00 0. -1.
         -4   -1    0    0    0  501 -0.00000000000E+00 -0.00000000000E+00 -0.12364152948E+04  0.12364152948E+04  0.00000000000E+00 0. -1.
        -13    1    1    2    0    0 -0.24776558765E+03  0.28976524661E+02 -0.44302798774E+03  0.50843016678E+03  0.10566000000E+00 0.  1.
         13    1    1    2    0    0  0.30966834885E+03  0.44291239697E+03 -0.96626831792E+02  0.54900148767E+03  0.10566000000E+00 0. -1.
         -4    1    1    2    0  502 -0.61902761206E+02 -0.47188892163E+03 -0.30854712023E+03  0.56719699542E+03  0.00000000000E+00 0. -1.
</event>
<event>
 5    1  0.4866530E-005  0.3214794E+03  0.7818608E-02  0.1041604E+00
          4   -1    0    0  502    0 -0.00000000000E+00  0.00000000000E+00  0.33781562722E+03  0.33781562722E+03  0.00000000000E+00 0.  1.
         21   -1    0    0  501  502  0.00000000000E+00 -0.00000000000E+00 -0.11349457935E+04  0.11349457935E+04  0.00000000000E+00 0.  1.
        -13    1    1    2    0    0  0.28095551972E+03  0.14166981564E+03 -0.91833083259E+03  0.97074088715E+03  0.10566000000E+00 0.  1.
         13    1    1    2    0    0  0.79773470154E+02 -0.24619364782E+02  0.88038826119E+02  0.12132916274E+03  0.10566000000E+00 0. -1.
          4    1    1    2  501    0 -0.36072898988E+03 -0.11705045085E+03  0.33161840197E+02  0.38069137084E+03  0.00000000000E+00 0.  1.
</event>
<event>
 5    1  0.4866530E-005  0.4944435E+03  0.7818608E-02  0.9490235E-01
          4   -1    0    0  502    0 -0.00000000000E+00  0.00000000000E+00  0.27984066344E+04  0.27984066344E+04  0.00000000000E+00 0.  1.
         21   -1    0    0  501  502  0.00000000000E+00 -0.00000000000E+00 -0.12053141858E+03  0.12053141858E+03  0.00000000000E+00 0. -1.
        -13    1    1    2    0    0  0.51502191575E+03 -0.12301948443E+03  0.17455405486E+04  0.18240869457E+04  0.10566000000E+00 0.  1.
         13    1    1    2    0    0 -0.41415518554E+03  0.16965732857E+03  0.83382791552E+03  0.94634937032E+03  0.10566000000E+00 0. -1.
          4    1    1    2  501    0 -0.10086673021E+03 -0.46637844136E+02  0.98506751683E+02  0.14850173701E+03  0.00000000000E+00 0.  1.
</event>
<event>
 5    1  0.4866530E-005  0.4201961E+03  0.7818608E-02  0.9672465E-01
         -4   -1    0    0    0  501 -0.00000000000E+00  0.00000000000E+00  0.19837891107E+04  0.19837891107E+04  0.00000000000E+00 0. -1.
         21   -1    0    0  501  502  0.00000000000E+00 -0.00000000000E+00 -0.29794209930E+03  0.29794209930E+03  0.00000000000E+00 0. -1.
        -13    1    1    2    0    0 -0.39208187482E+03  0.23175411485E+02  0.89938954993E+03  0.98141065307E+03  0.10566000000E+00 0.  1.
         13    1    1    2    0    0  0.44924193636E+03 -0.69168303502E+02  0.98707903720E+03  0.10867049316E+04  0.10566000000E+00 0. -1.
         -4    1    1    2    0  502 -0.57160061540E+02  0.45992892017E+02 -0.20062157570E+03  0.21361562533E+03  0.00000000000E+00 0. -1.
</event>
<event>
 5    1  0.4866530E-005  0.4886560E+03  0.7818608E-02  0.9693449E-01
         -4   -1    0    0    0  501 -0.00000000000E+00  0.00000000000E+00  0.11673396258E+04  0.11673396258E+04  0.00000000000E+00 0. -1.
         21   -1    0    0  501  502  0.00000000000E+00 -0.00000000000E+00 -0.40646695526E+03  0.40646695526E+03  0.00000000000E+00 0. -1.
        -13    1    1    2    0    0 -0.22735370727E+03 -0.99776762519E+02  0.42600743250E+03  0.49307956180E+03  0.10566000000E+00 0.  1.
         13    1    1    2    0    0  0.16285306356E+03  0.54770487397E+03  0.23154256227E+03  0.61653363136E+03  0.10566000000E+00 0. -1.
         -4    1    1    2    0  502  0.64500643705E+02 -0.44792811145E+03  0.10332267580E+03  0.46419338793E+03  0.00000000000E+00 0. -1.
</event>
<event>
 5    1  0.4866530E-005  0.5487671E+02  0.7818608E-02  0.1288442E+00
         21   -1    0    0  501  502  0.00000000000E+00  0.00000000000E+00  0.93600505833E+02  0.93600505833E+02  0.00000000000E+00 0.  1.
          4   -1    0    0  502    0 -0.00000000000E+00 -0.00000000000E+00 -0.85963920947E+02  0.85963920947E+02  0.00000000000E+00 0.  1.
        -13    1    1    2    0    0 -0.45126390440E+02 -0.23973141016E+02  0.20851371752E+02  0.55189613808E+02  0.10566000000E+00 0.  1.
         13    1    1    2    0    0 -0.21482794842E+02  0.34210972627E+02 -0.35103400861E+02  0.53517857191E+02  0.10566000000E+00 0. -1.
          4    1    1    2  501    0  0.66609185282E+02 -0.10237831611E+02  0.21888613995E+02  0.70856955781E+02  0.00000000000E+00 0.  1.
</event>
<event>
 5    1  0.4866530E-005  0.4961489E+03  0.7818608E-02  0.9592862E-01
         21   -1    0    0  501  502  0.00000000000E+00  0.00000000000E+00  0.21177667736E+03  0.21177667736E+03  0.00000000000E+00 0.  1.
          4   -1    0    0  502    0 -0.00000000000E+00 -0.00000000000E+00 -0.29510478884E+04  0.29510478884E+04  0.00000000000E+00 0.  1.
        -13    1    1    2    0    0  0.65038243328E+02  0.60148030529E+03 -0.75944437408E+03  0.97096050343E+03  0.10566000000E+00 0.  1.
         13    1    1    2    0    0 -0.27604686484E+03 -0.19529276256E+03 -0.14626276119E+04  0.15012064072E+04  0.10566000000E+00 0. -1.
          4    1    1    2  501    0  0.21100862151E+03 -0.40618754273E+03 -0.51719922506E+03  0.69065765516E+03  0.00000000000E+00 0.  1.
</event>
<event>
 5    1  0.4866530E-005  0.1711078E+02  0.7818608E-02  0.1554540E+00
         21   -1    0    0  501  502  0.00000000000E+00  0.00000000000E+00  0.21436513273E+03  0.21436513273E+03  0.00000000000E+00 0.  1.
          4   -1    0    0  502    0 -0.00000000000E+00 -0.00000000000E+00 -0.20862753664E+02  0.20862753664E+02  0.00000000000E+00 0.  1.
        -13    1    1    2    0    0 -0.41995017796E+01 -0.16907982461E+02 -0.46529837437E+01  0.18032667797E+02  0.10566000000E+00 0.  1.
         13    1    1    2    0    0 -0.74490515941E+01  0.17374386416E+02  0.20848816771E+00  0.18905351209E+02  0.10566000000E+00 0. -1.
          4    1    1    2  501    0  0.11648553374E+02 -0.46640395429E+00  0.19794687464E+03  0.19828986739E+03  0.00000000000E+00 0.  1.
</event>
<event>
 5    1  0.4866530E-005  0.5088773E+02  0.7818608E-02  0.1288216E+00
         21   -1    0    0  501  502  0.00000000000E+00  0.00000000000E+00  0.10754533774E+03  0.10754533774E+03  0.00000000000E+00 0.  1.
         -4   -1    0    0    0  501 -0.00000000000E+00 -0.00000000000E+00 -0.84215292489E+02  0.84215292489E+02  0.00000000000E+00 0. -1.
        -13    1    1    2    0    0  0.42023792615E+02 -0.86390660595E+01  0.14802098516E+02  0.45384423458E+02  0.10566000000E+00 0.  1.
         13    1    1    2    0    0 -0.52218201039E+02  0.12464649585E+02 -0.57959720093E+02  0.79002837458E+02  0.10566000000E+00 0. -1.
         -4    1    1    2    0  502  0.10194408424E+02 -0.38255835255E+01  0.66487666827E+02  0.67373369312E+02  0.00000000000E+00 0. -1.
</event>
<event>
 5    1  0.4866530E-005  0.5038761E+03  0.7818608E-02  0.9469517E-01
         21   -1    0    0  501  502  0.00000000000E+00  0.00000000000E+00  0.22188710115E+03  0.22188710115E+03  0.00000000000E+00 0.  1.
         -4   -1    0    0    0  501 -0.00000000000E+00 -0.00000000000E+00 -0.17254067600E+04  0.17254067600E+04  0.00000000000E+00 0. -1.
        -13    1    1    2    0    0 -0.40743808422E+03 -0.31536869523E+03 -0.34163546391E+03  0.61820547375E+03  0.10566000000E+00 0.  1.
         13    1    1    2    0    0  0.39719710563E+03  0.30329951963E+03 -0.11934027813E+04  0.12938185147E+04  0.10566000000E+00 0. -1.
         -4    1    1    2    0  502  0.10240978590E+02  0.12069175605E+02  0.31518586317E+02  0.35269872777E+02  0.00000000000E+00 0. -1.
</event>
<event>
 5    1  0.4866530E-005  0.4600365E+03  0.7818608E-02  0.9866898E-01
         -4   -1    0    0    0  501 -0.00000000000E+00  0.00000000000E+00  0.64282226845E+03  0.64282226845E+03  0.00000000000E+00 0. -1.
         21   -1    0    0  501  502  0.00000000000E+00 -0.00000000000E+00 -0.50862443938E+03  0.50862443938E+03  0.00000000000E+00 0. -1.
        -13    1    1    2    0    0  0.60337654317E+02 -0.15271993015E+03  0.80203080188E+02  0.18274724301E+03  0.10566000000E+00 0.  1.
         13    1    1    2    0    0 -0.49091275492E+03  0.17721518676E+03  0.11124720223E+03  0.53364455073E+03  0.10566000000E+00 0. -1.
         -4    1    1    2    0  502  0.43057510060E+03 -0.24495256613E+02 -0.57252453353E+02  0.43505491408E+03  0.00000000000E+00 0. -1.
</event>
<event>
 5    1  0.4866530E-005  0.3566733E+02  0.7818608E-02  0.1364437E+00
         21   -1    0    0  501  502  0.00000000000E+00  0.00000000000E+00  0.26288899110E+03  0.26288899110E+03  0.00000000000E+00 0. -1.
          4   -1    0    0  502    0 -0.00000000000E+00 -0.00000000000E+00 -0.94427821016E+01  0.94427821016E+01  0.00000000000E+00 0.  1.
        -13    1    1    2    0    0  0.32631207805E+02  0.57600447862E+01  0.57147066681E+02  0.66058854312E+02  0.10566000000E+00 0.  1.
         13    1    1    2    0    0 -0.36202892309E+02 -0.16540138735E+02  0.79343981684E+02  0.88767697922E+02  0.10566000000E+00 0. -1.
          4    1    1    2  501    0  0.35716845038E+01  0.10780093949E+02  0.11695516063E+03  0.11750522097E+03  0.00000000000E+00 0.  1.
</event>
<event>
 5    1  0.4866530E-005  0.5769197E+03  0.7818608E-02  0.9376479E-01
          4   -1    0    0  502    0 -0.00000000000E+00  0.00000000000E+00  0.16831204087E+04  0.16831204087E+04  0.00000000000E+00 0.  1.
         21   -1    0    0  501  502  0.00000000000E+00 -0.00000000000E+00 -0.64318836806E+03  0.64318836806E+03  0.00000000000E+00 0. -1.
        -13    1    1    2    0    0 -0.49004051329E+03  0.98318973805E+02  0.62569325784E+03  0.80081108218E+03  0.10566000000E+00 0.  1.
         13    1    1    2    0    0  0.60118316047E+03  0.52886946397E+03  0.38347966639E+03  0.88779545395E+03  0.10566000000E+00 0. -1.
          4    1    1    2  501    0 -0.11114264718E+03 -0.62718843777E+03  0.30759116433E+02  0.63770224066E+03  0.00000000000E+00 0.  1.
</event>
<event>
 5    1  0.4866530E-005  0.3291659E+03  0.7818608E-02  0.9991324E-01
         21   -1    0    0  501  502  0.00000000000E+00  0.00000000000E+00  0.52228094518E+03  0.52228094518E+03  0.00000000000E+00 0.  1.
          4   -1    0    0  502    0 -0.00000000000E+00 -0.00000000000E+00 -0.17997584954E+04  0.17997584954E+04  0.00000000000E+00 0.  1.
        -13    1    1    2    0    0 -0.24488852991E+02 -0.34487984870E+03  0.38275437309E+03  0.51579330671E+03  0.10566000000E+00 0.  1.
         13    1    1    2    0    0 -0.24607771268E+03  0.16515051789E+03 -0.12410374344E+04  0.12759321530E+04  0.10566000000E+00 0. -1.
          4    1    1    2  501    0  0.27056656567E+03  0.17972933081E+03 -0.41919448893E+03  0.53031398092E+03  0.00000000000E+00 0.  1.
</event>
<event>
 5    1  0.4866530E-005  0.4077823E+03  0.7818608E-02  0.1000598E+00
         -4   -1    0    0    0  501 -0.00000000000E+00  0.00000000000E+00  0.13247478019E+04  0.13247478019E+04  0.00000000000E+00 0. -1.
         21   -1    0    0  501  502  0.00000000000E+00 -0.00000000000E+00 -0.26609177966E+03  0.26609177966E+03  0.00000000000E+00 0. -1.
        -13    1    1    2    0    0 -0.10813223470E+03  0.10187835509E+03  0.23516961105E+03  0.27816638284E+03  0.10566000000E+00 0.  1.
         13    1    1    2    0    0 -0.10096181579E+03  0.28131160653E+03  0.82359245540E+03  0.87614727755E+03  0.10566000000E+00 0. -1.
         -4    1    1    2    0  502  0.20909405050E+03 -0.38318996162E+03 -0.10604416452E+00  0.43652592121E+03  0.00000000000E+00 0. -1.
</event>
<event>
 5    1  0.4866530E-005  0.4512844E+03  0.7818608E-02  0.9591658E-01
         21   -1    0    0  501  502  0.00000000000E+00  0.00000000000E+00  0.16661982844E+03  0.16661982844E+03  0.00000000000E+00 0.  1.
         -4   -1    0    0    0  501 -0.00000000000E+00 -0.00000000000E+00 -0.33981851149E+04  0.33981851149E+04  0.00000000000E+00 0. -1.
        -13    1    1    2    0    0  0.44117975487E+03  0.59766582075E+02 -0.58056592801E+03  0.73162041276E+03  0.10566000000E+00 0.  1.
         13    1    1    2    0    0 -0.44208887861E+03 -0.99398184524E+02 -0.27179040481E+04  0.27554173915E+04  0.10566000000E+00 0. -1.
         -4    1    1    2    0  502  0.90912373828E+00  0.39631602449E+02  0.66904689657E+02  0.77767139055E+02  0.00000000000E+00 0. -1.
</event>
<event>
 5    1  0.4866530E-005  0.5157402E+03  0.7818608E-02  0.9444125E-01
         21   -1    0    0  501  502  0.00000000000E+00  0.00000000000E+00  0.70493086326E+03  0.70493086326E+03  0.00000000000E+00 0. -1.
         -4   -1    0    0    0  501 -0.00000000000E+00 -0.00000000000E+00 -0.14509342883E+04  0.14509342883E+04  0.00000000000E+00 0. -1.
        -13    1    1    2    0    0  0.12132685534E+03  0.50253105847E+03 -0.64402077743E+03  0.82584529029E+03  0.10566000000E+00 0.  1.
         13    1    1    2    0    0 -0.11016012169E+03 -0.50261742070E+03 -0.62348995318E+03  0.80839300893E+03  0.10566000000E+00 0. -1.
         -4    1    1    2    0  502 -0.11166733644E+02  0.86362225102E-01  0.52150730554E+03  0.52162685238E+03  0.00000000000E+00 0. -1.
</event>
<event>
 5    1  0.4866530E-005  0.2091299E+02  0.7818608E-02  0.1497539E+00
         -4   -1    0    0    0  501 -0.00000000000E+00  0.00000000000E+00  0.12746510997E+02  0.12746510997E+02  0.00000000000E+00 0. -1.
         21   -1    0    0  501  502  0.00000000000E+00 -0.00000000000E+00 -0.74572753615E+03  0.74572753615E+03  0.00000000000E+00 0. -1.
        -13    1    1    2    0    0 -0.26008616396E+02  0.15343195197E+02 -0.16967183663E+03  0.17233805463E+03  0.10566000000E+00 0.  1.
         13    1    1    2    0    0  0.12361598270E+02 -0.16382891691E+02  0.20367154968E+01  0.20624442441E+02  0.10566000000E+00 0. -1.
         -4    1    1    2    0  502  0.13647018127E+02  0.10396964940E+01 -0.56534590403E+03  0.56551155008E+03  0.00000000000E+00 0. -1.
</event>
<event>
 5    1  0.4866530E-005  0.4720574E+03  0.7818608E-02  0.9783428E-01
          4   -1    0    0  502    0 -0.00000000000E+00  0.00000000000E+00  0.56967110507E+03  0.56967110507E+03  0.00000000000E+00 0.  1.
         21   -1    0    0  501  502  0.00000000000E+00 -0.00000000000E+00 -0.70677429420E+03  0.70677429420E+03  0.00000000000E+00 0.  1.
        -13    1    1    2    0    0  0.49899876234E+03  0.27346705918E+03 -0.74018339856E+02  0.57381418863E+03  0.10566000000E+00 0.  1.
         13    1    1    2    0    0 -0.82673276864E+02 -0.18408571535E+03  0.12473479027E+03  0.23723659155E+03  0.10566000000E+00 0. -1.
          4    1    1    2  501    0 -0.41632548547E+03 -0.89381343836E+02 -0.18781963955E+03  0.46539461910E+03  0.00000000000E+00 0.  1.
</event>
<event>
 5    1  0.4866530E-005  0.2495477E+03  0.7818608E-02  0.1030627E+00
          4   -1    0    0  502    0 -0.00000000000E+00  0.00000000000E+00  0.18533026878E+04  0.18533026878E+04  0.00000000000E+00 0.  1.
         21   -1    0    0  501  502  0.00000000000E+00 -0.00000000000E+00 -0.26742948176E+03  0.26742948176E+03  0.00000000000E+00 0.  1.
        -13    1    1    2    0    0 -0.61723536110E+02  0.24311385850E+03  0.13327670578E+04  0.13561645124E+04  0.10566000000E+00 0.  1.
         13    1    1    2    0    0  0.75052450054E+02 -0.23490747305E+03  0.47867062463E+03  0.53846074064E+03  0.10566000000E+00 0. -1.
          4    1    1    2  501    0 -0.13328913944E+02 -0.82063854542E+01 -0.22556447638E+03  0.22610691655E+03  0.00000000000E+00 0.  1.
</event>
<event>
 5    1  0.4866530E-005  0.4893314E+03  0.7818608E-02  0.9501667E-01
         21   -1    0    0  501  502  0.00000000000E+00  0.00000000000E+00  0.24250838141E+03  0.24250838141E+03  0.00000000000E+00 0.  1.
         -4   -1    0    0    0  501 -0.00000000000E+00 -0.00000000000E+00 -0.22374836244E+04  0.22374836244E+04  0.00000000000E+00 0. -1.
        -13    1    1    2    0    0 -0.10746147230E+03 -0.34843083582E+03 -0.26575508471E+03  0.45119595698E+03  0.10566000000E+00 0.  1.
         13    1    1    2    0    0  0.39878602165E+03  0.53195839969E+03 -0.81431646416E+03  0.10512475184E+04  0.10566000000E+00 0. -1.
         -4    1    1    2    0  502 -0.29132454935E+03 -0.18352756387E+03 -0.91490369414E+03  0.97754853041E+03  0.00000000000E+00 0. -1.
</event>
<event>
 5    1  0.4866530E-005  0.2422927E+03  0.7818608E-02  0.1034466E+00
          4   -1    0    0  502    0 -0.00000000000E+00  0.00000000000E+00  0.14918956923E+04  0.14918956923E+04  0.00000000000E+00 0.  1.
         21   -1    0    0  501  502  0.00000000000E+00 -0.00000000000E+00 -0.43691386156E+03  0.43691386156E+03  0.00000000000E+00 0. -1.
        -13    1    1    2    0    0 -0.18628628370E+03 -0.15123542984E+03  0.13027526296E+04  0.13246656785E+04  0.10566000000E+00 0.  1.
         13    1    1    2    0    0  0.34103081165E+03  0.34468849969E+02 -0.90497189377E+02  0.35451356612E+03  0.10566000000E+00 0. -1.
          4    1    1    2  501    0 -0.15474452796E+03  0.11676657987E+03 -0.15727360940E+03  0.24963030930E+03  0.00000000000E+00 0.  1.
</event>
<event>
 5    1  0.4866530E-005  0.3551166E+03  0.7818608E-02  0.1006086E+00
         21   -1    0    0  501  502  0.00000000000E+00  0.00000000000E+00  0.13729808501E+03  0.13729808501E+03  0.00000000000E+00 0.  1.
          4   -1    0    0  502    0 -0.00000000000E+00 -0.00000000000E+00 -0.17547143610E+04  0.17547143610E+04  0.00000000000E+00 0.  1.
        -13    1    1    2    0    0 -0.44783270519E+03  0.16778929115E+03 -0.96176241274E+03  0.10741016376E+04  0.10566000000E+00 0.  1.
         13    1    1    2    0    0  0.18728659879E+03 -0.17968564509E+02 -0.23910180176E+03  0.30425124842E+03  0.10566000000E+00 0. -1.
          4    1    1    2  501    0  0.26054610640E+03 -0.14982072664E+03 -0.41655206146E+03  0.51365956002E+03  0.00000000000E+00 0.  1.
</event>
<event>
 5    1  0.4866530E-005  0.7545251E+03  0.7818608E-02  0.9047424E-01
         21   -1    0    0  501  502  0.00000000000E+00  0.00000000000E+00  0.35318077489E+03  0.35318077489E+03  0.00000000000E+00 0. -1.
          4   -1    0    0  502    0 -0.00000000000E+00 -0.00000000000E+00 -0.33882852793E+04  0.33882852793E+04  0.00000000000E+00 0.  1.
        -13    1    1    2    0    0  0.41421392561E+03  0.59817126042E+03 -0.50088836966E+03  0.88332961175E+03  0.10566000000E+00 0.  1.
         13    1    1    2    0    0 -0.78063635200E+03 -0.26204008472E+03 -0.15274049878E+04  0.17352302810E+04  0.10566000000E+00 0. -1.
          4    1    1    2  501    0  0.36642242638E+03 -0.33613117570E+03 -0.10068111469E+04  0.11229061614E+04  0.00000000000E+00 0.  1.
</event>
<event>
 5    1  0.4866530E-005  0.4412872E+03  0.7818608E-02  0.9808481E-01
         21   -1    0    0  501  502  0.00000000000E+00  0.00000000000E+00  0.19661171350E+03  0.19661171350E+03  0.00000000000E+00 0. -1.
         -4   -1    0    0    0  501 -0.00000000000E+00 -0.00000000000E+00 -0.22468452487E+04  0.22468452487E+04  0.00000000000E+00 0. -1.
        -13    1    1    2    0    0  0.42096214682E+02  0.22281598423E+03 -0.77917946787E+03  0.81150459545E+03  0.10566000000E+00 0.  1.
         13    1    1    2    0    0  0.39112959980E+03 -0.29245102395E+03 -0.10087198312E+04  0.11207255124E+04  0.10566000000E+00 0. -1.
         -4    1    1    2    0  502 -0.43322581448E+03  0.69635039718E+02 -0.26233423609E+03  0.51122685426E+03  0.00000000000E+00 0. -1.
</event>
<event>
 5    1  0.4866530E-005  0.3474774E+02  0.7818608E-02  0.1370396E+00
          4   -1    0    0  502    0 -0.00000000000E+00  0.00000000000E+00  0.17226149289E+03  0.17226149289E+03  0.00000000000E+00 0.  1.
         21   -1    0    0  501  502  0.00000000000E+00 -0.00000000000E+00 -0.47563643829E+02  0.47563643829E+02  0.00000000000E+00 0.  1.
        -13    1    1    2    0    0  0.18486827597E+02 -0.28096281061E+02  0.13305015808E+03  0.13723527074E+03  0.10566000000E+00 0.  1.
         13    1    1    2    0    0 -0.93021543027E+01  0.44544157164E+02  0.19054001566E+02  0.49333337125E+02  0.10566000000E+00 0. -1.
          4    1    1    2  501    0 -0.91846732947E+01 -0.16447876103E+02 -0.27406310587E+02  0.33256528860E+02  0.00000000000E+00 0.  1.
</event>
<event>
 5    1  0.4866530E-005  0.4878989E+03  0.7818608E-02  0.9504897E-01
          4   -1    0    0  502    0 -0.00000000000E+00  0.00000000000E+00  0.12172223400E+04  0.12172223400E+04  0.00000000000E+00 0.  1.
         21   -1    0    0  501  502  0.00000000000E+00 -0.00000000000E+00 -0.70211643600E+03  0.70211643600E+03  0.00000000000E+00 0.  1.
        -13    1    1    2    0    0 -0.18623307209E+03  0.59860555301E+03  0.91773549354E+02  0.63358800553E+03  0.10566000000E+00 0.  1.
         13    1    1    2    0    0  0.45562582250E+03 -0.19442930275E+03  0.59168150391E+03  0.77167652364E+03  0.10566000000E+00 0. -1.
          4    1    1    2  501    0 -0.26939275041E+03 -0.40417625025E+03 -0.16834914923E+03  0.51407424687E+03  0.00000000000E+00 0.  1.
</event>
<event>
 5    1  0.4866530E-005  0.2365980E+03  0.7818608E-02  0.1046676E+00
         21   -1    0    0  501  502  0.00000000000E+00  0.00000000000E+00  0.54177329422E+03  0.54177329422E+03  0.00000000000E+00 0. -1.
         -4   -1    0    0    0  501 -0.00000000000E+00 -0.00000000000E+00 -0.66265971462E+03  0.66265971462E+03  0.00000000000E+00 0. -1.
        -13    1    1    2    0    0  0.15065818913E+03  0.98156083904E+02 -0.22540726840E+02  0.18121976241E+03  0.10566000000E+00 0.  1.
         13    1    1    2    0    0 -0.34220938611E+03 -0.21800210299E+03 -0.44956357780E+03  0.60559029260E+03  0.10566000000E+00 0. -1.
         -4    1    1    2    0  502  0.19155119698E+03  0.11984601908E+03  0.35121788424E+03  0.41762295383E+03  0.00000000000E+00 0. -1.
</event>
<event>
 5    1  0.4866530E-005  0.4808497E+03  0.7818608E-02  0.9520963E-01
         21   -1    0    0  501  502  0.00000000000E+00  0.00000000000E+00  0.46415982123E+03  0.46415982123E+03  0.00000000000E+00 0. -1.
         -4   -1    0    0    0  501 -0.00000000000E+00 -0.00000000000E+00 -0.12192161582E+04  0.12192161582E+04  0.00000000000E+00 0. -1.
        -13    1    1    2    0    0 -0.19530757343E+03 -0.34723177287E+03 -0.33299867451E+03  0.51923316605E+03  0.10566000000E+00 0.  1.
         13    1    1    2    0    0  0.10029315548E+03  0.60965644989E+03 -0.57660742069E+03  0.84511291121E+03  0.10566000000E+00 0. -1.
         -4    1    1    2    0  502  0.95014417952E+02 -0.26242467702E+03  0.15454975821E+03  0.31902990219E+03  0.00000000000E+00 0. -1.
</event>
<event>
 5    1  0.4866530E-005  0.1998895E+02  0.7818608E-02  0.1510009E+00
          4   -1    0    0  502    0 -0.00000000000E+00  0.00000000000E+00  0.12601837109E+03  0.12601837109E+03  0.00000000000E+00 0.  1.
         21   -1    0    0  501  502  0.00000000000E+00 -0.00000000000E+00 -0.80334896293E+02  0.80334896293E+02  0.00000000000E+00 0.  1.
        -13    1    1    2    0    0  0.12575661904E+02  0.15397101317E+02  0.11888661200E+03  0.12053736217E+03  0.10566000000E+00 0.  1.
         13    1    1    2    0    0 -0.27092879648E+02 -0.11817209819E+02 -0.43981466758E+02  0.52991047902E+02  0.10566000000E+00 0. -1.
          4    1    1    2  501    0  0.14517217744E+02 -0.35798914980E+01 -0.29221670444E+02  0.32824857315E+02  0.00000000000E+00 0.  1.
</event>
<event>
 5    1  0.4866530E-005  0.6045035E+03  0.7818608E-02  0.9274372E-01
         -4   -1    0    0    0  501 -0.00000000000E+00  0.00000000000E+00  0.24049320027E+04  0.24049320027E+04  0.00000000000E+00 0. -1.
         21   -1    0    0  501  502  0.00000000000E+00 -0.00000000000E+00 -0.55993473405E+03  0.55993473405E+03  0.00000000000E+00 0.  1.
        -13    1    1    2    0    0 -0.51216522938E+03 -0.32449467875E+03  0.16659091871E+04  0.17728122996E+04  0.10566000000E+00 0.  1.
         13    1    1    2    0    0  0.51186316943E+03  0.31327213792E+03  0.55414151880E+03  0.81683301270E+03  0.10566000000E+00 0. -1.
         -4    1    1    2    0  502  0.30205995105E+00  0.11222540834E+02 -0.37505343720E+03  0.37522142452E+03  0.00000000000E+00 0. -1.
</event>
<event>
 5    1  0.4866530E-005  0.4612523E+03  0.7818608E-02  0.9905952E-01
         21   -1    0    0  501  502  0.00000000000E+00  0.00000000000E+00  0.65852177608E+03  0.65852177608E+03  0.00000000000E+00 0. -1.
         -4   -1    0    0    0  501 -0.00000000000E+00 -0.00000000000E+00 -0.73864614751E+03  0.73864614751E+03  0.00000000000E+00 0. -1.
        -13    1    1    2    0    0 -0.62533395262E+02  0.12849913876E+03 -0.31996638985E+03  0.35042967338E+03  0.10566000000E+00 0.  1.
         13    1    1    2    0    0 -0.21248618682E+03  0.36093636809E+03  0.24513741128E+03  0.48530176486E+03  0.10566000000E+00 0. -1.
         -4    1    1    2    0  502  0.27501958209E+03 -0.48943550685E+03 -0.52953928583E+01  0.56143648535E+03  0.00000000000E+00 0. -1.
</event>
<event>
 5    1  0.4866530E-005  0.5033385E+03  0.7818608E-02  0.9608540E-01
         -4   -1    0    0    0  501 -0.00000000000E+00  0.00000000000E+00  0.11514093959E+04  0.11514093959E+04  0.00000000000E+00 0. -1.
         21   -1    0    0  501  502  0.00000000000E+00 -0.00000000000E+00 -0.54100994414E+03  0.54100994414E+03  0.00000000000E+00 0. -1.
        -13    1    1    2    0    0  0.28106295394E+03  0.12173828347E+03  0.55148809551E+03  0.63083732007E+03  0.10566000000E+00 0.  1.
         13    1    1    2    0    0 -0.30225396408E+03 -0.52350362490E+03 -0.12809951414E+03  0.61791828001E+03  0.10566000000E+00 0. -1.
         -4    1    1    2    0  502  0.21191010143E+02  0.40176534143E+03  0.18701087036E+03  0.44366373991E+03  0.00000000000E+00 0. -1.
</event>
<event>
 5    1  0.4866530E-005  0.4899573E+03  0.7818608E-02  0.9627079E-01
         21   -1    0    0  501  502  0.00000000000E+00  0.00000000000E+00  0.15402021499E+04  0.15402021499E+04  0.00000000000E+00 0.  1.
          4   -1    0    0  502    0 -0.00000000000E+00 -0.00000000000E+00 -0.29667347153E+03  0.29667347153E+03  0.00000000000E+00 0.  1.
        -13    1    1    2    0    0  0.40560613711E+03  0.20048076535E+03  0.25359496513E+03  0.51867069827E+03  0.10566000000E+00 0.  1.
         13    1    1    2    0    0  0.14215702425E+03 -0.27656969048E+03  0.28130626195E+03  0.41932402437E+03  0.10566000000E+00 0. -1.
          4    1    1    2  501    0 -0.54776316136E+03  0.76088925133E+02  0.70862745124E+03  0.89888089875E+03  0.00000000000E+00 0.  1.
</event>
<event>
 5    1  0.4866530E-005  0.9721720E+02  0.7818608E-02  0.1169244E+00
         21   -1    0    0  501  502  0.00000000000E+00  0.00000000000E+00  0.25495776273E+03  0.25495776273E+03  0.00000000000E+00 0. -1.
          4   -1    0    0  502    0 -0.00000000000E+00 -0.00000000000E+00 -0.31642386716E+03  0.31642386716E+03  0.00000000000E+00 0.  1.
        -13    1    1    2    0    0  0.96524525839E+02 -0.18880130453E+02 -0.29792476226E+03  0.31373973058E+03  0.10566000000E+00 0.  1.
         13    1    1    2    0    0 -0.69731002908E+02  0.48483532164E+01  0.18736974296E+03  0.19998337690E+03  0.10566000000E+00 0. -1.
          4    1    1    2  501    0 -0.26793522930E+02  0.14031777236E+02  0.49088914876E+02  0.57658522416E+02  0.00000000000E+00 0.  1.
</event>
<event>
 5    1  0.4866530E-005  0.4744858E+03  0.7818608E-02  0.9625192E-01
         21   -1    0    0  501  502  0.00000000000E+00  0.00000000000E+00  0.44112643075E+03  0.44112643075E+03  0.00000000000E+00 0. -1.
         -4   -1    0    0    0  501 -0.00000000000E+00 -0.00000000000E+00 -0.12114814058E+04  0.12114814058E+04  0.00000000000E+00 0. -1.
        -13    1    1    2    0    0 -0.10787465849E+03  0.32736443543E+03 -0.41629857424E+03  0.54047102568E+03  0.10566000000E+00 0.  1.
         13    1    1    2    0    0  0.53669956106E+03 -0.12595145537E+03 -0.31934701416E+03  0.63709709980E+03  0.10566000000E+00 0. -1.
         -4    1    1    2    0  502 -0.42882490257E+03 -0.20141298005E+03 -0.34709386677E+02  0.47503971110E+03  0.00000000000E+00 0. -1.
</event>
<event>
 5    1  0.1031235E-004  0.3438166E+03  0.7818608E-02  0.1024815E+00
         21   -1    0    0  501  502  0.00000000000E+00  0.00000000000E+00  0.60273181456E+03  0.60273181456E+03  0.00000000000E+00 0.  1.
          4   -1    0    0  502    0 -0.00000000000E+00 -0.00000000000E+00 -0.89471757263E+03  0.89471757263E+03  0.00000000000E+00 0.  1.
        -13    1    1    2    0    0  0.19948028851E+03 -0.22125951036E+03 -0.31006418853E+03  0.42998600978E+03  0.10566000000E+00 0.  1.
         13    1    1    2    0    0  0.10560754021E+03  0.43679544442E+02 -0.45954721650E+03  0.47354462356E+03  0.10566000000E+00 0. -1.
          4    1    1    2  501    0 -0.30508782873E+03  0.17757996592E+03  0.47762564696E+03  0.59391875384E+03  0.00000000000E+00 0.  1.
</event>
<event>
 5    1  0.8742460E-005  0.1468461E+03  0.7818608E-02  0.1104264E+00
         -4   -1    0    0    0  501 -0.00000000000E+00  0.00000000000E+00  0.80894203362E+03  0.80894203362E+03  0.00000000000E+00 0. -1.
         21   -1    0    0  501  502  0.00000000000E+00 -0.00000000000E+00 -0.65392501121E+03  0.65392501121E+03  0.00000000000E+00 0. -1.
        -13    1    1    2    0    0 -0.18141351188E+03 -0.18220248257E+03  0.33005669280E+03  0.41838503627E+03  0.10566000000E+00 0.  1.
         13    1    1    2    0    0  0.55334771639E+02  0.11287944867E+03  0.41683029877E+03  0.43537479948E+03  0.10566000000E+00 0. -1.
         -4    1    1    2    0  502  0.12607874024E+03  0.69323033903E+02 -0.59186996916E+03  0.60910720909E+03  0.00000000000E+00 0. -1.
</event>
<event>
 5    1  0.4866530E-005  0.4919405E+03  0.7818608E-02  0.9702867E-01
         21   -1    0    0  501  502  0.00000000000E+00  0.00000000000E+00  0.79526066238E+03  0.79526066238E+03  0.00000000000E+00 0. -1.
         -4   -1    0    0    0  501 -0.00000000000E+00 -0.00000000000E+00 -0.69504303438E+03  0.69504303438E+03  0.00000000000E+00 0. -1.
        -13    1    1    2    0    0  0.12730857071E+03 -0.19811110120E+03 -0.29195762494E+03  0.37509298383E+03  0.10566000000E+00 0.  1.
         13    1    1    2    0    0 -0.50556116475E+03 -0.10551001429E+03  0.35913689010E+03  0.62904989581E+03  0.10566000000E+00 0. -1.
         -4    1    1    2    0  502  0.37825259405E+03  0.30362111548E+03  0.33038362843E+02  0.48616081711E+03  0.00000000000E+00 0. -1.
</event>
<event>
 5    1  0.4866530E-005  0.9596681E+02  0.7818608E-02  0.1171407E+00
         -4   -1    0    0    0  501 -0.00000000000E+00  0.00000000000E+00  0.15350983169E+03  0.15350983169E+03  0.00000000000E+00 0. -1.
         21   -1    0    0  501  502  0.00000000000E+00 -0.00000000000E+00 -0.19838784676E+03  0.19838784676E+03  0.00000000000E+00 0.  1.
        -13    1    1    2    0    0  0.42685064036E+02 -0.50990010241E+02 -0.12664933822E+03  0.14304566359E+03  0.10566000000E+00 0.  1.
         13    1    1    2    0    0 -0.68793157509E+02  0.72445422706E+02  0.12110561417E+03  0.15699496405E+03  0.10566000000E+00 0. -1.
         -4    1    1    2    0  502  0.26108093473E+02 -0.21455412464E+02 -0.39334291016E+02  0.51857050808E+02  0.00000000000E+00 0. -1.
</event>
<event>
 5    1  0.4866530E-005  0.4525287E+03  0.7818608E-02  0.9664023E-01
         21   -1    0    0  501  502  0.00000000000E+00  0.00000000000E+00  0.27880408813E+03  0.27880408813E+03  0.00000000000E+00 0.  1.
          4   -1    0    0  502    0 -0.00000000000E+00 -0.00000000000E+00 -0.26072277844E+04  0.26072277844E+04  0.00000000000E+00 0.  1.
        -13    1    1    2    0    0 -0.68190985593E+02  0.34160565264E+03 -0.17155287220E+03  0.38829734940E+03  0.10566000000E+00 0.  1.
         13    1    1    2    0    0  0.44506748259E+03  0.26334034892E+03 -0.11813375629E+04  0.12895703363E+04  0.10566000000E+00 0. -1.
          4    1    1    2  501    0 -0.37687649700E+03 -0.60494600156E+03 -0.97553326109E+03  0.12081641868E+04  0.00000000000E+00 0.  1.
</event>
<event>
 5    1  0.4866530E-005  0.3221704E+03  0.7818608E-02  0.1028410E+00
         21   -1    0    0  501  502  0.00000000000E+00  0.00000000000E+00  0.27339796283E+03  0.27339796283E+03  0.00000000000E+00 0.  1.
          4   -1    0    0  502    0 -0.00000000000E+00 -0.00000000000E+00 -0.12220487305E+04  0.12220487305E+04  0.00000000000E+00 0.  1.
        -13    1    1    2    0    0 -0.25446153987E+03  0.21501796040E+03 -0.93966437661E+03  0.99697168986E+03  0.10566000000E+00 0.  1.
         13    1    1    2    0    0  0.10232455611E+03  0.70402397318E+02 -0.10332323535E+03  0.16156272608E+03  0.10566000000E+00 0. -1.
          4    1    1    2  501    0  0.15213698376E+03 -0.28542035771E+03  0.94336844327E+02  0.33691227734E+03  0.00000000000E+00 0.  1.
</event>
<event>
 5    1  0.4866530E-005  0.4829693E+03  0.7818608E-02  0.9783932E-01
          4   -1    0    0  502    0 -0.00000000000E+00  0.00000000000E+00  0.21297577785E+04  0.21297577785E+04  0.00000000000E+00 0.  1.
         21   -1    0    0  501  502  0.00000000000E+00 -0.00000000000E+00 -0.21039452354E+03  0.21039452354E+03  0.00000000000E+00 0.  1.
        -13    1    1    2    0    0  0.50848886822E+03  0.17719025493E+03  0.42570111862E+03  0.68642462740E+03  0.10566000000E+00 0.  1.
         13    1    1    2    0    0 -0.78052708782E+02 -0.17114306861E+03  0.90567434413E+03  0.92500173193E+03  0.10566000000E+00 0. -1.
          4    1    1    2  501    0 -0.43043615944E+03 -0.60471863120E+01  0.58798779222E+03  0.72872594273E+03  0.00000000000E+00 0.  1.
</event>
<event>
 5    1  0.4866530E-005  0.2969377E+03  0.7818608E-02  0.1012998E+00
          4   -1    0    0  502    0 -0.00000000000E+00  0.00000000000E+00  0.17989280517E+04  0.17989280517E+04  0.00000000000E+00 0.  1.
         21   -1    0    0  501  502  0.00000000000E+00 -0.00000000000E+00 -0.70735354473E+03  0.70735354473E+03  0.00000000000E+00 0.  1.
        -13    1    1    2    0    0 -0.15438261296E+03  0.99877279025E+02  0.41313637930E+03  0.45220696713E+03  0.10566000000E+00 0.  1.
         13    1    1    2    0    0  0.42334802476E+03 -0.27094545278E+03  0.12789689136E+04  0.13741893907E+04  0.10566000000E+00 0. -1.
          4    1    1    2  501    0 -0.26896541180E+03  0.17106817375E+03 -0.60053078592E+03  0.67988523859E+03  0.00000000000E+00 0.  1.
</event>
<event>
 5    1  0.4866530E-005  0.5955410E+02  0.7818608E-02  0.1257138E+00
         21   -1    0    0  501  502  0.00000000000E+00  0.00000000000E+00  0.11552113419E+03  0.11552113419E+03  0.00000000000E+00 0.  1.
          4   -1    0    0  502    0 -0.00000000000E+00 -0.00000000000E+00 -0.13005245452E+03  0.13005245452E+03  0.00000000000E+00 0.  1.
        -13    1    1    2    0    0  0.31706391572E+02 -0.57849276051E+02 -0.66163438786E+02  0.93431503264E+02  0.10566000000E+00 0.  1.
         13    1    1    2    0    0 -0.33214547529E+02  0.41633144811E+02 -0.35171076177E+02  0.63824295358E+02  0.10566000000E+00 0. -1.
          4    1    1    2  501    0  0.15081559569E+01  0.16216131240E+02  0.86803194632E+02  0.88317790082E+02  0.00000000000E+00 0.  1.
</event>
<event>
 5    1  0.4866530E-005  0.5815475E+02  0.7818608E-02  0.1261739E+00
         -4   -1    0    0    0  501 -0.00000000000E+00  0.00000000000E+00  0.16191577155E+03  0.16191577155E+03  0.00000000000E+00 0. -1.
         21   -1    0    0  501  502  0.00000000000E+00 -0.00000000000E+00 -0.38745481828E+02  0.38745481828E+02  0.00000000000E+00 0.  1.
        -13    1    1    2    0    0 -0.41965044330E+02 -0.53857119169E+02  0.21947221432E+02  0.71717124339E+02  0.10566000000E+00 0.  1.
         13    1    1    2    0    0  0.36361500619E+02  0.41676885361E+02  0.10143578350E+03  0.11553506324E+03  0.10566000000E+00 0. -1.
         -4    1    1    2    0  502  0.56035437119E+01  0.12180233808E+02 -0.21271520847E+00  0.13409065796E+02  0.00000000000E+00 0. -1.
</event>
<event>
 5    1  0.4866530E-005  0.2817580E+03  0.7818608E-02  0.1015133E+00
         -4   -1    0    0    0  501 -0.00000000000E+00  0.00000000000E+00  0.30144084800E+03  0.30144084800E+03  0.00000000000E+00 0. -1.
         21   -1    0    0  501  502  0.00000000000E+00 -0.00000000000E+00 -0.35843428114E+03  0.35843428114E+03  0.00000000000E+00 0.  1.
        -13    1    1    2    0    0 -0.17950117581E+03  0.21801480039E+03 -0.12803403089E+03  0.31007071699E+03  0.10566000000E+00 0.  1.
         13    1    1    2    0    0  0.18750872702E+03 -0.21002305093E+03  0.11521081286E+03  0.30420839435E+03  0.10566000000E+00 0. -1.
         -4    1    1    2    0  502 -0.80075512116E+01 -0.79917494655E+01 -0.44170215115E+02  0.45596017800E+02  0.00000000000E+00 0. -1.
</event>
<event>
 5    1  0.4866530E-005  0.5652257E+03  0.7818608E-02  0.9425576E-01
          4   -1    0    0  502    0 -0.00000000000E+00  0.00000000000E+00  0.14437192031E+04  0.14437192031E+04  0.00000000000E+00 0.  1.
         21   -1    0    0  501  502  0.00000000000E+00 -0.00000000000E+00 -0.80579958846E+03  0.80579958846E+03  0.00000000000E+00 0.  1.
        -13    1    1    2    0    0 -0.35224443888E+03  0.27668662914E+03  0.32590960135E+03  0.55393927003E+03  0.10566000000E+00 0.  1.
         13    1    1    2    0    0 -0.11854387280E+03 -0.73366170229E+03  0.62275959674E+03  0.96960902929E+03  0.10566000000E+00 0. -1.
          4    1    1    2  501    0  0.47078831168E+03  0.45697507314E+03 -0.31074958350E+03  0.72597049219E+03  0.00000000000E+00 0.  1.
</event>
<event>
 5    1  0.4866530E-005  0.2018920E+03  0.7818608E-02  0.1058846E+00
          4   -1    0    0  502    0 -0.00000000000E+00  0.00000000000E+00  0.19621036702E+03  0.19621036702E+03  0.00000000000E+00 0.  1.
         21   -1    0    0  501  502  0.00000000000E+00 -0.00000000000E+00 -0.65790409331E+03  0.65790409331E+03  0.00000000000E+00 0.  1.
        -13    1    1    2    0    0  0.19308781738E+03 -0.50559046286E+02  0.74419178130E+02  0.21301959445E+03  0.10566000000E+00 0.  1.
         13    1    1    2    0    0 -0.18103104058E+03  0.12650887803E+03 -0.20555976946E+03  0.30171437463E+03  0.10566000000E+00 0. -1.
          4    1    1    2  501    0 -0.12056776802E+02 -0.75949831748E+02 -0.33055313496E+03  0.33938049125E+03  0.00000000000E+00 0.  1.
</event>
<event>
 5    1  0.4866530E-005  0.1023978E+03  0.7818608E-02  0.1160648E+00
          4   -1    0    0  502    0 -0.00000000000E+00  0.00000000000E+00  0.24077855633E+02  0.24077855633E+02  0.00000000000E+00 0.  1.
         21   -1    0    0  501  502  0.00000000000E+00 -0.00000000000E+00 -0.14368140716E+04  0.14368140716E+04  0.00000000000E+00 0. -1.
        -13    1    1    2    0    0  0.17423777678E+01  0.10004230019E+03 -0.11434690788E+03  0.15194316113E+03  0.10566000000E+00 0.  1.
         13    1    1    2    0    0  0.13796623544E+02 -0.11371059954E+03 -0.63575643677E+03  0.64599280594E+03  0.10566000000E+00 0. -1.
          4    1    1    2  501    0 -0.15539001312E+02  0.13668299351E+02 -0.66263287127E+03  0.66295596012E+03  0.00000000000E+00 0.  1.
</event>
<event>
 5    1  0.4866530E-005  0.5136169E+03  0.7818608E-02  0.9551692E-01
         -4   -1    0    0    0  501 -0.00000000000E+00  0.00000000000E+00  0.34245344813E+03  0.34245344813E+03  0.00000000000E+00 0. -1.
         21   -1    0    0  501  502  0.00000000000E+00 -0.00000000000E+00 -0.15169428182E+04  0.15169428182E+04  0.00000000000E+00 0.  1.
        -13    1    1    2    0    0  0.35039980952E+03 -0.44258174391E+02 -0.25208807738E+03  0.43392075593E+03  0.10566000000E+00 0.  1.
         13    1    1    2    0    0 -0.12340942200E+03 -0.49018448685E+03 -0.40417030095E+03  0.64719731142E+03  0.10566000000E+00 0. -1.
         -4    1    1    2    0  502 -0.22699038752E+03  0.53444266124E+03 -0.51823099175E+03  0.77827819897E+03  0.00000000000E+00 0. -1.
</event>
<event>
 5    1  0.4866530E-005  0.4982564E+03  0.7818608E-02  0.9492915E-01
         21   -1    0    0  501  502  0.00000000000E+00  0.00000000000E+00  0.57068744518E+03  0.57068744518E+03  0.00000000000E+00 0.  1.
         -4   -1    0    0    0  501 -0.00000000000E+00 -0.00000000000E+00 -0.11946701847E+04  0.11946701847E+04  0.00000000000E+00 0. -1.
        -13    1    1    2    0    0  0.27883541984E+02 -0.50767949418E+03 -0.31894515486E+03  0.60020161920E+03  0.10566000000E+00 0.  1.
         13    1    1    2    0    0 -0.37356123253E+03 -0.21944800591E+02 -0.37387083585E+03  0.52896973617E+03  0.10566000000E+00 0. -1.
         -4    1    1    2    0  502  0.34567769054E+03  0.52962429477E+03  0.68833251238E+02  0.63618627447E+03  0.00000000000E+00 0. -1.
</event>
<event>
 5    1  0.4866530E-005  0.4742772E+02  0.7818608E-02  0.1302631E+00
         21   -1    0    0  501  502  0.00000000000E+00  0.00000000000E+00  0.10122273755E+03  0.10122273755E+03  0.00000000000E+00 0.  1.
         -4   -1    0    0    0  501 -0.00000000000E+00 -0.00000000000E+00 -0.43398360787E+02  0.43398360787E+02  0.00000000000E+00 0. -1.
        -13    1    1    2    0    0  0.10715160736E+02 -0.34226376607E+02  0.48367615010E+02  0.60213759815E+02  0.10566000000E+00 0.  1.
         13    1    1    2    0    0 -0.34796446152E+02  0.40324565139E+02 -0.82550640797E+01  0.53898241766E+02  0.10566000000E+00 0. -1.
         -4    1    1    2    0  502  0.24081285416E+02 -0.60981885323E+01  0.17711825837E+02  0.30509096760E+02  0.00000000000E+00 0. -1.
</event>
<event>
 5    1  0.4866530E-005  0.3151003E+03  0.7818608E-02  0.1015983E+00
          4   -1    0    0  502    0 -0.00000000000E+00  0.00000000000E+00  0.16958266710E+04  0.16958266710E+04  0.00000000000E+00 0.  1.
         21   -1    0    0  501  502  0.00000000000E+00 -0.00000000000E+00 -0.22887653287E+03  0.22887653287E+03  0.00000000000E+00 0.  1.
        -13    1    1    2    0    0 -0.29700161019E+03  0.15112801934E+03 -0.58208888954E+02  0.33828674317E+03  0.10566000000E+00 0.  1.
         13    1    1    2    0    0  0.19491401315E+03  0.21270260558E+02  0.42350090976E+03  0.46668718457E+03  0.10566000000E+00 0. -1.
          4    1    1    2  501    0  0.10208759704E+03 -0.17239827990E+03  0.11016581173E+04  0.11197292761E+04  0.00000000000E+00 0.  1.
</event>
<event>
 5    1  0.4866530E-005  0.1873981E+03  0.7818608E-02  0.1088958E+00
         -4   -1    0    0    0  501 -0.00000000000E+00  0.00000000000E+00  0.15472766527E+04  0.15472766527E+04  0.00000000000E+00 0. -1.
         21   -1    0    0  501  502  0.00000000000E+00 -0.00000000000E+00 -0.22199225015E+03  0.22199225015E+03  0.00000000000E+00 0. -1.
        -13    1    1    2    0    0  0.45866259139E+02 -0.96949371147E+02  0.38738290943E+03  0.40195574878E+03  0.10566000000E+00 0.  1.
         13    1    1    2    0    0 -0.52795841711E+02  0.28053355795E+03  0.10912745540E+04  0.11279923055E+04  0.10566000000E+00 0. -1.
         -4    1    1    2    0  502  0.69295825721E+01 -0.18358418680E+03 -0.15337306084E+03  0.23932084855E+03  0.00000000000E+00 0. -1.
</event>
<event>
 5    1  0.4866530E-005  0.4918666E+03  0.7818608E-02  0.9754559E-01
          4   -1    0    0  502    0 -0.00000000000E+00  0.00000000000E+00  0.86132856481E+03  0.86132856481E+03  0.00000000000E+00 0.  1.
         21   -1    0    0  501  502  0.00000000000E+00 -0.00000000000E+00 -0.97642643974E+03  0.97642643974E+03  0.00000000000E+00 0.  1.
        -13    1    1    2    0    0  0.16630751608E+03 -0.41613051213E+03 -0.33411053463E+03  0.55897464481E+03  0.10566000000E+00 0.  1.
         13    1    1    2    0    0  0.19591879594E+03 -0.20448653125E+02  0.57584333442E+03  0.60860321966E+03  0.10566000000E+00 0. -1.
          4    1    1    2  501    0 -0.36222631202E+03  0.43657916525E+03 -0.35683067473E+03  0.67017714008E+03  0.00000000000E+00 0.  1.
</event>
<event>
 5    1  0.4866530E-005  0.1616322E+03  0.7818608E-02  0.1090174E+00
         21   -1    0    0  501  502  0.00000000000E+00  0.00000000000E+00  0.97996895985E+02  0.97996895985E+02  0.00000000000E+00 0.  1.
          4   -1    0    0  502    0 -0.00000000000E+00 -0.00000000000E+00 -0.13205777783E+04  0.13205777783E+04  0.00000000000E+00 0.  1.
        -13    1    1    2    0    0  0.12214480441E+03 -0.11858346235E+03 -0.81355806542E+03  0.83117875801E+03  0.10566000000E+00 0.  1.
         13    1    1    2    0    0 -0.80284083928E+02  0.13005087582E+03 -0.48025194354E+03  0.50398482604E+03  0.10566000000E+00 0. -1.
          4    1    1    2  501    0 -0.41860720485E+02 -0.11467413473E+02  0.71229126652E+02  0.83411090240E+02  0.00000000000E+00 0.  1.
</event>
<event>
 5    1  0.4866530E-005  0.9775939E+03  0.7818608E-02  0.8795933E-01
         21   -1    0    0  501  502  0.00000000000E+00  0.00000000000E+00  0.15942896046E+04  0.15942896046E+04  0.00000000000E+00 0. -1.
          4   -1    0    0  502    0 -0.00000000000E+00 -0.00000000000E+00 -0.82623457325E+03  0.82623457325E+03  0.00000000000E+00 0.  1.
        -13    1    1    2    0    0  0.10463796379E+04  0.11461131133E+03  0.25979466784E+03  0.10842229383E+04  0.10566000000E+00 0.  1.
         13    1    1    2    0    0 -0.91483583740E+03  0.13508489809E+03  0.26048423478E+03  0.96074168579E+03  0.10566000000E+00 0. -1.
          4    1    1    2  501    0 -0.13154380049E+03 -0.24969620942E+03  0.24777612869E+03  0.37555955373E+03  0.00000000000E+00 0.  1.
</event>
<event>
 5    1  0.4866530E-005  0.2024541E+03  0.7818608E-02  0.1112656E+00
          4   -1    0    0  502    0 -0.00000000000E+00  0.00000000000E+00  0.13828617509E+03  0.13828617509E+03  0.00000000000E+00 0.  1.
         21   -1    0    0  501  502  0.00000000000E+00 -0.00000000000E+00 -0.78560073193E+03  0.78560073193E+03  0.00000000000E+00 0.  1.
        -13    1    1    2    0    0  0.21174073613E+03  0.88890621966E+02 -0.50769953800E+02  0.23518775772E+03  0.10566000000E+00 0.  1.
         13    1    1    2    0    0 -0.42480527850E+02  0.14221342165E+02  0.13885160559E+02  0.46900433549E+02  0.10566000000E+00 0. -1.
          4    1    1    2  501    0 -0.16926020828E+03 -0.10311196413E+03 -0.61042976359E+03  0.64179871575E+03  0.00000000000E+00 0.  1.
</event>
<event>
 5    1  0.4866530E-005  0.4978415E+02  0.7818608E-02  0.1292670E+00
         21   -1    0    0  501  502  0.00000000000E+00  0.00000000000E+00  0.26304557764E+02  0.26304557764E+02  0.00000000000E+00 0.  1.
         -4   -1    0    0    0  501 -0.00000000000E+00 -0.00000000000E+00 -0.27731853203E+03  0.27731853203E+03  0.00000000000E+00 0. -1.
        -13    1    1    2    0    0 -0.50927445226E+02 -0.22382415836E+02 -0.26969636452E+02  0.61821919011E+02  0.10566000000E+00 0.  1.
         13    1    1    2    0    0  0.48147737942E+02  0.94472799799E+01 -0.22321573262E+03  0.22854481010E+03  0.10566000000E+00 0. -1.
         -4    1    1    2    0  502  0.27797072839E+01  0.12935135856E+02 -0.82860519661E+00  0.13256360691E+02  0.00000000000E+00 0. -1.
</event>
<event>
 5    1  0.4866530E-005  0.4950791E+02  0.7818608E-02  0.1293805E+00
         21   -1    0    0  501  502  0.00000000000E+00  0.00000000000E+00  0.23562115809E+02  0.23562115809E+02  0.00000000000E+00 0.  1.
         -4   -1    0    0    0  501 -0.00000000000E+00 -0.00000000000E+00 -0.15581022103E+03  0.15581022103E+03  0.00000000000E+00 0. -1.
        -13    1    1    2    0    0  0.36207791526E+02  0.30476264944E+02 -0.42438030732E+02  0.63567322647E+02  0.10566000000E+00 0.  1.
         13    1    1    2    0    0 -0.25388634194E+02 -0.46194839366E+02 -0.74897078494E+02  0.91586731906E+02  0.10566000000E+00 0. -1.
         -4    1    1    2    0  502 -0.10819157332E+02  0.15718574422E+02 -0.14912995991E+02  0.24218282281E+02  0.00000000000E+00 0. -1.
</event>
<event>
 5    1  0.4866530E-005  0.6248013E+03  0.7818608E-02  0.9265955E-01
         -4   -1    0    0    0  501 -0.00000000000E+00  0.00000000000E+00  0.11238206519E+04  0.11238206519E+04  0.00000000000E+00 0. -1.
         21   -1    0    0  501  502  0.00000000000E+00 -0.00000000000E+00 -0.93713693653E+03  0.93713693653E+03  0.00000000000E+00 0.  1.
        -13    1    1    2    0    0  0.69159505433E+03 -0.37594897037E+03  0.74120478812E+02  0.79065492096E+03  0.10566000000E+00 0.  1.
         13    1    1    2    0    0 -0.50521929572E+03 -0.22040720754E+03  0.28722184727E+03  0.62154828824E+03  0.10566000000E+00 0. -1.
         -4    1    1    2    0  502 -0.18637575861E+03  0.59635617790E+03 -0.17465861069E+03  0.64875437926E+03  0.00000000000E+00 0. -1.
</event>
<event>
 5    1  0.4866530E-005  0.3984154E+03  0.7818608E-02  0.9936661E-01
         -4   -1    0    0    0  501 -0.00000000000E+00  0.00000000000E+00  0.34371698892E+03  0.34371698892E+03  0.00000000000E+00 0. -1.
         21   -1    0    0  501  502  0.00000000000E+00 -0.00000000000E+00 -0.12196058872E+04  0.12196058872E+04  0.00000000000E+00 0. -1.
        -13    1    1    2    0    0  0.59450403054E+02 -0.19115717863E+03  0.19497666870E+02  0.20113574407E+03  0.10566000000E+00 0.  1.
         13    1    1    2    0    0  0.11231134083E+02 -0.23999845092E+03  0.11129123075E+03  0.26478509026E+03  0.10566000000E+00 0. -1.
         -4    1    1    2    0  502 -0.70681537136E+02  0.43115562955E+03 -0.10066777959E+04  0.10974020418E+04  0.00000000000E+00 0. -1.
</event>
<event>
 5    1  0.4866530E-005  0.9843692E+02  0.7818608E-02  0.1167168E+00
         -4   -1    0    0    0  501 -0.00000000000E+00  0.00000000000E+00  0.38056298300E+02  0.38056298300E+02  0.00000000000E+00 0. -1.
         21   -1    0    0  501  502  0.00000000000E+00 -0.00000000000E+00 -0.47243288740E+03  0.47243288740E+03  0.00000000000E+00 0. -1.
        -13    1    1    2    0    0 -0.76986973989E+02 -0.58805833161E+02 -0.11051915940E+03  0.14696807795E+03  0.10566000000E+00 0.  1.
         13    1    1    2    0    0  0.70349588120E+02  0.71778680357E+02 -0.10935903229E+03  0.14852828892E+03  0.10566000000E+00 0. -1.
         -4    1    1    2    0  502  0.66373858688E+01 -0.12972847196E+02 -0.21449839742E+03  0.21499281884E+03  0.00000000000E+00 0. -1.
</event>
<event>
 5    1  0.4866530E-005  0.4174583E+03  0.7818608E-02  0.9679936E-01
         21   -1    0    0  501  502  0.00000000000E+00  0.00000000000E+00  0.18571027876E+03  0.18571027876E+03  0.00000000000E+00 0. -1.
         -4   -1    0    0    0  501 -0.00000000000E+00 -0.00000000000E+00 -0.29505614129E+04  0.29505614129E+04  0.00000000000E+00 0. -1.
        -13    1    1    2    0    0 -0.36229846343E+03  0.12385217644E+03 -0.97275422113E+03  0.10453948173E+04  0.10566000000E+00 0.  1.
         13    1    1    2    0    0  0.43290729028E+03 -0.38420302601E+03 -0.48178413285E+03  0.75308475552E+03  0.10566000000E+00 0. -1.
         -4    1    1    2    0  502 -0.70608826846E+02  0.26035084957E+03 -0.13103127802E+04  0.13377921188E+04  0.00000000000E+00 0. -1.
</event>
<event>
 5    1  0.4866530E-005  0.5614140E+03  0.7818608E-02  0.9352652E-01
          4   -1    0    0  502    0 -0.00000000000E+00  0.00000000000E+00  0.37181114502E+03  0.37181114502E+03  0.00000000000E+00 0.  1.
         21   -1    0    0  501  502  0.00000000000E+00 -0.00000000000E+00 -0.93893184792E+03  0.93893184792E+03  0.00000000000E+00 0. -1.
        -13    1    1    2    0    0 -0.20671682530E+03  0.52421662367E+03 -0.23183829654E+03  0.60933071587E+03  0.10566000000E+00 0.  1.
         13    1    1    2    0    0  0.18527125030E+03 -0.52791476237E+03 -0.24893137632E+03  0.61236122820E+03  0.10566000000E+00 0. -1.
          4    1    1    2  501    0  0.21445575000E+02  0.36981387061E+01 -0.86351030038E+02  0.89051048874E+02  0.00000000000E+00 0.  1.
</event>
<event>
 5    1  0.4866530E-005  0.6376408E+02  0.7818608E-02  0.1244105E+00
         21   -1    0    0  501  502  0.00000000000E+00  0.00000000000E+00  0.94093245196E+02  0.94093245196E+02  0.00000000000E+00 0. -1.
         -4   -1    0    0    0  501 -0.00000000000E+00 -0.00000000000E+00 -0.10647860792E+03  0.10647860792E+03  0.00000000000E+00 0. -1.
        -13    1    1    2    0    0  0.52235640663E+02  0.29598029720E+01 -0.70113396013E+01  0.52787239330E+02  0.10566000000E+00 0.  1.
         13    1    1    2    0    0 -0.71253394688E+02 -0.16991835929E+02 -0.55807319889E+02  0.92088201525E+02  0.10566000000E+00 0. -1.
         -4    1    1    2    0  502  0.19017754026E+02  0.14032032957E+02  0.50433296762E+02  0.55696412266E+02  0.00000000000E+00 0. -1.
</event>
<event>
 5    1  0.4866530E-005  0.5935824E+02  0.7818608E-02  0.1257773E+00
         21   -1    0    0  501  502  0.00000000000E+00  0.00000000000E+00  0.73125998420E+02  0.73125998420E+02  0.00000000000E+00 0.  1.
          4   -1    0    0  502    0 -0.00000000000E+00 -0.00000000000E+00 -0.75992979035E+02  0.75992979035E+02  0.00000000000E+00 0.  1.
        -13    1    1    2    0    0  0.78831336888E+01  0.67479683424E+02 -0.13097500206E+02  0.69189646245E+02  0.10566000000E+00 0.  1.
         13    1    1    2    0    0 -0.21779071487E+02 -0.48283828468E+02 -0.25022756607E+01  0.53027621047E+02  0.10566000000E+00 0. -1.
          4    1    1    2  501    0  0.13895937798E+02 -0.19195854956E+02  0.12732795253E+02  0.26901710163E+02  0.00000000000E+00 0.  1.
</event>
<event>
 5    1  0.4866530E-005  0.3851064E+03  0.7818608E-02  0.9773072E-01
          4   -1    0    0  502    0 -0.00000000000E+00  0.00000000000E+00  0.20899669761E+04  0.20899669761E+04  0.00000000000E+00 0.  1.
         21   -1    0    0  501  502  0.00000000000E+00 -0.00000000000E+00 -0.37758744642E+03  0.37758744642E+03  0.00000000000E+00 0.  1.
        -13    1    1    2    0    0  0.15994520430E+03 -0.22180266938E+03 -0.26517139915E+03  0.38091308013E+03  0.10566000000E+00 0.  1.
         13    1    1    2    0    0 -0.39113473620E+03  0.96402375013E+02  0.11916473140E+04  0.12578963121E+04  0.10566000000E+00 0. -1.
          4    1    1    2  501    0  0.23118953190E+03  0.12540029437E+03  0.78590361482E+03  0.82874503032E+03  0.00000000000E+00 0.  1.
</event>
<event>
 5    1  0.5489650E-005  0.3963343E+03  0.7818608E-02  0.9799927E-01
         21   -1    0    0  501  502  0.00000000000E+00  0.00000000000E+00  0.40699015028E+03  0.40699015028E+03  0.00000000000E+00 0. -1.
         -4   -1    0    0    0  501 -0.00000000000E+00 -0.00000000000E+00 -0.14126369376E+04  0.14126369376E+04  0.00000000000E+00 0. -1.
        -13    1    1    2    0    0  0.32225206943E+03  0.28116071193E+01 -0.62127848882E+03  0.69988661455E+03  0.10566000000E+00 0.  1.
         13    1    1    2    0    0  0.71617421473E+02  0.21548513280E+03 -0.58442080313E+03  0.62698531388E+03  0.10566000000E+00 0. -1.
         -4    1    1    2    0  502 -0.39386949091E+03 -0.21829673992E+03  0.20005250465E+03  0.49275515943E+03  0.00000000000E+00 0. -1.
</event>
<event>
 5    1  0.4866530E-005  0.3018845E+03  0.7818608E-02  0.1006812E+00
         21   -1    0    0  501  502  0.00000000000E+00  0.00000000000E+00  0.19749261128E+03  0.19749261128E+03  0.00000000000E+00 0. -1.
         -4   -1    0    0    0  501 -0.00000000000E+00 -0.00000000000E+00 -0.23997911150E+04  0.23997911150E+04  0.00000000000E+00 0. -1.
        -13    1    1    2    0    0 -0.29073284626E+03 -0.86260370095E+02 -0.73508237562E+03  0.79518082815E+03  0.10566000000E+00 0.  1.
         13    1    1    2    0    0 -0.96584596760E+02 -0.26434301927E+03 -0.42507542655E+02  0.28462733269E+03  0.10566000000E+00 0. -1.
         -4    1    1    2    0  502  0.38731744302E+03  0.35060338937E+03 -0.14247085855E+04  0.15174755655E+04  0.00000000000E+00 0. -1.
</event>
<event>
 5    1  0.4866530E-005  0.1275862E+03  0.7818608E-02  0.1125590E+00
         21   -1    0    0  501  502  0.00000000000E+00  0.00000000000E+00  0.16290043802E+03  0.16290043802E+03  0.00000000000E+00 0.  1.
         -4   -1    0    0    0  501 -0.00000000000E+00 -0.00000000000E+00 -0.11493030053E+03  0.11493030053E+03  0.00000000000E+00 0. -1.
        -13    1    1    2    0    0 -0.31148181325E+02  0.12409572756E+03  0.24628454339E+01  0.12796888516E+03  0.10566000000E+00 0.  1.
         13    1    1    2    0    0  0.44391366186E+02 -0.11958310119E+03  0.34726914992E+02  0.13219939966E+03  0.10566000000E+00 0. -1.
         -4    1    1    2    0  502 -0.13243184862E+02 -0.45126263638E+01  0.10780377070E+02  0.17662453730E+02  0.00000000000E+00 0. -1.
</event>
<event>
 5    1  0.4866530E-005  0.2645800E+03  0.7818608E-02  0.1029556E+00
          4   -1    0    0  502    0 -0.00000000000E+00  0.00000000000E+00  0.35669467034E+04  0.35669467034E+04  0.00000000000E+00 0.  1.
         21   -1    0    0  501  502  0.00000000000E+00 -0.00000000000E+00 -0.13136715119E+03  0.13136715119E+03  0.00000000000E+00 0.  1.
        -13    1    1    2    0    0 -0.13030845072E+02  0.22275924135E+03  0.61188770972E+02  0.23137752568E+03  0.10566000000E+00 0.  1.
         13    1    1    2    0    0 -0.14578170096E+03  0.25362387303E+03  0.11593115174E+04  0.11956506927E+04  0.10566000000E+00 0. -1.
          4    1    1    2  501    0  0.15881254603E+03 -0.47638311438E+03  0.22150792638E+04  0.22712856362E+04  0.00000000000E+00 0.  1.
</event>
<event>
 5    1  0.4866530E-005  0.9278583E+02  0.7818608E-02  0.1177077E+00
         21   -1    0    0  501  502  0.00000000000E+00  0.00000000000E+00  0.29890764802E+03  0.29890764802E+03  0.00000000000E+00 0. -1.
         -4   -1    0    0    0  501 -0.00000000000E+00 -0.00000000000E+00 -0.21612902603E+03  0.21612902603E+03  0.00000000000E+00 0. -1.
        -13    1    1    2    0    0  0.57686361105E+02  0.37865648438E+02  0.14597088541E+02  0.70530913414E+02  0.10566000000E+00 0.  1.
         13    1    1    2    0    0 -0.83257833246E+02 -0.55920364215E+02 -0.17371685186E+03  0.20059040285E+03  0.10566000000E+00 0. -1.
         -4    1    1    2    0  502  0.25571472141E+02  0.18054715777E+02  0.24189838531E+03  0.24391535779E+03  0.00000000000E+00 0. -1.
</event>
<event>
 5    1  0.4866530E-005  0.3511827E+03  0.7818608E-02  0.9992815E-01
         21   -1    0    0  501  502  0.00000000000E+00  0.00000000000E+00  0.59971427512E+03  0.59971427512E+03  0.00000000000E+00 0.  1.
          4   -1    0    0  502    0 -0.00000000000E+00 -0.00000000000E+00 -0.70607998509E+03  0.70607998509E+03  0.00000000000E+00 0.  1.
        -13    1    1    2    0    0 -0.50344313908E+03  0.14304245939E+03 -0.26141846585E+03  0.58502629422E+03  0.10566000000E+00 0.  1.
         13    1    1    2    0    0  0.17823844720E+03 -0.16494572519E+03 -0.14068408227E+03  0.28065647772E+03  0.10566000000E+00 0. -1.
          4    1    1    2  501    0  0.32520469188E+03  0.21903265797E+02  0.29573683814E+03  0.44011148827E+03  0.00000000000E+00 0.  1.
</event>
<event>
 5    1  0.4866530E-005  0.9660886E+03  0.7818608E-02  0.9006014E-01
         21   -1    0    0  501  502  0.00000000000E+00  0.00000000000E+00  0.12266348066E+04  0.12266348066E+04  0.00000000000E+00 0.  1.
         -4   -1    0    0    0  501 -0.00000000000E+00 -0.00000000000E+00 -0.12622334355E+04  0.12622334355E+04  0.00000000000E+00 0. -1.
        -13    1    1    2    0    0 -0.97490377179E+03  0.22418977223E+03  0.24094288905E+03  0.10289567071E+04  0.10566000000E+00 0.  1.
         13    1    1    2    0    0  0.20757289884E+03  0.36277752103E+03 -0.26281299800E+03  0.49372534995E+03  0.10566000000E+00 0. -1.
         -4    1    1    2    0  502  0.76733087295E+03 -0.58696729327E+03 -0.13728519932E+02  0.96618618506E+03  0.00000000000E+00 0. -1.
</event>
<event>
 5    1  0.4866530E-005  0.1262353E+03  0.7818608E-02  0.1150227E+00
         21   -1    0    0  501  502  0.00000000000E+00  0.00000000000E+00  0.10661582341E+04  0.10661582341E+04  0.00000000000E+00 0. -1.
         -4   -1    0    0    0  501 -0.00000000000E+00 -0.00000000000E+00 -0.68099746757E+02  0.68099746757E+02  0.00000000000E+00 0. -1.
        -13    1    1    2    0    0 -0.57485261867E+02 -0.40967141462E+02  0.72866874382E+02  0.10145173511E+03  0.10566000000E+00 0.  1.
         13    1    1    2    0    0  0.16005682420E+03  0.10377913425E+03  0.13544236691E+03  0.23395072472E+03  0.10566000000E+00 0. -1.
         -4    1    1    2    0  502 -0.10257156233E+03 -0.62811992784E+02  0.78974924601E+03  0.79885552098E+03  0.00000000000E+00 0. -1.
</event>
<event>
 5    1  0.5227490E-005  0.9523488E+03  0.7818608E-02  0.8820699E-01
          4   -1    0    0  502    0 -0.00000000000E+00  0.00000000000E+00  0.11656108146E+04  0.11656108146E+04  0.00000000000E+00 0.  1.
         21   -1    0    0  501  502  0.00000000000E+00 -0.00000000000E+00 -0.12492649265E+04  0.12492649265E+04  0.00000000000E+00 0. -1.
        -13    1    1    2    0    0 -0.95445974313E+03 -0.11206003260E+03  0.89028871140E+02  0.96513056279E+03  0.10566000000E+00 0.  1.
         13    1    1    2    0    0  0.94778932457E+03  0.82482421890E+01  0.27756921634E+03  0.98763217763E+03  0.10566000000E+00 0. -1.
          4    1    1    2  501    0  0.66704185693E+01  0.10381179041E+03 -0.45025219937E+03  0.46211300063E+03  0.00000000000E+00 0.  1.
</event>
<event>
 5    1  0.4866530E-005  0.2624787E+03  0.7818608E-02  0.1024122E+00
         21   -1    0    0  501  502  0.00000000000E+00  0.00000000000E+00  0.41608599851E+03  0.41608599851E+03  0.00000000000E+00 0. -1.
          4   -1    0    0  502    0 -0.00000000000E+00 -0.00000000000E+00 -0.18992554093E+03  0.18992554093E+03  0.00000000000E+00 0.  1.
        -13    1    1    2    0    0 -0.79811929594E+02  0.24678337287E+03  0.67991186855E+02  0.26813203815E+03  0.10566000000E+00 0.  1.
         13    1    1    2    0    0  0.96256633152E+02 -0.24842861643E+03  0.11230277386E+03  0.28912634101E+03  0.10566000000E+00 0. -1.
          4    1    1    2  501    0 -0.16444703558E+02  0.16452435565E+01  0.45866496865E+02  0.48753160268E+02  0.00000000000E+00 0.  1.
</event>
<event>
 5    1  0.4866530E-005  0.3679456E+03  0.7818608E-02  0.9942332E-01
         21   -1    0    0  501  502  0.00000000000E+00  0.00000000000E+00  0.22195072713E+03  0.22195072713E+03  0.00000000000E+00 0.  1.
          4   -1    0    0  502    0 -0.00000000000E+00 -0.00000000000E+00 -0.25804797912E+04  0.25804797912E+04  0.00000000000E+00 0.  1.
        -13    1    1    2    0    0 -0.41554654641E+03 -0.30915937304E+03 -0.96490961661E+03  0.10951296862E+04  0.10566000000E+00 0.  1.
         13    1    1    2    0    0  0.24933193161E+03  0.64721031478E+01 -0.13336976997E+04  0.13568190246E+04  0.10566000000E+00 0. -1.
          4    1    1    2  501    0  0.16621461480E+03  0.30268726990E+03 -0.59921747730E+02  0.35048180749E+03  0.00000000000E+00 0.  1.
</event>
<event>
 5    1  0.4866530E-005  0.2348132E+03  0.7818608E-02  0.1073207E+00
         21   -1    0    0  501  502  0.00000000000E+00  0.00000000000E+00  0.15565099985E+03  0.15565099985E+03  0.00000000000E+00 0. -1.
         -4   -1    0    0    0  501 -0.00000000000E+00 -0.00000000000E+00 -0.19300356090E+04  0.19300356090E+04  0.00000000000E+00 0. -1.
        -13    1    1    2    0    0  0.16074120040E+01  0.84783248005E+02 -0.37521325451E+03  0.38467620207E+03  0.10566000000E+00 0.  1.
         13    1    1    2    0    0  0.23140516365E+03 -0.10923839301E+03 -0.14405420024E+04  0.14630935200E+04  0.10566000000E+00 0. -1.
         -4    1    1    2    0  502 -0.23301257565E+03  0.24455145001E+02  0.41370647781E+02  0.23791688681E+03  0.00000000000E+00 0. -1.
</event>
<event>
 5    1  0.4866530E-005  0.1925046E+03  0.7818608E-02  0.1065399E+00
         -4   -1    0    0    0  501 -0.00000000000E+00  0.00000000000E+00  0.28503123314E+03  0.28503123314E+03  0.00000000000E+00 0. -1.
         21   -1    0    0  501  502  0.00000000000E+00 -0.00000000000E+00 -0.43131287094E+03  0.43131287094E+03  0.00000000000E+00 0.  1.
        -13    1    1    2    0    0 -0.19234782509E+03 -0.10929459641E+03 -0.27572196415E+03  0.35350474863E+03  0.10566000000E+00 0.  1.
         13    1    1    2    0    0  0.14883987449E+03  0.11705119335E+03  0.20263596119E+03  0.27733667993E+03  0.10566000000E+00 0. -1.
         -4    1    1    2    0  502  0.43507950601E+02 -0.77565969486E+01 -0.73195634839E+02  0.85502675521E+02  0.00000000000E+00 0. -1.
</event>
<event>
 5    1  0.4866530E-005  0.4901207E+03  0.7818608E-02  0.1001125E+00
         -4   -1    0    0    0  501 -0.00000000000E+00  0.00000000000E+00  0.80930309149E+03  0.80930309149E+03  0.00000000000E+00 0. -1.
         21   -1    0    0  501  502  0.00000000000E+00 -0.00000000000E+00 -0.50901153058E+03  0.50901153058E+03  0.00000000000E+00 0. -1.
        -13    1    1    2    0    0 -0.70750696736E+02 -0.45465429733E+02  0.30852361957E+03  0.31978055192E+03  0.10566000000E+00 0.  1.
         13    1    1    2    0    0  0.53153869455E+03  0.22428667543E+02  0.45987327810E+02  0.53399557528E+03  0.10566000000E+00 0. -1.
         -4    1    1    2    0  502 -0.46078799782E+03  0.23036762190E+02 -0.54219386471E+02  0.46453849487E+03  0.00000000000E+00 0. -1.
</event>
<event>
 5    1  0.4866530E-005  0.1913611E+03  0.7818608E-02  0.1066225E+00
         21   -1    0    0  501  502  0.00000000000E+00  0.00000000000E+00  0.69862408439E+02  0.69862408439E+02  0.00000000000E+00 0. -1.
         -4   -1    0    0    0  501 -0.00000000000E+00 -0.00000000000E+00 -0.27725938291E+04  0.27725938291E+04  0.00000000000E+00 0. -1.
        -13    1    1    2    0    0 -0.38966592550E+02  0.21679356143E+03 -0.10513382892E+04  0.10741648166E+04  0.10566000000E+00 0.  1.
         13    1    1    2    0    0 -0.47165466257E+02 -0.62864586807E+02  0.25132956190E+02  0.82511902975E+02  0.10566000000E+00 0. -1.
         -4    1    1    2    0  502  0.86132058807E+02 -0.15392897462E+03 -0.16765260877E+04  0.16857795180E+04  0.00000000000E+00 0. -1.
</event>
<event>
 5    1  0.4866530E-005  0.1071295E+03  0.7818608E-02  0.1153270E+00
         -4   -1    0    0    0  501 -0.00000000000E+00  0.00000000000E+00  0.11966883234E+03  0.11966883234E+03  0.00000000000E+00 0. -1.
         21   -1    0    0  501  502  0.00000000000E+00 -0.00000000000E+00 -0.12004228302E+03  0.12004228302E+03  0.00000000000E+00 0.  1.
        -13    1    1    2    0    0  0.99042044404E+02  0.52556088211E+02 -0.68680593748E+01  0.11233276624E+03  0.10566000000E+00 0.  1.
         13    1    1    2    0    0 -0.94133853656E+02 -0.43637469813E+02  0.24576724881E+02  0.10662756560E+03  0.10566000000E+00 0. -1.
         -4    1    1    2    0  502 -0.49081907482E+01 -0.89186183976E+01 -0.18082116189E+02  0.20750783513E+02  0.00000000000E+00 0. -1.
</event>
<event>
 5    1  0.4866530E-005  0.3121006E+03  0.7818608E-02  0.1002672E+00
         21   -1    0    0  501  502  0.00000000000E+00  0.00000000000E+00  0.96022981639E+03  0.96022981639E+03  0.00000000000E+00 0.  1.
          4   -1    0    0  502    0 -0.00000000000E+00 -0.00000000000E+00 -0.74431741160E+03  0.74431741160E+03  0.00000000000E+00 0.  1.
        -13    1    1    2    0    0  0.22690964035E+03  0.22723709708E+03  0.75604628557E+03  0.82141991713E+03  0.10566000000E+00 0.  1.
         13    1    1    2    0    0  0.13391542624E+03 -0.27921354923E+03 -0.36508617040E+03  0.47872901566E+03  0.10566000000E+00 0. -1.
          4    1    1    2  501    0 -0.36082506658E+03  0.51976452145E+02 -0.17504771038E+03  0.40439829520E+03  0.00000000000E+00 0.  1.
</event>
<event>
 5    1  0.4866530E-005  0.2635412E+03  0.7818608E-02  0.1023605E+00
         21   -1    0    0  501  502  0.00000000000E+00  0.00000000000E+00  0.17753895934E+03  0.17753895934E+03  0.00000000000E+00 0. -1.
         -4   -1    0    0    0  501 -0.00000000000E+00 -0.00000000000E+00 -0.13173864343E+04  0.13173864343E+04  0.00000000000E+00 0. -1.
        -13    1    1    2    0    0 -0.11124742233E+03 -0.22212993704E+03 -0.60144606032E+03  0.65073425647E+03  0.10566000000E+00 0.  1.
         13    1    1    2    0    0  0.30378911894E+02  0.29169483736E+03 -0.63552399884E+03  0.69992822539E+03  0.10566000000E+00 0. -1.
         -4    1    1    2    0  502  0.80868510437E+02 -0.69564900323E+02  0.97122584229E+02  0.14426291174E+03  0.00000000000E+00 0. -1.
</event>
<event>
 5    1  0.4866530E-005  0.2017995E+03  0.7818608E-02  0.1058909E+00
         21   -1    0    0  501  502  0.00000000000E+00  0.00000000000E+00  0.33321124509E+03  0.33321124509E+03  0.00000000000E+00 0. -1.
         -4   -1    0    0    0  501 -0.00000000000E+00 -0.00000000000E+00 -0.45729830112E+03  0.45729830112E+03  0.00000000000E+00 0. -1.
        -13    1    1    2    0    0  0.90056224839E+02 -0.16596719221E+03 -0.58891415595E+01  0.18891777490E+03  0.10566000000E+00 0.  1.
         13    1    1    2    0    0 -0.10543280924E+03  0.17699989906E+03 -0.32995388197E+03  0.38899179544E+03  0.10566000000E+00 0. -1.
         -4    1    1    2    0  502  0.15376584396E+02 -0.11032706847E+02  0.21175596749E+03  0.21259997586E+03  0.00000000000E+00 0. -1.
</event>
<event>
 5    1  0.4866530E-005  0.9830107E+02  0.7818608E-02  0.1167397E+00
         21   -1    0    0  501  502  0.00000000000E+00  0.00000000000E+00  0.31572019167E+03  0.31572019167E+03  0.00000000000E+00 0. -1.
         -4   -1    0    0    0  501 -0.00000000000E+00 -0.00000000000E+00 -0.21185414860E+03  0.21185414860E+03  0.00000000000E+00 0. -1.
        -13    1    1    2    0    0  0.67018165270E+02 -0.45316197254E+02  0.83596068470E+02  0.11633273846E+03  0.10566000000E+00 0.  1.
         13    1    1    2    0    0 -0.84482230701E+02  0.54543569226E+02 -0.18204074214E+03  0.20796896694E+03  0.10566000000E+00 0. -1.
         -4    1    1    2    0  502  0.17464065431E+02 -0.92273719720E+01  0.20231071675E+03  0.20327263487E+03  0.00000000000E+00 0. -1.
</event>
<event>
 5    1  0.4866530E-005  0.4474273E+03  0.7818608E-02  0.9747892E-01
         21   -1    0    0  501  502  0.00000000000E+00  0.00000000000E+00  0.17453173253E+03  0.17453173253E+03  0.00000000000E+00 0. -1.
          4   -1    0    0  502    0 -0.00000000000E+00 -0.00000000000E+00 -0.24849261550E+04  0.24849261550E+04  0.00000000000E+00 0.  1.
        -13    1    1    2    0    0  0.22802605547E+03  0.30212589242E+03 -0.56337471582E+03  0.67872455270E+03  0.10566000000E+00 0.  1.
         13    1    1    2    0    0  0.24630793323E+03  0.10507391229E+03 -0.28710269560E+03  0.39260169893E+03  0.10566000000E+00 0. -1.
          4    1    1    2  501    0 -0.47433398871E+03 -0.40719980472E+03 -0.14599170111E+04  0.15881316359E+04  0.00000000000E+00 0.  1.
</event>
<event>
 5    1  0.4866530E-005  0.4834452E+03  0.7818608E-02  0.9515014E-01
         21   -1    0    0  501  502  0.00000000000E+00  0.00000000000E+00  0.34362603341E+03  0.34362603341E+03  0.00000000000E+00 0.  1.
          4   -1    0    0  502    0 -0.00000000000E+00 -0.00000000000E+00 -0.21339250007E+04  0.21339250007E+04  0.00000000000E+00 0.  1.
        -13    1    1    2    0    0 -0.29484329387E+03  0.44683005133E+03 -0.76606292799E+02  0.54079404395E+03  0.10566000000E+00 0.  1.
         13    1    1    2    0    0 -0.10114950028E+03 -0.49314327197E+03 -0.93247664441E+03  0.10596859023E+04  0.10566000000E+00 0. -1.
          4    1    1    2  501    0  0.39599279415E+03  0.46313220636E+02 -0.78121603012E+03  0.87707108784E+03  0.00000000000E+00 0.  1.
</event>
<event>
 5    1  0.4866530E-005  0.3256392E+03  0.7818608E-02  0.9972507E-01
          4   -1    0    0  502    0 -0.00000000000E+00  0.00000000000E+00  0.13667548541E+04  0.13667548541E+04  0.00000000000E+00 0.  1.
         21   -1    0    0  501  502  0.00000000000E+00 -0.00000000000E+00 -0.16076363916E+03  0.16076363916E+03  0.00000000000E+00 0. -1.
        -13    1    1    2    0    0 -0.74446738508E+02 -0.35590071308E+03  0.40035123523E+03  0.54082229721E+03  0.10566000000E+00 0.  1.
         13    1    1    2    0    0  0.46793181068E+02  0.30745919292E+03  0.85649732827E+03  0.91121262151E+03  0.10566000000E+00 0. -1.
          4    1    1    2  501    0  0.27653557440E+02  0.48441520164E+02 -0.50857348592E+02  0.75483574509E+02  0.00000000000E+00 0.  1.
</event>
<event>
 5    1  0.4866530E-005  0.3725008E+03  0.7818608E-02  0.9845533E-01
         21   -1    0    0  501  502  0.00000000000E+00  0.00000000000E+00  0.54663788067E+03  0.54663788067E+03  0.00000000000E+00 0. -1.
         -4   -1    0    0    0  501 -0.00000000000E+00 -0.00000000000E+00 -0.88398496569E+03  0.88398496569E+03  0.00000000000E+00 0. -1.
        -13    1    1    2    0    0  0.31243449322E+03 -0.11356828833E+03 -0.75032823574E+02  0.34079760042E+03  0.10566000000E+00 0.  1.
         13    1    1    2    0    0 -0.17069565040E+03  0.45625697054E+03 -0.45963304086E+03  0.66975366490E+03  0.10566000000E+00 0. -1.
         -4    1    1    2    0  502 -0.14173884282E+03 -0.34268868221E+03  0.19731877942E+03  0.42007158103E+03  0.00000000000E+00 0. -1.
</event>
<event>
 5    1  0.4866530E-005  0.7174768E+02  0.7818608E-02  0.1236329E+00
         -4   -1    0    0    0  501 -0.00000000000E+00  0.00000000000E+00  0.41154020922E+03  0.41154020922E+03  0.00000000000E+00 0. -1.
         21   -1    0    0  501  502  0.00000000000E+00 -0.00000000000E+00 -0.79700501864E+02  0.79700501864E+02  0.00000000000E+00 0. -1.
        -13    1    1    2    0    0 -0.52822269569E+02  0.77310002748E+00  0.58635556931E+02  0.78923567753E+02  0.10566000000E+00 0.  1.
         13    1    1    2    0    0  0.11883451777E+03  0.18461335468E+02  0.31129269145E+03  0.33371486996E+03  0.10566000000E+00 0. -1.
         -4    1    1    2    0  502 -0.66012248203E+02 -0.19234435495E+02 -0.38088541023E+02  0.78602273370E+02  0.00000000000E+00 0. -1.
</event>
<event>
 5    1  0.4866530E-005  0.5850564E+03  0.7818608E-02  0.9308819E-01
         21   -1    0    0  501  502  0.00000000000E+00  0.00000000000E+00  0.24696758828E+03  0.24696758828E+03  0.00000000000E+00 0. -1.
          4   -1    0    0  502    0 -0.00000000000E+00 -0.00000000000E+00 -0.44024793835E+04  0.44024793835E+04  0.00000000000E+00 0.  1.
        -13    1    1    2    0    0  0.50175739343E+03 -0.25055911703E+03 -0.20793303559E+04  0.21536376420E+04  0.10566000000E+00 0.  1.
         13    1    1    2    0    0 -0.27241346121E+03  0.75446651106E+03 -0.14716792875E+04  0.16760873326E+04  0.10566000000E+00 0. -1.
          4    1    1    2  501    0 -0.22934393222E+03 -0.50390739403E+03 -0.60450215174E+03  0.81972199706E+03  0.00000000000E+00 0.  1.
</event>
<event>
 5    1  0.4866530E-005  0.5521909E+03  0.7818608E-02  0.9370374E-01
         -4   -1    0    0    0  501 -0.00000000000E+00  0.00000000000E+00  0.10339076133E+04  0.10339076133E+04  0.00000000000E+00 0. -1.
         21   -1    0    0  501  502  0.00000000000E+00 -0.00000000000E+00 -0.65294640817E+03  0.65294640817E+03  0.00000000000E+00 0.  1.
        -13    1    1    2    0    0 -0.25310649755E+02  0.49432339137E+03 -0.19498770671E+02  0.49535488033E+03  0.10566000000E+00 0.  1.
         13    1    1    2    0    0  0.72881349633E+02 -0.63433150333E+03 -0.12066071605E+03  0.64980548382E+03  0.10566000000E+00 0. -1.
         -4    1    1    2    0  502 -0.47570699878E+02  0.14000811197E+03  0.52112069187E+03  0.54169365733E+03  0.00000000000E+00 0. -1.
</event>
<event>
 5    1  0.4866530E-005  0.6666479E+03  0.7818608E-02  0.9172817E-01
          4   -1    0    0  502    0 -0.00000000000E+00  0.00000000000E+00  0.10115077059E+04  0.10115077059E+04  0.00000000000E+00 0.  1.
         21   -1    0    0  501  502  0.00000000000E+00 -0.00000000000E+00 -0.83619247293E+03  0.83619247293E+03  0.00000000000E+00 0. -1.
        -13    1    1    2    0    0  0.47344734174E+03  0.52251442630E+03  0.47794575609E+03  0.85182502195E+03  0.10566000000E+00 0.  1.
         13    1    1    2    0    0 -0.57648041753E+03 -0.25427311132E+03 -0.85769530475E+02  0.63587806257E+03  0.10566000000E+00 0. -1.
          4    1    1    2  501    0  0.10303307579E+03 -0.26824131498E+03 -0.21686099266E+03  0.35999709430E+03  0.00000000000E+00 0.  1.
</event>
<event>
 5    1  0.4866530E-005  0.9488494E+02  0.7818608E-02  0.1173308E+00
          4   -1    0    0  502    0 -0.00000000000E+00  0.00000000000E+00  0.69842601931E+02  0.69842601931E+02  0.00000000000E+00 0.  1.
         21   -1    0    0  501  502  0.00000000000E+00 -0.00000000000E+00 -0.44093919775E+03  0.44093919775E+03  0.00000000000E+00 0. -1.
        -13    1    1    2    0    0  0.82814685821E+02  0.47742386293E+02  0.25823701290E+02  0.99017586059E+02  0.10566000000E+00 0.  1.
         13    1    1    2    0    0 -0.85516551886E+02 -0.28525785792E+02 -0.32463158662E+03  0.33691613095E+03  0.10566000000E+00 0. -1.
          4    1    1    2  501    0  0.27018660650E+01 -0.19216600501E+02 -0.72288710489E+02  0.74848082668E+02  0.00000000000E+00 0.  1.
</event>
<event>
 5    1  0.4866530E-005  0.1023329E+03  0.7818608E-02  0.1160752E+00
          4   -1    0    0  502    0 -0.00000000000E+00  0.00000000000E+00  0.29161729745E+03  0.29161729745E+03  0.00000000000E+00 0.  1.
         21   -1    0    0  501  502  0.00000000000E+00 -0.00000000000E+00 -0.84254677934E+02  0.84254677934E+02  0.00000000000E+00 0.  1.
        -13    1    1    2    0    0 -0.80210355014E+02  0.71220060359E+02  0.22495968523E+03  0.24922453570E+03  0.10566000000E+00 0.  1.
         13    1    1    2    0    0  0.68580776023E+02 -0.54137042870E+02  0.14404572822E+02  0.88553063938E+02  0.10566000000E+00 0. -1.
          4    1    1    2  501    0  0.11629578990E+02 -0.17083017489E+02 -0.32001638543E+02  0.38094375746E+02  0.00000000000E+00 0.  1.
</event>
<event>
 5    1  0.4866530E-005  0.3492610E+03  0.7818608E-02  0.1008653E+00
         -4   -1    0    0    0  501 -0.00000000000E+00  0.00000000000E+00  0.19176632304E+04  0.19176632304E+04  0.00000000000E+00 0. -1.
         21   -1    0    0  501  502  0.00000000000E+00 -0.00000000000E+00 -0.18388106367E+03  0.18388106367E+03  0.00000000000E+00 0. -1.
        -13    1    1    2    0    0  0.15826034041E+03 -0.89947618279E+02  0.23280053318E+03  0.29552158769E+03  0.10566000000E+00 0.  1.
         13    1    1    2    0    0 -0.27484920310E+03 -0.24330205626E+03  0.13874152861E+04  0.14351512681E+04  0.10566000000E+00 0. -1.
         -4    1    1    2    0  502  0.11658886269E+03  0.33324967454E+03  0.11356634749E+03  0.37087143833E+03  0.00000000000E+00 0. -1.
</event>
<event>
 5    1  0.4866530E-005  0.2517019E+03  0.7818608E-02  0.1029515E+00
         -4   -1    0    0    0  501 -0.00000000000E+00  0.00000000000E+00  0.13434329220E+04  0.13434329220E+04  0.00000000000E+00 0. -1.
         21   -1    0    0  501  502  0.00000000000E+00 -0.00000000000E+00 -0.11168925450E+03  0.11168925450E+03  0.00000000000E+00 0.  1.
        -13    1    1    2    0    0  0.16518485938E+03 -0.11305324955E+03  0.26809630019E+03  0.33457840985E+03  0.10566000000E+00 0.  1.
         13    1    1    2    0    0 -0.23131344872E+03  0.16156145671E+03  0.99386717012E+03  0.10331408321E+04  0.10566000000E+00 0. -1.
         -4    1    1    2    0  502  0.66128589342E+02 -0.48508207163E+02 -0.30219802813E+02  0.87402934576E+02  0.00000000000E+00 0. -1.
</event>
<event>
 5    1  0.6998526E-005  0.3600206E+03  0.7818608E-02  0.1030527E+00
         -4   -1    0    0    0  501 -0.00000000000E+00  0.00000000000E+00  0.11023308144E+04  0.11023308144E+04  0.00000000000E+00 0. -1.
         21   -1    0    0  501  502  0.00000000000E+00 -0.00000000000E+00 -0.27475500121E+03  0.27475500121E+03  0.00000000000E+00 0. -1.
        -13    1    1    2    0    0 -0.46286330525E+02 -0.69332848596E+02  0.14392147184E+03  0.16632158461E+03  0.10566000000E+00 0.  1.
         13    1    1    2    0    0  0.29928613262E+03 -0.19025143000E+03  0.76148934306E+03  0.84002013461E+03  0.10566000000E+00 0. -1.
         -4    1    1    2    0  502 -0.25299980209E+03  0.25958427859E+03 -0.77835001671E+02  0.37074409643E+03  0.00000000000E+00 0. -1.
</event>
<event>
 5    1  0.4866530E-005  0.4833823E+02  0.7818608E-02  0.1337775E+00
         21   -1    0    0  501  502  0.00000000000E+00  0.00000000000E+00  0.16517466091E+03  0.16517466091E+03  0.00000000000E+00 0.  1.
         -4   -1    0    0    0  501 -0.00000000000E+00 -0.00000000000E+00 -0.66794129312E+02  0.66794129312E+02  0.00000000000E+00 0. -1.
        -13    1    1    2    0    0  0.18885011574E+02 -0.13352135014E+02  0.49990977284E+02  0.55082049212E+02  0.10566000000E+00 0.  1.
         13    1    1    2    0    0 -0.60075395820E+02 -0.10133990072E+02 -0.42561161024E+02  0.74318332392E+02  0.10566000000E+00 0. -1.
         -4    1    1    2    0  502  0.41190384247E+02  0.23486125087E+02  0.90950715338E+02  0.10256840862E+03  0.00000000000E+00 0. -1.
</event>
<event>
 5    1  0.4866530E-005  0.2027836E+03  0.7818608E-02  0.1062576E+00
          4   -1    0    0  502    0 -0.00000000000E+00  0.00000000000E+00  0.28425535261E+03  0.28425535261E+03  0.00000000000E+00 0.  1.
         21   -1    0    0  501  502  0.00000000000E+00 -0.00000000000E+00 -0.11811861388E+04  0.11811861388E+04  0.00000000000E+00 0.  1.
        -13    1    1    2    0    0  0.92844771795E+02 -0.12432292479E+03  0.19977302192E+03  0.25295377588E+03  0.10566000000E+00 0.  1.
         13    1    1    2    0    0 -0.16372437550E+03 -0.71668589830E+02 -0.12356048929E+03  0.21727692832E+03  0.10566000000E+00 0. -1.
          4    1    1    2  501    0  0.70879603704E+02  0.19599151462E+03 -0.97314331880E+03  0.99521078720E+03  0.00000000000E+00 0.  1.
</event>
<event>
 5    1  0.4866530E-005  0.3908572E+03  0.7818608E-02  0.9755828E-01
          4   -1    0    0  502    0 -0.00000000000E+00  0.00000000000E+00  0.25657804149E+04  0.25657804149E+04  0.00000000000E+00 0.  1.
         21   -1    0    0  501  502  0.00000000000E+00 -0.00000000000E+00 -0.42253147730E+03  0.42253147730E+03  0.00000000000E+00 0.  1.
        -13    1    1    2    0    0  0.44035749372E+03  0.25807132011E+03  0.45741061966E+03  0.68537582003E+03  0.10566000000E+00 0.  1.
         13    1    1    2    0    0 -0.83547303319E+02 -0.38505165012E+03  0.18490283434E+04  0.18905424489E+04  0.10566000000E+00 0. -1.
          4    1    1    2  501    0 -0.35681019040E+03  0.12698033001E+03 -0.16319002541E+03  0.41239362335E+03  0.00000000000E+00 0.  1.
</event>
<event>
 5    1  0.4866530E-005  0.2892841E+03  0.7818608E-02  0.1011829E+00
         21   -1    0    0  501  502  0.00000000000E+00  0.00000000000E+00  0.81443932811E+02  0.81443932811E+02  0.00000000000E+00 0.  1.
         -4   -1    0    0    0  501 -0.00000000000E+00 -0.00000000000E+00 -0.11606842786E+04  0.11606842786E+04  0.00000000000E+00 0. -1.
        -13    1    1    2    0    0  0.18954299517E+03 -0.20758905912E+03 -0.44887592969E+03  0.52963135849E+03  0.10566000000E+00 0.  1.
         13    1    1    2    0    0 -0.18255272217E+03  0.23373709750E+03 -0.61112891228E+03  0.67929160580E+03  0.10566000000E+00 0. -1.
         -4    1    1    2    0  502 -0.69902729999E+01 -0.26148038383E+02 -0.19235503794E+02  0.33205247087E+02  0.00000000000E+00 0. -1.
</event>
<event>
 5    1  0.4866530E-005  0.1350902E+03  0.7818608E-02  0.1116824E+00
         -4   -1    0    0    0  501 -0.00000000000E+00  0.00000000000E+00  0.10782649700E+03  0.10782649700E+03  0.00000000000E+00 0. -1.
         21   -1    0    0  501  502  0.00000000000E+00 -0.00000000000E+00 -0.22728055374E+03  0.22728055374E+03  0.00000000000E+00 0.  1.
        -13    1    1    2    0    0  0.87443946244E+02 -0.11209827521E+03 -0.18729277314E+02  0.14339896803E+03  0.10566000000E+00 0.  1.
         13    1    1    2    0    0 -0.65201636471E+02  0.10947979638E+03 -0.51147223246E+02  0.13730669621E+03  0.10566000000E+00 0. -1.
         -4    1    1    2    0  502 -0.22242309773E+02  0.26184788352E+01 -0.49577556184E+02  0.54401386495E+02  0.00000000000E+00 0. -1.
</event>
<event>
 5    1  0.4866530E-005  0.4941304E+03  0.7818608E-02  0.9671157E-01
         -4   -1    0    0    0  501 -0.00000000000E+00  0.00000000000E+00  0.21049107761E+04  0.21049107761E+04  0.00000000000E+00 0. -1.
         21   -1    0    0  501  502  0.00000000000E+00 -0.00000000000E+00 -0.19788016750E+03  0.19788016750E+03  0.00000000000E+00 0. -1.
        -13    1    1    2    0    0 -0.21162994580E+03  0.15031751149E+03  0.30897312933E+03  0.40354305103E+03  0.10566000000E+00 0.  1.
         13    1    1    2    0    0 -0.36996652803E+03  0.64487218819E+01  0.92361808817E+03  0.99498100577E+03  0.10566000000E+00 0. -1.
         -4    1    1    2    0  502  0.58159647383E+03 -0.15676623337E+03  0.67443939110E+03  0.90426688680E+03  0.00000000000E+00 0. -1.
</event>
<event>
 5    1  0.4866530E-005  0.4824713E+03  0.7818608E-02  0.9831891E-01
          4   -1    0    0  502    0 -0.00000000000E+00  0.00000000000E+00  0.13721632540E+04  0.13721632540E+04  0.00000000000E+00 0.  1.
         21   -1    0    0  501  502  0.00000000000E+00 -0.00000000000E+00 -0.27587946751E+03  0.27587946751E+03  0.00000000000E+00 0.  1.
        -13    1    1    2    0    0 -0.41131362081E+03 -0.12782506688E+03  0.58201719766E+03  0.72405950855E+03  0.10566000000E+00 0.  1.
         13    1    1    2    0    0 -0.10608227198E+03  0.12008358613E+03  0.34357955119E+03  0.37910478135E+03  0.10566000000E+00 0. -1.
          4    1    1    2  501    0  0.51739589279E+03  0.77414807452E+01  0.17068703763E+03  0.54487843159E+03  0.00000000000E+00 0.  1.
</event>
<event>
 5    1  0.4866530E-005  0.4728874E+03  0.7818608E-02  0.9578736E-01
          4   -1    0    0  502    0 -0.00000000000E+00  0.00000000000E+00  0.23139528068E+04  0.23139528068E+04  0.00000000000E+00 0.  1.
         21   -1    0    0  501  502  0.00000000000E+00 -0.00000000000E+00 -0.34658810926E+03  0.34658810926E+03  0.00000000000E+00 0.  1.
        -13    1    1    2    0    0  0.30580714916E+02  0.18105662402E+03  0.84250963737E+03  0.86228718039E+03  0.10566000000E+00 0.  1.
         13    1    1    2    0    0 -0.49074782912E+03  0.12896487486E+03  0.11350486402E+04  0.12433023758E+04  0.10566000000E+00 0. -1.
          4    1    1    2  501    0  0.46016711421E+03 -0.31002149889E+03 -0.10193580085E+02  0.55495135989E+03  0.00000000000E+00 0.  1.
</event>
<event>
 5    1  0.4866530E-005  0.4977750E+03  0.7818608E-02  0.9781572E-01
          4   -1    0    0  502    0 -0.00000000000E+00  0.00000000000E+00  0.10250201105E+04  0.10250201105E+04  0.00000000000E+00 0.  1.
         21   -1    0    0  501  502  0.00000000000E+00 -0.00000000000E+00 -0.35786255088E+03  0.35786255088E+03  0.00000000000E+00 0.  1.
        -13    1    1    2    0    0  0.12585978828E+03  0.45677716737E+03  0.20608188599E+03  0.51667767693E+03  0.10566000000E+00 0.  1.
         13    1    1    2    0    0  0.17305690950E+03 -0.71821163265E+01  0.20584195522E+03  0.26901895549E+03  0.10566000000E+00 0. -1.
          4    1    1    2  501    0 -0.29891669779E+03 -0.44959505104E+03  0.25523371838E+03  0.59718602892E+03  0.00000000000E+00 0.  1.
</event>
<event>
 5    1  0.4866530E-005  0.5283516E+03  0.7818608E-02  0.9417906E-01
         21   -1    0    0  501  502  0.00000000000E+00  0.00000000000E+00  0.60584289660E+03  0.60584289660E+03  0.00000000000E+00 0. -1.
          4   -1    0    0  502    0 -0.00000000000E+00 -0.00000000000E+00 -0.10463432514E+04  0.10463432514E+04  0.00000000000E+00 0.  1.
        -13    1    1    2    0    0  0.49388294728E+03  0.46697570597E+03 -0.24921084656E+03  0.72394249274E+03  0.10566000000E+00 0.  1.
         13    1    1    2    0    0 -0.50680563457E+02 -0.45965393502E+03 -0.62457885178E+02  0.46663825183E+03  0.10566000000E+00 0. -1.
          4    1    1    2  501    0 -0.44320238383E+03 -0.73217709556E+01 -0.12883162305E+03  0.46160540341E+03  0.00000000000E+00 0.  1.
</event>
<event>
 5    1  0.4866530E-005  0.4326604E+03  0.7818608E-02  0.9892491E-01
         -4   -1    0    0    0  501 -0.00000000000E+00  0.00000000000E+00  0.20785365138E+04  0.20785365138E+04  0.00000000000E+00 0. -1.
         21   -1    0    0  501  502  0.00000000000E+00 -0.00000000000E+00 -0.19582112008E+03  0.19582112008E+03  0.00000000000E+00 0. -1.
        -13    1    1    2    0    0  0.17494533021E+03 -0.46925772099E+02  0.63608918001E+03  0.66137534936E+03  0.10566000000E+00 0.  1.
         13    1    1    2    0    0  0.31242881226E+03 -0.23571202156E+03  0.23909470020E+03  0.45862643477E+03  0.10566000000E+00 0. -1.
         -4    1    1    2    0  502 -0.48737414247E+03  0.28263779366E+03  0.10075315135E+04  0.11543558498E+04  0.00000000000E+00 0. -1.
</event>
<event>
 5    1  0.4866530E-005  0.4820937E+02  0.7818608E-02  0.1309671E+00
          4   -1    0    0  502    0 -0.00000000000E+00  0.00000000000E+00  0.23670636832E+02  0.23670636832E+02  0.00000000000E+00 0.  1.
         21   -1    0    0  501  502  0.00000000000E+00 -0.00000000000E+00 -0.29422743514E+03  0.29422743514E+03  0.00000000000E+00 0.  1.
        -13    1    1    2    0    0 -0.53140692765E+02 -0.55003781930E+01 -0.57852269283E+02  0.78746959389E+02  0.10566000000E+00 0.  1.
         13    1    1    2    0    0  0.13831891739E+02  0.36939959399E+02 -0.29770324389E+02  0.49418267956E+02  0.10566000000E+00 0. -1.
          4    1    1    2  501    0  0.39308801026E+02 -0.31439581206E+02 -0.18293420464E+03  0.18973284463E+03  0.00000000000E+00 0.  1.
</event>
<event>
 5    1  0.4866530E-005  0.4167210E+03  0.7818608E-02  0.9683953E-01
         21   -1    0    0  501  502  0.00000000000E+00  0.00000000000E+00  0.43479549631E+03  0.43479549631E+03  0.00000000000E+00 0. -1.
          4   -1    0    0  502    0 -0.00000000000E+00 -0.00000000000E+00 -0.17033260777E+04  0.17033260777E+04  0.00000000000E+00 0.  1.
        -13    1    1    2    0    0 -0.12567369723E+02  0.41103824851E+03 -0.78651403625E+03  0.88753294074E+03  0.10566000000E+00 0.  1.
         13    1    1    2    0    0  0.42259410087E+03 -0.33664413149E+03 -0.60979466488E+03  0.81471749081E+03  0.10566000000E+00 0. -1.
          4    1    1    2  501    0 -0.41002673115E+03 -0.74394117015E+02  0.12777811977E+03  0.43587114242E+03  0.00000000000E+00 0.  1.
</event>
<event>
 5    1  0.4866530E-005  0.6605979E+02  0.7818608E-02  0.1237461E+00
         21   -1    0    0  501  502  0.00000000000E+00  0.00000000000E+00  0.29384939310E+02  0.29384939310E+02  0.00000000000E+00 0.  1.
          4   -1    0    0  502    0 -0.00000000000E+00 -0.00000000000E+00 -0.29794237165E+03  0.29794237165E+03  0.00000000000E+00 0.  1.
        -13    1    1    2    0    0  0.49906118268E+02  0.56546557563E+02 -0.20787758137E+03  0.22113623361E+03  0.10566000000E+00 0.  1.
         13    1    1    2    0    0 -0.45643144279E+02 -0.19801216866E+02 -0.29727770006E+02  0.57958056236E+02  0.10566000000E+00 0. -1.
          4    1    1    2  501    0 -0.42629739889E+01 -0.36745340697E+02 -0.30952080959E+02  0.48233021115E+02  0.00000000000E+00 0.  1.
</event>
<event>
 5    1  0.4866530E-005  0.4084001E+03  0.7818608E-02  0.9960229E-01
         -4   -1    0    0    0  501 -0.00000000000E+00  0.00000000000E+00  0.17816123998E+03  0.17816123998E+03  0.00000000000E+00 0. -1.
         21   -1    0    0  501  502  0.00000000000E+00 -0.00000000000E+00 -0.16751681013E+04  0.16751681013E+04  0.00000000000E+00 0. -1.
        -13    1    1    2    0    0  0.17135375915E+03  0.13739551579E+02 -0.22924789412E+03  0.28654056288E+03  0.10566000000E+00 0.  1.
         13    1    1    2    0    0  0.74483110957E+02  0.38540342428E+03 -0.86053890902E+03  0.94583865345E+03  0.10566000000E+00 0. -1.
         -4    1    1    2    0  502 -0.24583687010E+03 -0.39914297586E+03 -0.40722005814E+03  0.62095012491E+03  0.00000000000E+00 0. -1.
</event>
<event>
 5    1  0.4866530E-005  0.4324601E+03  0.7818608E-02  0.9655769E-01
         21   -1    0    0  501  502  0.00000000000E+00  0.00000000000E+00  0.65051576810E+03  0.65051576810E+03  0.00000000000E+00 0. -1.
         -4   -1    0    0    0  501 -0.00000000000E+00 -0.00000000000E+00 -0.12067274254E+04  0.12067274254E+04  0.00000000000E+00 0. -1.
        -13    1    1    2    0    0  0.40835974309E+03  0.16899111041E+02 -0.76628165427E+03  0.86846464785E+03  0.10566000000E+00 0.  1.
         13    1    1    2    0    0  0.43490884226E+02 -0.33990949491E+03 -0.94298892866E+02  0.35541836489E+03  0.10566000000E+00 0. -1.
         -4    1    1    2    0  502 -0.45185062731E+03  0.32301038387E+03  0.30436888983E+03  0.63336018077E+03  0.00000000000E+00 0. -1.
</event>
<event>
 5    1  0.4866530E-005  0.5136927E+02  0.7818608E-02  0.1286312E+00
          4   -1    0    0  502    0 -0.00000000000E+00  0.00000000000E+00  0.38067604142E+02  0.38067604142E+02  0.00000000000E+00 0.  1.
         21   -1    0    0  501  502  0.00000000000E+00 -0.00000000000E+00 -0.12378213272E+03  0.12378213272E+03  0.00000000000E+00 0.  1.
        -13    1    1    2    0    0  0.59939294020E+02 -0.30189241828E+02 -0.29877834226E+02  0.73462952784E+02  0.10566000000E+00 0.  1.
         13    1    1    2    0    0 -0.37583530706E+02  0.11302725191E+02 -0.31502139942E+02  0.50325633250E+02  0.10566000000E+00 0. -1.
          4    1    1    2  501    0 -0.22355763314E+02  0.18886516637E+02 -0.24334554413E+02  0.38061150830E+02  0.00000000000E+00 0.  1.
</event>
<event>
 5    1  0.4866530E-005  0.3979372E+03  0.7818608E-02  0.9975483E-01
         21   -1    0    0  501  502  0.00000000000E+00  0.00000000000E+00  0.10418835891E+03  0.10418835891E+03  0.00000000000E+00 0.  1.
          4   -1    0    0  502    0 -0.00000000000E+00 -0.00000000000E+00 -0.30513855592E+04  0.30513855592E+04  0.00000000000E+00 0.  1.
        -13    1    1    2    0    0  0.43239585129E+03  0.27548309999E+03 -0.19416248947E+04  0.20081743832E+04  0.10566000000E+00 0.  1.
         13    1    1    2    0    0 -0.17598521940E+03 -0.15909925854E+02 -0.44218467396E+03  0.47618401930E+03  0.10566000000E+00 0. -1.
          4    1    1    2  501    0 -0.25641063189E+03 -0.25957317413E+03 -0.56338763164E+03  0.67121551558E+03  0.00000000000E+00 0.  1.
</event>
<event>
 5    1  0.4866530E-005  0.2545981E+03  0.7818608E-02  0.1051055E+00
         -4   -1    0    0    0  501 -0.00000000000E+00  0.00000000000E+00  0.16984180815E+04  0.16984180815E+04  0.00000000000E+00 0. -1.
         21   -1    0    0  501  502  0.00000000000E+00 -0.00000000000E+00 -0.19029984840E+03  0.19029984840E+03  0.00000000000E+00 0. -1.
        -13    1    1    2    0    0  0.17354962219E+02 -0.12545704240E+03  0.12737232775E+03  0.17962289732E+03  0.10566000000E+00 0.  1.
         13    1    1    2    0    0 -0.16189480821E+03  0.32545232313E+03  0.14141190951E+04  0.14600897129E+04  0.10566000000E+00 0. -1.
         -4    1    1    2    0  502  0.14453984599E+03 -0.19999528073E+03 -0.33373189791E+02  0.24900531960E+03  0.00000000000E+00 0. -1.
</event>
<event>
 5    1  0.4866530E-005  0.5034308E+03  0.7818608E-02  0.9612352E-01
          4   -1    0    0  502    0 -0.00000000000E+00  0.00000000000E+00  0.11365030457E+04  0.11365030457E+04  0.00000000000E+00 0.  1.
         21   -1    0    0  501  502  0.00000000000E+00 -0.00000000000E+00 -0.62481697222E+03  0.62481697222E+03  0.00000000000E+00 0.  1.
        -13    1    1    2    0    0 -0.24669305974E+03 -0.54087429321E+03 -0.87064749031E+02  0.60081839891E+03  0.10566000000E+00 0.  1.
         13    1    1    2    0    0  0.29036586712E+03  0.83060005255E+02  0.63092607324E+03  0.69948482637E+03  0.10566000000E+00 0. -1.
          4    1    1    2  501    0 -0.43672807378E+02  0.45781428796E+03 -0.32175250716E+02  0.46101679267E+03  0.00000000000E+00 0.  1.
</event>
<event>
 5    1  0.4866530E-005  0.1073178E+03  0.7818608E-02  0.1152985E+00
         21   -1    0    0  501  502  0.00000000000E+00  0.00000000000E+00  0.30231447087E+02  0.30231447087E+02  0.00000000000E+00 0. -1.
          4   -1    0    0  502    0 -0.00000000000E+00 -0.00000000000E+00 -0.43723442197E+03  0.43723442197E+03  0.00000000000E+00 0.  1.
        -13    1    1    2    0    0  0.10237105460E+03  0.43587517060E+02 -0.19546837025E+03  0.22491687219E+03  0.10566000000E+00 0.  1.
         13    1    1    2    0    0 -0.90876845455E+02 -0.50835249530E+02 -0.19573844851E+03  0.22171237003E+03  0.10566000000E+00 0. -1.
          4    1    1    2  501    0 -0.11494209144E+02  0.72477324698E+01 -0.15796156126E+02  0.20836626842E+02  0.00000000000E+00 0.  1.
</event>
<event>
 5    1  0.4866530E-005  0.4839341E+03  0.7818608E-02  0.9632360E-01
         21   -1    0    0  501  502  0.00000000000E+00  0.00000000000E+00  0.20003513835E+03  0.20003513835E+03  0.00000000000E+00 0.  1.
          4   -1    0    0  502    0 -0.00000000000E+00 -0.00000000000E+00 -0.25204186826E+04  0.25204186826E+04  0.00000000000E+00 0.  1.
        -13    1    1    2    0    0  0.11899294082E+03  0.59125960760E+03 -0.67473510095E+03  0.90499431554E+03  0.10566000000E+00 0.  1.
         13    1    1    2    0    0 -0.24453384194E+03 -0.20133442540E+03 -0.10164819958E+04  0.10646915091E+04  0.10566000000E+00 0. -1.
          4    1    1    2  501    0  0.12554090112E+03 -0.38992518220E+03 -0.62916644753E+03  0.75076799629E+03  0.00000000000E+00 0.  1.
</event>
<event>
 5    1  0.4866530E-005  0.9795072E+02  0.7818608E-02  0.1167991E+00
         21   -1    0    0  501  502  0.00000000000E+00  0.00000000000E+00  0.57219226879E+02  0.57219226879E+02  0.00000000000E+00 0.  1.
          4   -1    0    0  502    0 -0.00000000000E+00 -0.00000000000E+00 -0.69382136066E+03  0.69382136066E+03  0.00000000000E+00 0.  1.
        -13    1    1    2    0    0 -0.99543702004E+02  0.59387501951E+02 -0.46597213975E+03  0.48017275036E+03  0.10566000000E+00 0.  1.
         13    1    1    2    0    0  0.26085032558E+02 -0.82867448627E+02 -0.17313307487E+03  0.19370729399E+03  0.10566000000E+00 0. -1.
          4    1    1    2  501    0  0.73458669446E+02  0.23479946676E+02  0.25030808402E+01  0.77160543196E+02  0.00000000000E+00 0.  1.
</event>
<event>
 5    1  0.4866530E-005  0.1617852E+03  0.7818608E-02  0.1090037E+00
         -4   -1    0    0    0  501 -0.00000000000E+00  0.00000000000E+00  0.43529605458E+03  0.43529605458E+03  0.00000000000E+00 0. -1.
         21   -1    0    0  501  502  0.00000000000E+00 -0.00000000000E+00 -0.82263057000E+02  0.82263057000E+02  0.00000000000E+00 0.  1.
        -13    1    1    2    0    0 -0.75900184402E+02 -0.13842184767E+03  0.57087713022E+02  0.16787037871E+03  0.10566000000E+00 0.  1.
         13    1    1    2    0    0  0.92811894831E+02  0.13466780123E+03  0.28665577605E+03  0.33003183122E+03  0.10566000000E+00 0. -1.
         -4    1    1    2    0  502 -0.16911710429E+02  0.37540464395E+01  0.92895085038E+01  0.19656901651E+02  0.00000000000E+00 0. -1.
</event>
<event>
 5    1  0.4866530E-005  0.4910165E+03  0.7818608E-02  0.9822500E-01
         -4   -1    0    0    0  501 -0.00000000000E+00  0.00000000000E+00  0.16680147097E+04  0.16680147097E+04  0.00000000000E+00 0. -1.
         21   -1    0    0  501  502  0.00000000000E+00 -0.00000000000E+00 -0.22395569238E+03  0.22395569238E+03  0.00000000000E+00 0. -1.
        -13    1    1    2    0    0 -0.64679813946E+02 -0.14298500955E+03  0.45824921043E+03  0.48437644587E+03  0.10566000000E+00 0.  1.
         13    1    1    2    0    0 -0.42895225401E+03 -0.73059324859E+02  0.61550321111E+03  0.75377842581E+03  0.10566000000E+00 0. -1.
         -4    1    1    2    0  502  0.49363206795E+03  0.21604433441E+03  0.37030659581E+03  0.65381553044E+03  0.00000000000E+00 0. -1.
</event>
<event>
 5    1  0.4866530E-005  0.5138975E+03  0.7818608E-02  0.9448021E-01
          4   -1    0    0  502    0 -0.00000000000E+00  0.00000000000E+00  0.59912825502E+03  0.59912825502E+03  0.00000000000E+00 0.  1.
         21   -1    0    0  501  502  0.00000000000E+00 -0.00000000000E+00 -0.59204920038E+03  0.59204920038E+03  0.00000000000E+00 0. -1.
        -13    1    1    2    0    0 -0.67653756014E+02  0.50371575079E+03  0.24437148022E+03  0.56393618416E+03  0.10566000000E+00 0.  1.
         13    1    1    2    0    0  0.37784000744E+02 -0.52623429321E+03 -0.17737867482E+03  0.55660881013E+03  0.10566000000E+00 0. -1.
          4    1    1    2  501    0  0.29869755271E+02  0.22518542426E+02 -0.59913750763E+02  0.70632461117E+02  0.00000000000E+00 0.  1.
</event>
<event>
 5    1  0.4866530E-005  0.1382722E+03  0.7818608E-02  0.1113291E+00
          4   -1    0    0  502    0 -0.00000000000E+00  0.00000000000E+00  0.53775087378E+03  0.53775087378E+03  0.00000000000E+00 0.  1.
         21   -1    0    0  501  502  0.00000000000E+00 -0.00000000000E+00 -0.19193305585E+03  0.19193305585E+03  0.00000000000E+00 0.  1.
        -13    1    1    2    0    0  0.91039891698E+01  0.14178820307E+03  0.39596364489E+03  0.42068277405E+03  0.10566000000E+00 0.  1.
         13    1    1    2    0    0 -0.16754383713E+01 -0.12852352785E+03  0.97027369481E+02  0.16104479469E+03  0.10566000000E+00 0. -1.
          4    1    1    2  501    0 -0.74285507985E+01 -0.13264675221E+02 -0.14717319645E+03  0.14795636089E+03  0.00000000000E+00 0.  1.
</event>
<event>
 5    1  0.4866530E-005  0.1285345E+03  0.7818608E-02  0.1124446E+00
          4   -1    0    0  502    0 -0.00000000000E+00  0.00000000000E+00  0.83522184586E+03  0.83522184586E+03  0.00000000000E+00 0.  1.
         21   -1    0    0  501  502  0.00000000000E+00 -0.00000000000E+00 -0.14248317307E+03  0.14248317307E+03  0.00000000000E+00 0.  1.
        -13    1    1    2    0    0 -0.23342029829E+02 -0.19822624295E+03  0.93583877379E+02  0.22044601838E+03  0.10566000000E+00 0.  1.
         13    1    1    2    0    0  0.65355209106E+02  0.10472752318E+03  0.63635125567E+03  0.64821453950E+03  0.10566000000E+00 0. -1.
          4    1    1    2  501    0 -0.42013179277E+02  0.93498719771E+02 -0.37196460256E+02  0.10904446106E+03  0.00000000000E+00 0.  1.
</event>
<event>
 5    1  0.4866530E-005  0.1788427E+03  0.7818608E-02  0.1075696E+00
         21   -1    0    0  501  502  0.00000000000E+00  0.00000000000E+00  0.33345449710E+03  0.33345449710E+03  0.00000000000E+00 0. -1.
          4   -1    0    0  502    0 -0.00000000000E+00 -0.00000000000E+00 -0.14190774516E+03  0.14190774516E+03  0.00000000000E+00 0.  1.
        -13    1    1    2    0    0 -0.84391766122E+02 -0.15293040277E+03  0.43588664574E+02  0.18002683446E+03  0.10566000000E+00 0.  1.
         13    1    1    2    0    0  0.76869604393E+02  0.16647469462E+03  0.41821406939E+02  0.18807392501E+03  0.10566000000E+00 0. -1.
          4    1    1    2  501    0  0.75221617292E+01 -0.13544291849E+02  0.10613668042E+03  0.10726148279E+03  0.00000000000E+00 0.  1.
</event>
<event>
 5    1  0.4866530E-005  0.1716053E+03  0.7818608E-02  0.1101630E+00
         21   -1    0    0  501  502  0.00000000000E+00  0.00000000000E+00  0.69664587283E+02  0.69664587283E+02  0.00000000000E+00 0. -1.
         -4   -1    0    0    0  501 -0.00000000000E+00 -0.00000000000E+00 -0.83855517909E+03  0.83855517909E+03  0.00000000000E+00 0. -1.
        -13    1    1    2    0    0  0.32848583638E+02 -0.93162230247E+02 -0.63331334760E+02  0.11734180720E+03  0.10566000000E+00 0.  1.
         13    1    1    2    0    0 -0.12307334331E+03  0.18294088905E+03 -0.35469042471E+03  0.41763587641E+03  0.10566000000E+00 0. -1.
         -4    1    1    2    0  502  0.90224759675E+02 -0.89778658805E+02 -0.35086883234E+03  0.37324208276E+03  0.00000000000E+00 0. -1.
</event>
<event>
 5    1  0.4866530E-005  0.4965523E+03  0.7818608E-02  0.9576136E-01
         -4   -1    0    0    0  501 -0.00000000000E+00  0.00000000000E+00  0.49060139476E+03  0.49060139476E+03  0.00000000000E+00 0. -1.
         21   -1    0    0  501  502  0.00000000000E+00 -0.00000000000E+00 -0.10450599721E+04  0.10450599721E+04  0.00000000000E+00 0.  1.
        -13    1    1    2    0    0  0.22234372314E+03  0.28067301504E+03 -0.25069130375E+03  0.43710435085E+03  0.10566000000E+00 0.  1.
         13    1    1    2    0    0  0.89044521103E+02 -0.59556696719E+03 -0.25162011399E+03  0.65264203977E+03  0.10566000000E+00 0. -1.
         -4    1    1    2    0  502 -0.31138824424E+03  0.31489395215E+03 -0.52147159568E+02  0.44591497620E+03  0.00000000000E+00 0. -1.
</event>
<event>
 5    1  0.4866530E-005  0.2005381E+03  0.7818608E-02  0.1059768E+00
         21   -1    0    0  501  502  0.00000000000E+00  0.00000000000E+00  0.47864372031E+02  0.47864372031E+02  0.00000000000E+00 0.  1.
         -4   -1    0    0    0  501 -0.00000000000E+00 -0.00000000000E+00 -0.10263346334E+04  0.10263346334E+04  0.00000000000E+00 0. -1.
        -13    1    1    2    0    0 -0.13438150708E+03  0.14244942505E+03 -0.36119085184E+03  0.41086381048E+03  0.10566000000E+00 0.  1.
         13    1    1    2    0    0  0.12895861241E+03 -0.15789416534E+03 -0.61356916459E+03  0.64655086580E+03  0.10566000000E+00 0. -1.
         -4    1    1    2    0  502  0.54228946688E+01  0.15444740283E+02 -0.37102449859E+01  0.16784329205E+02  0.00000000000E+00 0. -1.
</event>
<event>
 5    1  0.4866530E-005  0.2129878E+03  0.7818608E-02  0.1056826E+00
          4   -1    0    0  502    0 -0.00000000000E+00  0.00000000000E+00  0.74374898750E+03  0.74374898750E+03  0.00000000000E+00 0.  1.
         21   -1    0    0  501  502  0.00000000000E+00 -0.00000000000E+00 -0.58688977978E+03  0.58688977978E+03  0.00000000000E+00 0.  1.
        -13    1    1    2    0    0 -0.36240659438E+02  0.18821954454E+03 -0.43983540925E+03  0.47978659917E+03  0.10566000000E+00 0.  1.
         13    1    1    2    0    0  0.16042714713E+03  0.16499199626E+03  0.19395551742E+03  0.30096176213E+03  0.10566000000E+00 0. -1.
          4    1    1    2  501    0 -0.12418648769E+03 -0.35321154080E+03  0.40273909955E+03  0.54989040598E+03  0.00000000000E+00 0.  1.
</event>
<event>
 5    1  0.4866530E-005  0.4856357E+03  0.7818608E-02  0.9682417E-01
          4   -1    0    0  502    0 -0.00000000000E+00  0.00000000000E+00  0.22854056754E+04  0.22854056754E+04  0.00000000000E+00 0.  1.
         21   -1    0    0  501  502  0.00000000000E+00 -0.00000000000E+00 -0.35786680386E+03  0.35786680386E+03  0.00000000000E+00 0.  1.
        -13    1    1    2    0    0 -0.33026681166E+03 -0.88818138753E+02  0.41121672629E+03  0.53484954501E+03  0.10566000000E+00 0.  1.
         13    1    1    2    0    0 -0.17548225054E+03 -0.19573170539E+03  0.15052322087E+04  0.15280147034E+04  0.10566000000E+00 0. -1.
          4    1    1    2  501    0  0.50574906220E+03  0.28454984414E+03  0.11089936595E+02  0.58040823082E+03  0.00000000000E+00 0.  1.
</event>
<event>
 5    1  0.4866530E-005  0.2715438E+03  0.7818608E-02  0.1019796E+00
         -4   -1    0    0    0  501 -0.00000000000E+00  0.00000000000E+00  0.32605002598E+04  0.32605002598E+04  0.00000000000E+00 0. -1.
         21   -1    0    0  501  502  0.00000000000E+00 -0.00000000000E+00 -0.61701541582E+02  0.61701541582E+02  0.00000000000E+00 0.  1.
        -13    1    1    2    0    0 -0.22174767592E+03 -0.31194099757E+03  0.13830904837E+04  0.14350674252E+04  0.10566000000E+00 0.  1.
         13    1    1    2    0    0  0.11783886839E+02  0.24084833596E+03  0.13499180692E+04  0.13712861064E+04  0.10566000000E+00 0. -1.
         -4    1    1    2    0  502  0.20996378909E+03  0.71092661609E+02  0.46579016529E+03  0.51584826969E+03  0.00000000000E+00 0. -1.
</event>
<event>
 5    1  0.4866530E-005  0.4624200E+03  0.7818608E-02  0.9765365E-01
          4   -1    0    0  502    0 -0.00000000000E+00  0.00000000000E+00  0.23387106988E+04  0.23387106988E+04  0.00000000000E+00 0.  1.
         21   -1    0    0  501  502  0.00000000000E+00 -0.00000000000E+00 -0.16498179464E+03  0.16498179464E+03  0.00000000000E+00 0.  1.
        -13    1    1    2    0    0 -0.43491398326E+03  0.30986528277E+03  0.48261849312E+03  0.71978280569E+03  0.10566000000E+00 0.  1.
         13    1    1    2    0    0  0.13442237453E+03 -0.18466317065E+03  0.51100461686E+03  0.55972814025E+03  0.10566000000E+00 0. -1.
          4    1    1    2  501    0  0.30049160873E+03 -0.12520211212E+03  0.11801057942E+04  0.12241815475E+04  0.00000000000E+00 0.  1.
</event>
<event>
 5    1  0.4866530E-005  0.1631712E+03  0.7818608E-02  0.1093660E+00
         21   -1    0    0  501  502  0.00000000000E+00  0.00000000000E+00  0.19160485602E+03  0.19160485602E+03  0.00000000000E+00 0.  1.
          4   -1    0    0  502    0 -0.00000000000E+00 -0.00000000000E+00 -0.37562781153E+03  0.37562781153E+03  0.00000000000E+00 0.  1.
        -13    1    1    2    0    0 -0.12760614845E+03  0.19650433939E+02 -0.41697467544E+02  0.13567666948E+03  0.10566000000E+00 0.  1.
         13    1    1    2    0    0 -0.69113787347E+02 -0.12489210627E+03 -0.15164806557E+03  0.20825921532E+03  0.10566000000E+00 0. -1.
          4    1    1    2  501    0  0.19671993580E+03  0.10524167233E+03  0.93225775943E+01  0.22329678276E+03  0.00000000000E+00 0.  1.
</event>
<event>
 5    1  0.4866530E-005  0.4847152E+02  0.7818608E-02  0.1298140E+00
          4   -1    0    0  502    0 -0.00000000000E+00  0.00000000000E+00  0.36423977508E+03  0.36423977508E+03  0.00000000000E+00 0.  1.
         21   -1    0    0  501  502  0.00000000000E+00 -0.00000000000E+00 -0.98787381329E+01  0.98787381329E+01  0.00000000000E+00 0. -1.
        -13    1    1    2    0    0 -0.50359892865E+02 -0.13527027328E+02  0.26045599760E+03  0.26562461695E+03  0.10566000000E+00 0.  1.
         13    1    1    2    0    0  0.37736794233E+02  0.16610568848E+02  0.74302901923E+02  0.84975932090E+02  0.10566000000E+00 0. -1.
          4    1    1    2  501    0  0.12623098633E+02 -0.30835415200E+01  0.19602137420E+02  0.23517964173E+02  0.00000000000E+00 0.  1.
</event>
<event>
 5    1  0.4866530E-005  0.3173551E+03  0.7818608E-02  0.1000388E+00
         21   -1    0    0  501  502  0.00000000000E+00  0.00000000000E+00  0.87356612061E+03  0.87356612061E+03  0.00000000000E+00 0. -1.
         -4   -1    0    0    0  501 -0.00000000000E+00 -0.00000000000E+00 -0.14233501803E+04  0.14233501803E+04  0.00000000000E+00 0. -1.
        -13    1    1    2    0    0  0.27366646694E+03 -0.15606730691E+03 -0.93438551275E+03  0.98606624372E+03  0.10566000000E+00 0.  1.
         13    1    1    2    0    0 -0.28923426548E+03  0.14325907387E+03 -0.40674293517E+03  0.51924892783E+03  0.10566000000E+00 0. -1.
         -4    1    1    2    0  502  0.15567798541E+02  0.12808233037E+02  0.79134438824E+03  0.79160112935E+03  0.00000000000E+00 0. -1.
</event>
<event>
 5    1  0.4866530E-005  0.4824649E+03  0.7818608E-02  0.9788482E-01
         21   -1    0    0  501  502  0.00000000000E+00  0.00000000000E+00  0.84941751991E+03  0.84941751991E+03  0.00000000000E+00 0.  1.
          4   -1    0    0  502    0 -0.00000000000E+00 -0.00000000000E+00 -0.47298188155E+03  0.47298188155E+03  0.00000000000E+00 0.  1.
        -13    1    1    2    0    0  0.22345206215E+03 -0.42684586489E+03  0.35541994268E+03  0.59870824553E+03  0.10566000000E+00 0.  1.
         13    1    1    2    0    0 -0.16965475515E+03 -0.75696549030E+02 -0.89692307045E+02  0.20629450935E+03  0.10566000000E+00 0. -1.
          4    1    1    2  501    0 -0.53797306997E+02  0.50254241392E+03  0.11070800272E+03  0.51739664658E+03  0.00000000000E+00 0.  1.
</event>
<event>
 5    1  0.4866530E-005  0.4185152E+02  0.7818608E-02  0.1329057E+00
         21   -1    0    0  501  502  0.00000000000E+00  0.00000000000E+00  0.55928830668E+03  0.55928830668E+03  0.00000000000E+00 0. -1.
         -4   -1    0    0    0  501 -0.00000000000E+00 -0.00000000000E+00 -0.37295701194E+02  0.37295701194E+02  0.00000000000E+00 0. -1.
        -13    1    1    2    0    0  0.28500619994E+01  0.41119287759E+02  0.82475171722E+02  0.92201322083E+02  0.10566000000E+00 0.  1.
         13    1    1    2    0    0  0.87120171449E+01 -0.41256328784E+02 -0.18623487557E+02  0.46095871402E+02  0.10566000000E+00 0. -1.
         -4    1    1    2    0  502 -0.11562079144E+02  0.13704102453E+00  0.45814092132E+03  0.45828681439E+03  0.00000000000E+00 0. -1.
</event>
<event>
 5    1  0.4866530E-005  0.6451922E+02  0.7818608E-02  0.1284453E+00
         21   -1    0    0  501  502  0.00000000000E+00  0.00000000000E+00  0.14288908678E+02  0.14288908678E+02  0.00000000000E+00 0.  1.
         -4   -1    0    0    0  501 -0.00000000000E+00 -0.00000000000E+00 -0.45775876165E+03  0.45775876165E+03  0.00000000000E+00 0. -1.
        -13    1    1    2    0    0  0.24262218557E+02  0.11618266198E+02 -0.50430477205E+02  0.57156658001E+02  0.10566000000E+00 0.  1.
         13    1    1    2    0    0 -0.71486377994E+02  0.22122172565E+02 -0.22181941972E+03  0.23410159949E+03  0.10566000000E+00 0. -1.
         -4    1    1    2    0  502  0.47224159438E+02 -0.33740438763E+02 -0.17121995605E+03  0.18078941283E+03  0.00000000000E+00 0. -1.
</event>
<event>
 5    1  0.4866530E-005  0.5910966E+03  0.7818608E-02  0.9348454E-01
         21   -1    0    0  501  502  0.00000000000E+00  0.00000000000E+00  0.13251491660E+04  0.13251491660E+04  0.00000000000E+00 0.  1.
         -4   -1    0    0    0  501 -0.00000000000E+00 -0.00000000000E+00 -0.83529397181E+03  0.83529397181E+03  0.00000000000E+00 0. -1.
        -13    1    1    2    0    0  0.24484438930E+02 -0.64965833588E+03 -0.23315574396E+03  0.69066421164E+03  0.10566000000E+00 0.  1.
         13    1    1    2    0    0  0.56851439123E+02 -0.13588767551E+03 -0.20422438136E+03  0.25180380376E+03  0.10566000000E+00 0. -1.
         -4    1    1    2    0  502 -0.81335878053E+02  0.78554601139E+03  0.92723531953E+03  0.12179751224E+04  0.00000000000E+00 0. -1.
</event>
<event>
 5    1  0.4866530E-005  0.4863916E+03  0.7818608E-02  0.9702505E-01
          4   -1    0    0  502    0 -0.00000000000E+00  0.00000000000E+00  0.12332765503E+04  0.12332765503E+04  0.00000000000E+00 0.  1.
         21   -1    0    0  501  502  0.00000000000E+00 -0.00000000000E+00 -0.49710162733E+03  0.49710162733E+03  0.00000000000E+00 0.  1.
        -13    1    1    2    0    0  0.30695884415E+03 -0.40185113618E+03  0.32808973097E+02  0.50673909217E+03  0.10566000000E+00 0.  1.
         13    1    1    2    0    0  0.14565681517E+03  0.19569186776E+03  0.68367435865E+03  0.72589383160E+03  0.10566000000E+00 0. -1.
          4    1    1    2  501    0 -0.45261565931E+03  0.20615926842E+03  0.19691591269E+02  0.49774525390E+03  0.00000000000E+00 0.  1.
</event>
<event>
 5    1  0.4866530E-005  0.2068164E+02  0.7818608E-02  0.1511204E+00
         21   -1    0    0  501  502  0.00000000000E+00  0.00000000000E+00  0.24493874860E+03  0.24493874860E+03  0.00000000000E+00 0.  1.
          4   -1    0    0  502    0 -0.00000000000E+00 -0.00000000000E+00 -0.95560010900E+02  0.95560010900E+02  0.00000000000E+00 0.  1.
        -13    1    1    2    0    0  0.17930590801E+02  0.46891559650E+01 -0.92166754758E+02  0.94011787116E+02  0.10566000000E+00 0.  1.
         13    1    1    2    0    0 -0.17470537380E+01 -0.17653163847E+02  0.38557814971E+02  0.42442934041E+02  0.10566000000E+00 0. -1.
          4    1    1    2  501    0 -0.16183537063E+02  0.12964007882E+02  0.20298767748E+03  0.20404403834E+03  0.00000000000E+00 0.  1.
</event>
<event>
 5    1  0.4866530E-005  0.1621813E+02  0.7818608E-02  0.1573981E+00
         -4   -1    0    0    0  501 -0.00000000000E+00  0.00000000000E+00  0.15331158563E+03  0.15331158563E+03  0.00000000000E+00 0. -1.
         21   -1    0    0  501  502  0.00000000000E+00 -0.00000000000E+00 -0.82303211094E+01  0.82303211094E+01  0.00000000000E+00 0. -1.
        -13    1    1    2    0    0 -0.15875622014E+02  0.34518497797E+01  0.71736282941E+02  0.73553083521E+02  0.10566000000E+00 0.  1.
         13    1    1    2    0    0  0.12184944469E+02  0.12340751186E+02  0.54432127291E+01  0.18177093838E+02  0.10566000000E+00 0. -1.
         -4    1    1    2    0  502  0.36906775445E+01 -0.15792600966E+02  0.67901768849E+02  0.69811729378E+02  0.00000000000E+00 0. -1.
</event>
<event>
 5    1  0.4866530E-005  0.2997174E+03  0.7818608E-02  0.1007422E+00
         21   -1    0    0  501  502  0.00000000000E+00  0.00000000000E+00  0.44374517162E+03  0.44374517162E+03  0.00000000000E+00 0.  1.
          4   -1    0    0  502    0 -0.00000000000E+00 -0.00000000000E+00 -0.10043240612E+04  0.10043240612E+04  0.00000000000E+00 0.  1.
        -13    1    1    2    0    0 -0.30278980801E+03 -0.23739714537E+03 -0.58103409986E+03  0.69687854669E+03  0.10566000000E+00 0.  1.
         13    1    1    2    0    0  0.25062600313E+03  0.24074255153E+02 -0.28159686961E+03  0.37774299642E+03  0.10566000000E+00 0. -1.
          4    1    1    2  501    0  0.52163804881E+02  0.21332289022E+03  0.30205207986E+03  0.37344768974E+03  0.00000000000E+00 0.  1.
</event>
<event>
 5    1  0.4866530E-005  0.4067672E+03  0.7818608E-02  0.9834914E-01
         -4   -1    0    0    0  501 -0.00000000000E+00  0.00000000000E+00  0.12560956383E+04  0.12560956383E+04  0.00000000000E+00 0. -1.
         21   -1    0    0  501  502  0.00000000000E+00 -0.00000000000E+00 -0.32743754787E+03  0.32743754787E+03  0.00000000000E+00 0. -1.
        -13    1    1    2    0    0 -0.22110781274E+03  0.14542963350E+03  0.25953913237E+03  0.37067373194E+03  0.10566000000E+00 0.  1.
         13    1    1    2    0    0 -0.20602616792E+03  0.38065818483E+02  0.71561961987E+03  0.74565893001E+03  0.10566000000E+00 0. -1.
         -4    1    1    2    0  502  0.42713398065E+03 -0.18349545199E+03 -0.46500661756E+02  0.46720052426E+03  0.00000000000E+00 0. -1.
</event>
<event>
 5    1  0.4866530E-005  0.2735006E+02  0.7818608E-02  0.1477916E+00
          4   -1    0    0  502    0 -0.00000000000E+00  0.00000000000E+00  0.27340117871E+02  0.27340117871E+02  0.00000000000E+00 0.  1.
         21   -1    0    0  501  502  0.00000000000E+00 -0.00000000000E+00 -0.71330232438E+02  0.71330232438E+02  0.00000000000E+00 0. -1.
        -13    1    1    2    0    0 -0.27199647115E+02  0.24451668136E+02  0.27368283518E+01  0.36677053743E+02  0.10566000000E+00 0.  1.
         13    1    1    2    0    0  0.75753854394E+01 -0.99459542481E+01 -0.29735773838E+02  0.32257338393E+02  0.10566000000E+00 0. -1.
          4    1    1    2  501    0  0.19624261675E+02 -0.14505713888E+02 -0.16991169081E+02  0.29735958172E+02  0.00000000000E+00 0.  1.
</event>
<event>
 5    1  0.4866530E-005  0.3254812E+03  0.7818608E-02  0.9973096E-01
         -4   -1    0    0    0  501 -0.00000000000E+00  0.00000000000E+00  0.72289617671E+03  0.72289617671E+03  0.00000000000E+00 0. -1.
         21   -1    0    0  501  502  0.00000000000E+00 -0.00000000000E+00 -0.57551358502E+03  0.57551358502E+03  0.00000000000E+00 0.  1.
        -13    1    1    2    0    0 -0.31064202091E+03  0.58853843233E+02 -0.37734649953E+03  0.49229323771E+03  0.10566000000E+00 0.  1.
         13    1    1    2    0    0  0.31905884877E+03 -0.68582644944E+02  0.62497408324E+03  0.70504946213E+03  0.10566000000E+00 0. -1.
         -4    1    1    2    0  502 -0.84168278588E+01  0.97288017117E+01 -0.10024499202E+03  0.10106706189E+03  0.00000000000E+00 0. -1.
</event>
<event>
 5    1  0.4866530E-005  0.2892463E+03  0.7818608E-02  0.1075508E+00
         21   -1    0    0  501  502  0.00000000000E+00  0.00000000000E+00  0.29255697551E+03  0.29255697551E+03  0.00000000000E+00 0. -1.
         -4   -1    0    0    0  501 -0.00000000000E+00 -0.00000000000E+00 -0.90177766867E+03  0.90177766867E+03  0.00000000000E+00 0. -1.
        -13    1    1    2    0    0  0.37137165979E+02  0.20666572088E+02  0.36121418746E+02  0.55776736684E+02  0.10566000000E+00 0.  1.
         13    1    1    2    0    0  0.24907212811E+03 -0.81702867981E+02 -0.77525559390E+03  0.81837248896E+03  0.10566000000E+00 0. -1.
         -4    1    1    2    0  502 -0.28620929409E+03  0.61036295893E+02  0.12991348201E+03  0.32018541854E+03  0.00000000000E+00 0. -1.
</event>
<event>
 5    1  0.4866530E-005  0.2989359E+03  0.7818608E-02  0.1007746E+00
         21   -1    0    0  501  502  0.00000000000E+00  0.00000000000E+00  0.22093477597E+03  0.22093477597E+03  0.00000000000E+00 0.  1.
         -4   -1    0    0    0  501 -0.00000000000E+00 -0.00000000000E+00 -0.96687963863E+03  0.96687963863E+03  0.00000000000E+00 0. -1.
        -13    1    1    2    0    0  0.72734110800E+02 -0.30701461229E+03 -0.22220208826E+02  0.31629412242E+03  0.10566000000E+00 0.  1.
         13    1    1    2    0    0 -0.12713894279E+03  0.26823309007E+03 -0.74454714872E+03  0.80153837663E+03  0.10566000000E+00 0. -1.
         -4    1    1    2    0  502  0.54404831986E+02  0.38781522222E+02  0.20822494890E+02  0.69981915540E+02  0.00000000000E+00 0. -1.
</event>
<event>
 5    1  0.4866530E-005  0.3390973E+03  0.7818608E-02  0.9923607E-01
         21   -1    0    0  501  502  0.00000000000E+00  0.00000000000E+00  0.57734292086E+03  0.57734292086E+03  0.00000000000E+00 0.  1.
         -4   -1    0    0    0  501 -0.00000000000E+00 -0.00000000000E+00 -0.33259831328E+03  0.33259831328E+03  0.00000000000E+00 0. -1.
        -13    1    1    2    0    0  0.25877852378E+03  0.25388847657E+03  0.25085148759E+03  0.44085390199E+03  0.10566000000E+00 0.  1.
         13    1    1    2    0    0 -0.25365047317E+03 -0.21329215846E+03 -0.11655121324E+03  0.35130656680E+03  0.10566000000E+00 0. -1.
         -4    1    1    2    0  502 -0.51280506131E+01 -0.40596318108E+02  0.11044433323E+03  0.11778076536E+03  0.00000000000E+00 0. -1.
</event>
<event>
 5    1  0.4866530E-005  0.3769388E+03  0.7818608E-02  0.1022524E+00
         -4   -1    0    0    0  501 -0.00000000000E+00  0.00000000000E+00  0.60679294970E+03  0.60679294970E+03  0.00000000000E+00 0. -1.
         21   -1    0    0  501  502  0.00000000000E+00 -0.00000000000E+00 -0.51887179927E+03  0.51887179927E+03  0.00000000000E+00 0. -1.
        -13    1    1    2    0    0  0.90824470044E+02  0.20784862764E+02  0.12919098843E+03  0.15928407810E+03  0.10566000000E+00 0.  1.
         13    1    1    2    0    0  0.13078549061E+03  0.34270554120E+03 -0.29505727502E+03  0.47075549836E+03  0.10566000000E+00 0. -1.
         -4    1    1    2    0  502 -0.22160996066E+03 -0.36349040396E+03  0.25378743702E+03  0.49562517251E+03  0.00000000000E+00 0. -1.
</event>
<event>
 5    1  0.4866530E-005  0.4749474E+03  0.7818608E-02  0.9694258E-01
         -4   -1    0    0    0  501 -0.00000000000E+00  0.00000000000E+00  0.20908728975E+04  0.20908728975E+04  0.00000000000E+00 0. -1.
         21   -1    0    0  501  502  0.00000000000E+00 -0.00000000000E+00 -0.37005985460E+03  0.37005985460E+03  0.00000000000E+00 0. -1.
        -13    1    1    2    0    0 -0.12499943824E+03  0.23892559239E+03  0.12861631230E+04  0.13141255223E+04  0.10566000000E+00 0.  1.
         13    1    1    2    0    0  0.92216940559E+02  0.31018401564E+03  0.49713860473E+03  0.59318200509E+03  0.10566000000E+00 0. -1.
         -4    1    1    2    0  502  0.32782497680E+02 -0.54910960802E+03 -0.62488684758E+02  0.55362522477E+03  0.00000000000E+00 0. -1.
</event>
<event>
 5    1  0.4866530E-005  0.1726239E+03  0.7818608E-02  0.1080717E+00
          4   -1    0    0  502    0 -0.00000000000E+00  0.00000000000E+00  0.13042900239E+04  0.13042900239E+04  0.00000000000E+00 0.  1.
         21   -1    0    0  501  502  0.00000000000E+00 -0.00000000000E+00 -0.30843400128E+03  0.30843400128E+03  0.00000000000E+00 0.  1.
        -13    1    1    2    0    0 -0.13073939079E+03  0.11540539027E+03  0.10466002868E+04  0.10610293888E+04  0.10566000000E+00 0.  1.
         13    1    1    2    0    0  0.17414583334E+03 -0.46206262982E+02  0.21102463653E+03  0.27747648260E+03  0.10566000000E+00 0. -1.
          4    1    1    2  501    0 -0.43406442555E+02 -0.69199127286E+02 -0.26176890072E+03  0.27421815377E+03  0.00000000000E+00 0.  1.
</event>
<event>
 5    1  0.4866530E-005  0.4750352E+03  0.7818608E-02  0.9577274E-01
         21   -1    0    0  501  502  0.00000000000E+00  0.00000000000E+00  0.45056504208E+03  0.45056504208E+03  0.00000000000E+00 0.  1.
          4   -1    0    0  502    0 -0.00000000000E+00 -0.00000000000E+00 -0.14967419503E+04  0.14967419503E+04  0.00000000000E+00 0.  1.
        -13    1    1    2    0    0 -0.26329788394E+03 -0.58718320826E+03 -0.62283140607E+03  0.89556064413E+03  0.10566000000E+00 0.  1.
         13    1    1    2    0    0 -0.14360603305E+03  0.38114831395E+03 -0.43444767278E+03  0.59551785994E+03  0.10566000000E+00 0. -1.
          4    1    1    2  501    0  0.40690391699E+03  0.20603489432E+03  0.11102170660E+02  0.45622848830E+03  0.00000000000E+00 0.  1.
</event>
<event>
 5    1  0.4866530E-005  0.2210582E+03  0.7818608E-02  0.1046586E+00
         21   -1    0    0  501  502  0.00000000000E+00  0.00000000000E+00  0.68981373096E+02  0.68981373096E+02  0.00000000000E+00 0. -1.
          4   -1    0    0  502    0 -0.00000000000E+00 -0.00000000000E+00 -0.12273269573E+04  0.12273269573E+04  0.00000000000E+00 0.  1.
        -13    1    1    2    0    0  0.15280812609E+02 -0.24478554159E+03 -0.90738329298E+03  0.93994569851E+03  0.10566000000E+00 0.  1.
         13    1    1    2    0    0  0.12396675312E+02  0.16456267332E+03 -0.13831588467E+03  0.21532730000E+03  0.10566000000E+00 0. -1.
          4    1    1    2  501    0 -0.27677487921E+02  0.80222868262E+02 -0.11264640656E+03  0.14103533189E+03  0.00000000000E+00 0.  1.
</event>
<event>
 5    1  0.4866530E-005  0.4910732E+03  0.7818608E-02  0.9673421E-01
          4   -1    0    0  502    0 -0.00000000000E+00  0.00000000000E+00  0.23704745149E+04  0.23704745149E+04  0.00000000000E+00 0.  1.
         21   -1    0    0  501  502  0.00000000000E+00 -0.00000000000E+00 -0.32110023355E+03  0.32110023355E+03  0.00000000000E+00 0.  1.
        -13    1    1    2    0    0  0.23369006438E+03  0.28444417745E+03  0.43158462771E+03  0.56726082036E+03  0.10566000000E+00 0.  1.
         13    1    1    2    0    0 -0.17052178505E+02  0.26181582425E+03  0.15027851461E+04  0.15255168007E+04  0.10566000000E+00 0. -1.
          4    1    1    2  501    0 -0.21663788588E+03 -0.54626000170E+03  0.11500450754E+03  0.59879712742E+03  0.00000000000E+00 0.  1.
</event>
<event>
 5    1  0.4866530E-005  0.4612320E+03  0.7818608E-02  0.9870111E-01
          4   -1    0    0  502    0 -0.00000000000E+00  0.00000000000E+00  0.32021740356E+03  0.32021740356E+03  0.00000000000E+00 0.  1.
         21   -1    0    0  501  502  0.00000000000E+00 -0.00000000000E+00 -0.11060073694E+04  0.11060073694E+04  0.00000000000E+00 0.  1.
        -13    1    1    2    0    0  0.10455005476E+03  0.42687737533E+03 -0.45083412920E+03  0.62960815651E+03  0.10566000000E+00 0.  1.
         13    1    1    2    0    0 -0.12875035290E+03  0.96966538612E+02 -0.19668431499E+03  0.25429096309E+03  0.10566000000E+00 0. -1.
          4    1    1    2  501    0  0.24200298140E+02 -0.52384391395E+03 -0.13827152167E+03  0.54232565338E+03  0.00000000000E+00 0.  1.
</event>
<event>
 5    1  0.4866530E-005  0.3486275E+03  0.7818608E-02  0.1028514E+00
         21   -1    0    0  501  502  0.00000000000E+00  0.00000000000E+00  0.27383224273E+03  0.27383224273E+03  0.00000000000E+00 0.  1.
          4   -1    0    0  502    0 -0.00000000000E+00 -0.00000000000E+00 -0.58763149776E+03  0.58763149776E+03  0.00000000000E+00 0.  1.
        -13    1    1    2    0    0  0.39218261317E+03  0.13835411418E+02 -0.12405253884E+03  0.41156732650E+03  0.10566000000E+00 0.  1.
         13    1    1    2    0    0 -0.88142732178E+02  0.42156732651E+02 -0.31919043725E+02  0.10278700239E+03  0.10566000000E+00 0. -1.
          4    1    1    2  501    0 -0.30403988099E+03 -0.55992144069E+02 -0.15782767246E+03  0.34710941161E+03  0.00000000000E+00 0.  1.
</event>
<event>
 5    1  0.4866530E-005  0.1018165E+03  0.7818608E-02  0.1161585E+00
         21   -1    0    0  501  502  0.00000000000E+00  0.00000000000E+00  0.78952879059E+03  0.78952879059E+03  0.00000000000E+00 0. -1.
          4   -1    0    0  502    0 -0.00000000000E+00 -0.00000000000E+00 -0.28476536530E+02  0.28476536530E+02  0.00000000000E+00 0.  1.
        -13    1    1    2    0    0  0.99405665549E+02  0.49442540651E+02  0.11251937657E+03  0.15807173194E+03  0.10566000000E+00 0.  1.
         13    1    1    2    0    0 -0.73349329186E+02 -0.10989925001E+02  0.44747741108E+03  0.45358234879E+03  0.10566000000E+00 0. -1.
          4    1    1    2  501    0 -0.26056336363E+02 -0.38452615650E+02  0.20105546641E+03  0.20635124639E+03  0.00000000000E+00 0.  1.
</event>
<event>
 5    1  0.4866530E-005  0.4434400E+03  0.7818608E-02  0.9611381E-01
         21   -1    0    0  501  502  0.00000000000E+00  0.00000000000E+00  0.14789185958E+04  0.14789185958E+04  0.00000000000E+00 0.  1.
          4   -1    0    0  502    0 -0.00000000000E+00 -0.00000000000E+00 -0.67628627989E+03  0.67628627989E+03  0.00000000000E+00 0.  1.
        -13    1    1    2    0    0 -0.44979322372E+03 -0.12254030228E+03  0.75639435645E+02  0.47228318324E+03  0.10566000000E+00 0.  1.
         13    1    1    2    0    0  0.41107561217E+03 -0.25229116303E+03 -0.31420107804E+03  0.57563557783E+03  0.10566000000E+00 0. -1.
          4    1    1    2  501    0  0.38717611549E+02  0.37483146531E+03  0.10411939583E+04  0.11072861146E+04  0.00000000000E+00 0.  1.
</event>
<event>
 5    1  0.4866530E-005  0.4834066E+03  0.7818608E-02  0.9665080E-01
         -4   -1    0    0    0  501 -0.00000000000E+00  0.00000000000E+00  0.20356426823E+04  0.20356426823E+04  0.00000000000E+00 0. -1.
         21   -1    0    0  501  502  0.00000000000E+00 -0.00000000000E+00 -0.21715431532E+03  0.21715431532E+03  0.00000000000E+00 0. -1.
        -13    1    1    2    0    0  0.18138335621E+03 -0.21750889063E+03  0.63473546814E+03  0.69505335413E+03  0.10566000000E+00 0.  1.
         13    1    1    2    0    0  0.36503486143E+03 -0.88529737449E+02  0.55614275309E+03  0.67110560827E+03  0.10566000000E+00 0. -1.
         -4    1    1    2    0  502 -0.54641821765E+03  0.30603862808E+03  0.62761014578E+03  0.88663803524E+03  0.00000000000E+00 0. -1.
</event>
<event>
 5    1  0.4866530E-005  0.9857926E+03  0.7818608E-02  0.8788056E-01
         -4   -1    0    0    0  501 -0.00000000000E+00  0.00000000000E+00  0.53823081069E+03  0.53823081069E+03  0.00000000000E+00 0. -1.
         21   -1    0    0  501  502  0.00000000000E+00 -0.00000000000E+00 -0.27126647280E+04  0.27126647280E+04  0.00000000000E+00 0.  1.
        -13    1    1    2    0    0  0.61503149318E+03 -0.76114880508E+03 -0.11441274076E+04  0.15055360431E+04  0.10566000000E+00 0.  1.
         13    1    1    2    0    0 -0.88945296452E+03  0.50005664057E+03 -0.65740501850E+03  0.12138223055E+04  0.10566000000E+00 0. -1.
         -4    1    1    2    0  502  0.27442147134E+03  0.26109216450E+03 -0.37290149123E+03  0.53153719010E+03  0.00000000000E+00 0. -1.
</event>
<event>
 5    1  0.4866530E-005  0.4894984E+03  0.7818608E-02  0.9861892E-01
         21   -1    0    0  501  502  0.00000000000E+00  0.00000000000E+00  0.50824296422E+03  0.50824296422E+03  0.00000000000E+00 0. -1.
         -4   -1    0    0    0  501 -0.00000000000E+00 -0.00000000000E+00 -0.78191244441E+03  0.78191244441E+03  0.00000000000E+00 0. -1.
        -13    1    1    2    0    0  0.13026783697E+03  0.47404204407E+02 -0.20476608157E+03  0.24727722756E+03  0.10566000000E+00 0.  1.
         13    1    1    2    0    0 -0.65061015715E+02 -0.50532048498E+03  0.15006184223E+03  0.53113114761E+03  0.10566000000E+00 0. -1.
         -4    1    1    2    0  502 -0.65206821253E+02  0.45791628057E+03 -0.21896524085E+03  0.51174703346E+03  0.00000000000E+00 0. -1.
</event>
<event>
 5    1  0.4866530E-005  0.4710449E+03  0.7818608E-02  0.9818085E-01
          4   -1    0    0  502    0 -0.00000000000E+00  0.00000000000E+00  0.13951994378E+04  0.13951994378E+04  0.00000000000E+00 0.  1.
         21   -1    0    0  501  502  0.00000000000E+00 -0.00000000000E+00 -0.40310827057E+03  0.40310827057E+03  0.00000000000E+00 0.  1.
        -13    1    1    2    0    0  0.42131754753E+03  0.49910537120E+02  0.70999612435E+02  0.43016333375E+03  0.10566000000E+00 0.  1.
         13    1    1    2    0    0  0.84381706812E+02  0.15949597333E+03  0.78317697999E+03  0.80369486194E+03  0.10566000000E+00 0. -1.
          4    1    1    2  501    0 -0.50569925434E+03 -0.20940651045E+03  0.13791457484E+03  0.56444951273E+03  0.00000000000E+00 0.  1.
</event>
<event>
 5    1  0.4866530E-005  0.4252760E+03  0.7818608E-02  0.1008620E+00
         -4   -1    0    0    0  501 -0.00000000000E+00  0.00000000000E+00  0.41005201533E+03  0.41005201533E+03  0.00000000000E+00 0. -1.
         21   -1    0    0  501  502  0.00000000000E+00 -0.00000000000E+00 -0.84905582527E+03  0.84905582527E+03  0.00000000000E+00 0. -1.
        -13    1    1    2    0    0  0.65561676240E+02  0.76745520599E+02  0.96465920141E+02  0.13962053300E+03  0.10566000000E+00 0.  1.
         13    1    1    2    0    0 -0.40015048078E+03  0.18253106128E+03 -0.37199260647E+01  0.43983160939E+03  0.10566000000E+00 0. -1.
         -4    1    1    2    0  502  0.33458880454E+03 -0.25927658187E+03 -0.53174980401E+03  0.67965569821E+03  0.00000000000E+00 0. -1.
</event>
<event>
 5    1  0.4866530E-005  0.2333306E+03  0.7818608E-02  0.1071932E+00
         -4   -1    0    0    0  501 -0.00000000000E+00  0.00000000000E+00  0.27609921439E+03  0.27609921439E+03  0.00000000000E+00 0. -1.
         21   -1    0    0  501  502  0.00000000000E+00 -0.00000000000E+00 -0.50726025249E+03  0.50726025249E+03  0.00000000000E+00 0. -1.
        -13    1    1    2    0    0 -0.89016837881E+02  0.10412864244E+02  0.85572822172E+02  0.12391587560E+03  0.10566000000E+00 0.  1.
         13    1    1    2    0    0 -0.59475079263E+02  0.21759931045E+03 -0.31486812375E+03  0.38733537339E+03  0.10566000000E+00 0. -1.
         -4    1    1    2    0  502  0.14849191714E+03 -0.22801217470E+03 -0.18657365322E+01  0.27210821789E+03  0.00000000000E+00 0. -1.
</event>
<event>
 5    1  0.4866530E-005  0.3542866E+03  0.7818608E-02  0.9871242E-01
         21   -1    0    0  501  502  0.00000000000E+00  0.00000000000E+00  0.23315724797E+03  0.23315724797E+03  0.00000000000E+00 0. -1.
         -4   -1    0    0    0  501 -0.00000000000E+00 -0.00000000000E+00 -0.11699306244E+04  0.11699306244E+04  0.00000000000E+00 0. -1.
        -13    1    1    2    0    0 -0.34508130867E+03 -0.11846785935E+03 -0.36616892779E+03  0.51690950672E+03  0.10566000000E+00 0.  1.
         13    1    1    2    0    0  0.32892560149E+03  0.11498060214E+03 -0.68609793035E+03  0.76950826596E+03  0.10566000000E+00 0. -1.
         -4    1    1    2    0  502  0.16155707181E+02  0.34872572037E+01  0.11549348172E+03  0.11667009967E+03  0.00000000000E+00 0. -1.
</event>
<event>
 5    1  0.4866530E-005  0.9449897E+03  0.7818608E-02  0.8828068E-01
         21   -1    0    0  501  502  0.00000000000E+00  0.00000000000E+00  0.80798912064E+03  0.80798912064E+03  0.00000000000E+00 0. -1.
          4   -1    0    0  502    0 -0.00000000000E+00 -0.00000000000E+00 -0.21842255559E+04  0.21842255559E+04  0.00000000000E+00 0.  1.
        -13    1    1    2    0    0 -0.38886253540E+03  0.87014759833E+03 -0.69914448232E+03  0.11820211219E+04  0.10566000000E+00 0.  1.
         13    1    1    2    0    0  0.10443286105E+03 -0.95335495673E+03 -0.99059379997E+03  0.13787922192E+04  0.10566000000E+00 0. -1.
          4    1    1    2  501    0  0.28442967435E+03  0.83207358406E+02  0.31350184702E+03  0.43140133545E+03  0.00000000000E+00 0.  1.
</event>
<event>
 5    1  0.4866530E-005  0.4722635E+03  0.7818608E-02  0.9763148E-01
         21   -1    0    0  501  502  0.00000000000E+00  0.00000000000E+00  0.23987067692E+03  0.23987067692E+03  0.00000000000E+00 0. -1.
         -4   -1    0    0    0  501 -0.00000000000E+00 -0.00000000000E+00 -0.16739160762E+04  0.16739160762E+04  0.00000000000E+00 0. -1.
        -13    1    1    2    0    0  0.18672924200E+03  0.10869493941E+03 -0.11981934303E+03  0.24706089492E+03  0.10566000000E+00 0.  1.
         13    1    1    2    0    0  0.26087222590E+03 -0.34542153145E+03 -0.94697980191E+03  0.10412209703E+04  0.10566000000E+00 0. -1.
         -4    1    1    2    0  502 -0.44760146790E+03  0.23672659204E+03 -0.36724625436E+03  0.62550488790E+03  0.00000000000E+00 0. -1.
</event>
<event>
 5    1  0.4866530E-005  0.5692919E+02  0.7818608E-02  0.1265891E+00
         21   -1    0    0  501  502  0.00000000000E+00  0.00000000000E+00  0.40534419158E+03  0.40534419158E+03  0.00000000000E+00 0. -1.
         -4   -1    0    0    0  501 -0.00000000000E+00 -0.00000000000E+00 -0.15552513539E+02  0.15552513539E+02  0.00000000000E+00 0. -1.
        -13    1    1    2    0    0 -0.71434289913E+01 -0.56410496715E+02  0.10677125493E+03  0.12096811465E+03  0.10566000000E+00 0.  1.
         13    1    1    2    0    0 -0.26220317608E+02  0.57475019080E+02  0.21610257708E+03  0.22514710271E+03  0.10566000000E+00 0. -1.
         -4    1    1    2    0  502  0.33363746599E+02 -0.10645223650E+01  0.66917846030E+02  0.74781487765E+02  0.00000000000E+00 0. -1.
</event>
<event>
 5    1  0.4866530E-005  0.1833579E+03  0.7818608E-02  0.1072185E+00
          4   -1    0    0  502    0 -0.00000000000E+00  0.00000000000E+00  0.32411256500E+03  0.32411256500E+03  0.00000000000E+00 0.  1.
         21   -1    0    0  501  502  0.00000000000E+00 -0.00000000000E+00 -0.43579773985E+03  0.43579773985E+03  0.00000000000E+00 0.  1.
        -13    1    1    2    0    0 -0.25794824614E+03  0.62746524114E+02 -0.17649527088E+01  0.26547608216E+03  0.10566000000E+00 0.  1.
         13    1    1    2    0    0  0.15556359585E+03 -0.43007792939E+02  0.14628237662E+03  0.21782618640E+03  0.10566000000E+00 0. -1.
          4    1    1    2  501    0  0.10238465030E+03 -0.19738731175E+02 -0.25620259876E+03  0.27660803629E+03  0.00000000000E+00 0.  1.
</event>
<event>
 5    1  0.4866530E-005  0.4937362E+03  0.7818608E-02  0.9814164E-01
         -4   -1    0    0    0  501 -0.00000000000E+00  0.00000000000E+00  0.10521516119E+04  0.10521516119E+04  0.00000000000E+00 0. -1.
         21   -1    0    0  501  502  0.00000000000E+00 -0.00000000000E+00 -0.55114474446E+03  0.55114474446E+03  0.00000000000E+00 0. -1.
        -13    1    1    2    0    0 -0.40631007168E+02 -0.15350767437E+03  0.57717716533E+03  0.59862256571E+03  0.10566000000E+00 0.  1.
         13    1    1    2    0    0  0.49034869501E+03 -0.75121354639E+02 -0.62502891315E+02  0.49999168314E+03  0.10566000000E+00 0. -1.
         -4    1    1    2    0  502 -0.44971768784E+03  0.22862902901E+03 -0.13667406551E+02  0.50468210753E+03  0.00000000000E+00 0. -1.
</event>
<event>
 5    1  0.4866530E-005  0.4842663E+03  0.7818608E-02  0.9513140E-01
          4   -1    0    0  502    0 -0.00000000000E+00  0.00000000000E+00  0.19422503904E+04  0.19422503904E+04  0.00000000000E+00 0.  1.
         21   -1    0    0  501  502  0.00000000000E+00 -0.00000000000E+00 -0.28668116658E+03  0.28668116658E+03  0.00000000000E+00 0.  1.
        -13    1    1    2    0    0 -0.41672229784E+03  0.57490529932E+03  0.56600379458E+03  0.90803848121E+03  0.10566000000E+00 0.  1.
         13    1    1    2    0    0  0.31987454453E+03 -0.24748934259E+03  0.55926261191E+03  0.69017778809E+03  0.10566000000E+00 0. -1.
          4    1    1    2  501    0  0.96847753313E+02 -0.32741595673E+03  0.53030281733E+03  0.63071528768E+03  0.00000000000E+00 0.  1.
</event>
<event>
 5    1  0.4866530E-005  0.3043778E+03  0.7818608E-02  0.1011267E+00
          4   -1    0    0  502    0 -0.00000000000E+00  0.00000000000E+00  0.18276617702E+04  0.18276617702E+04  0.00000000000E+00 0.  1.
         21   -1    0    0  501  502  0.00000000000E+00 -0.00000000000E+00 -0.34603767760E+03  0.34603767760E+03  0.00000000000E+00 0.  1.
        -13    1    1    2    0    0  0.25432423302E+03  0.14920089598E+03 -0.17715225181E+03  0.34398350883E+03  0.10566000000E+00 0.  1.
         13    1    1    2    0    0 -0.52111701877E+02  0.24743694856E+03  0.10214699281E+04  0.10523029498E+04  0.10566000000E+00 0. -1.
          4    1    1    2  501    0 -0.20221253114E+03 -0.39663784453E+03  0.63730641634E+03  0.77741298920E+03  0.00000000000E+00 0.  1.
</event>
<event>
 5    1  0.4866530E-005  0.4670948E+03  0.7818608E-02  0.9682653E-01
         -4   -1    0    0    0  501 -0.00000000000E+00  0.00000000000E+00  0.32905614682E+04  0.32905614682E+04  0.00000000000E+00 0. -1.
         21   -1    0    0  501  502  0.00000000000E+00 -0.00000000000E+00 -0.15853898806E+03  0.15853898806E+03  0.00000000000E+00 0. -1.
        -13    1    1    2    0    0  0.93901424816E+02  0.27986368390E+03  0.13925480312E+04  0.14234926025E+04  0.10566000000E+00 0.  1.
         13    1    1    2    0    0 -0.47160561998E+03 -0.24616888827E+03  0.50241118693E+03  0.73172945429E+03  0.10566000000E+00 0. -1.
         -4    1    1    2    0  502  0.37770419517E+03 -0.33694795626E+02  0.12370632620E+04  0.12938783994E+04  0.00000000000E+00 0. -1.
</event>
<event>
 5    1  0.4866530E-005  0.1089604E+03  0.7818608E-02  0.1150525E+00
          4   -1    0    0  502    0 -0.00000000000E+00  0.00000000000E+00  0.45409934970E+03  0.45409934970E+03  0.00000000000E+00 0.  1.
         21   -1    0    0  501  502  0.00000000000E+00 -0.00000000000E+00 -0.92602474826E+02  0.92602474826E+02  0.00000000000E+00 0.  1.
        -13    1    1    2    0    0 -0.48322366353E+02  0.10752948227E+03  0.54834649748E+02  0.13001727048E+03  0.10566000000E+00 0.  1.
         13    1    1    2    0    0  0.72001269762E+02 -0.80481404680E+02  0.34655155029E+03  0.36298681452E+03  0.10566000000E+00 0. -1.
          4    1    1    2  501    0 -0.23678903409E+02 -0.27048077586E+02 -0.39889325163E+02  0.53697739521E+02  0.00000000000E+00 0.  1.
</event>
<event>
 5    1  0.4866530E-005  0.4405453E+03  0.7818608E-02  0.9618769E-01
         -4   -1    0    0    0  501 -0.00000000000E+00  0.00000000000E+00  0.44374012039E+03  0.44374012039E+03  0.00000000000E+00 0. -1.
         21   -1    0    0  501  502  0.00000000000E+00 -0.00000000000E+00 -0.11418869600E+04  0.11418869600E+04  0.00000000000E+00 0. -1.
        -13    1    1    2    0    0 -0.27912985059E+03  0.22419811397E+03 -0.19416025923E+03  0.40727937000E+03  0.10566000000E+00 0.  1.
         13    1    1    2    0    0  0.18101539687E+03 -0.50033593852E+03  0.67270327833E+02  0.53630955003E+03  0.10566000000E+00 0. -1.
         -4    1    1    2    0  502  0.98114453723E+02  0.27613782455E+03 -0.57125690821E+03  0.64203816036E+03  0.00000000000E+00 0. -1.
</event>
<event>
 5    1  0.4866530E-005  0.5191077E+03  0.7818608E-02  0.9437047E-01
         -4   -1    0    0    0  501 -0.00000000000E+00  0.00000000000E+00  0.19853409747E+04  0.19853409747E+04  0.00000000000E+00 0. -1.
         21   -1    0    0  501  502  0.00000000000E+00 -0.00000000000E+00 -0.35571716961E+03  0.35571716961E+03  0.00000000000E+00 0.  1.
        -13    1    1    2    0    0 -0.17861730083E+03 -0.50238111549E+03  0.43880805979E+03  0.69053852163E+03  0.10566000000E+00 0.  1.
         13    1    1    2    0    0  0.43457731729E+03  0.32313986028E+03  0.12218675555E+04  0.13365018326E+04  0.10566000000E+00 0. -1.
         -4    1    1    2    0  502 -0.25596001645E+03  0.17924125520E+03 -0.31051810233E+02  0.31401779011E+03  0.00000000000E+00 0. -1.
</event>
<event>
 5    1  0.4866530E-005  0.4397592E+03  0.7818608E-02  0.1007796E+00
          4   -1    0    0  502    0 -0.00000000000E+00  0.00000000000E+00  0.14853403340E+04  0.14853403340E+04  0.00000000000E+00 0.  1.
         21   -1    0    0  501  502  0.00000000000E+00 -0.00000000000E+00 -0.18484190484E+03  0.18484190484E+03  0.00000000000E+00 0.  1.
        -13    1    1    2    0    0  0.39299232873E+03 -0.12763035919E+03  0.86627524431E+03  0.95977356137E+03  0.10566000000E+00 0.  1.
         13    1    1    2    0    0  0.38629381007E+01 -0.93669591143E+02  0.14203540641E+03  0.17018514163E+03  0.10566000000E+00 0. -1.
          4    1    1    2  501    0 -0.39685526683E+03  0.22129995033E+03  0.29218777846E+03  0.54022353587E+03  0.00000000000E+00 0.  1.
</event>
<event>
 5    1  0.4866530E-005  0.6163063E+03  0.7818608E-02  0.9254124E-01
         21   -1    0    0  501  502  0.00000000000E+00  0.00000000000E+00  0.36299064406E+03  0.36299064406E+03  0.00000000000E+00 0. -1.
          4   -1    0    0  502    0 -0.00000000000E+00 -0.00000000000E+00 -0.22088097780E+04  0.22088097780E+04  0.00000000000E+00 0.  1.
        -13    1    1    2    0    0  0.24218683911E+03 -0.62680161655E+03 -0.14411149337E+04  0.15900776694E+04  0.10566000000E+00 0.  1.
         13    1    1    2    0    0 -0.42950388837E+03  0.32835769068E+03 -0.21780645756E+03  0.58286535947E+03  0.10566000000E+00 0. -1.
          4    1    1    2  501    0  0.18731704926E+03  0.29844392586E+03 -0.18689774263E+03  0.39885739310E+03  0.00000000000E+00 0.  1.
</event>
<event>
 5    1  0.4866530E-005  0.1430414E+03  0.7818608E-02  0.1108184E+00
         -4   -1    0    0    0  501 -0.00000000000E+00  0.00000000000E+00  0.57164269986E+03  0.57164269986E+03  0.00000000000E+00 0. -1.
         21   -1    0    0  501  502  0.00000000000E+00 -0.00000000000E+00 -0.47282631070E+02  0.47282631070E+02  0.00000000000E+00 0.  1.
        -13    1    1    2    0    0 -0.11255746532E+03 -0.82597677873E+02  0.32512521162E+03  0.35383325704E+03  0.10566000000E+00 0.  1.
         13    1    1    2    0    0  0.12317193682E+03  0.83640425375E+02  0.20469129101E+03  0.25311179853E+03  0.10566000000E+00 0. -1.
         -4    1    1    2    0  502 -0.10614471494E+02 -0.10427475025E+01 -0.54564338401E+01  0.11980275360E+02  0.00000000000E+00 0. -1.
</event>
<event>
 5    1  0.4866530E-005  0.3972815E+03  0.7818608E-02  0.9743081E-01
         21   -1    0    0  501  502  0.00000000000E+00  0.00000000000E+00  0.98305449952E+03  0.98305449952E+03  0.00000000000E+00 0.  1.
          4   -1    0    0  502    0 -0.00000000000E+00 -0.00000000000E+00 -0.98784784515E+03  0.98784784515E+03  0.00000000000E+00 0.  1.
        -13    1    1    2    0    0  0.21431179645E+03 -0.25516831265E+03 -0.34996282708E+03  0.48323328256E+03  0.10566000000E+00 0.  1.
         13    1    1    2    0    0 -0.40374298664E+02  0.61234943520E+03 -0.33560507151E+03  0.69945170668E+03  0.10566000000E+00 0. -1.
          4    1    1    2  501    0 -0.17393749778E+03 -0.35718112255E+03  0.68077455295E+03  0.78821735543E+03  0.00000000000E+00 0.  1.
</event>
<event>
 5    1  0.4866530E-005  0.2692142E+03  0.7818608E-02  0.1024365E+00
          4   -1    0    0  502    0 -0.00000000000E+00  0.00000000000E+00  0.69116747418E+03  0.69116747418E+03  0.00000000000E+00 0.  1.
         21   -1    0    0  501  502  0.00000000000E+00 -0.00000000000E+00 -0.57511731011E+03  0.57511731011E+03  0.00000000000E+00 0.  1.
        -13    1    1    2    0    0  0.24850164991E+03  0.25581235367E+02 -0.31168028594E+03  0.39943970936E+03  0.10566000000E+00 0.  1.
         13    1    1    2    0    0  0.23723900048E+03  0.44745213725E+02  0.47651467988E+02  0.24607956247E+03  0.10566000000E+00 0. -1.
          4    1    1    2  501    0 -0.48574065039E+03 -0.70326449092E+02  0.38007898202E+03  0.62076551246E+03  0.00000000000E+00 0.  1.
</event>
<event>
 5    1  0.4866530E-005  0.6564069E+03  0.7818608E-02  0.9188734E-01
         21   -1    0    0  501  502  0.00000000000E+00  0.00000000000E+00  0.30976727800E+03  0.30976727800E+03  0.00000000000E+00 0.  1.
          4   -1    0    0  502    0 -0.00000000000E+00 -0.00000000000E+00 -0.24202832901E+04  0.24202832901E+04  0.00000000000E+00 0.  1.
        -13    1    1    2    0    0 -0.52798254141E+03  0.37866970331E+03 -0.96414371846E+03  0.11626389935E+04  0.10566000000E+00 0.  1.
         13    1    1    2    0    0  0.53640843996E+03 -0.38767427810E+03 -0.12758777911E+04  0.14373202529E+04  0.10566000000E+00 0. -1.
          4    1    1    2  501    0 -0.84258985517E+01  0.90045747903E+01  0.12950549741E+03  0.13009132174E+03  0.00000000000E+00 0.  1.
</event>
<event>
 5    1  0.4866530E-005  0.8497393E+02  0.7818608E-02  0.1212315E+00
          4   -1    0    0  502    0 -0.00000000000E+00  0.00000000000E+00  0.96536185044E+02  0.96536185044E+02  0.00000000000E+00 0.  1.
         21   -1    0    0  501  502  0.00000000000E+00 -0.00000000000E+00 -0.52303104853E+03  0.52303104853E+03  0.00000000000E+00 0.  1.
        -13    1    1    2    0    0 -0.85886481659E+02  0.34723228335E+01 -0.43660395944E+03  0.44498491359E+03  0.10566000000E+00 0.  1.
         13    1    1    2    0    0  0.22583665398E+02  0.48793379837E+02 -0.49538883691E+02  0.73109014630E+02  0.10566000000E+00 0. -1.
          4    1    1    2  501    0  0.63302816261E+02 -0.52265702670E+02  0.59647979652E+02  0.10147330535E+03  0.00000000000E+00 0.  1.
</event>
<event>
 5    1  0.4866530E-005  0.6604845E+03  0.7818608E-02  0.9182360E-01
         21   -1    0    0  501  502  0.00000000000E+00  0.00000000000E+00  0.40112327548E+03  0.40112327548E+03  0.00000000000E+00 0.  1.
          4   -1    0    0  502    0 -0.00000000000E+00 -0.00000000000E+00 -0.27019059186E+04  0.27019059186E+04  0.00000000000E+00 0.  1.
        -13    1    1    2    0    0 -0.68483435751E+03  0.43686547456E+03 -0.73097830138E+03  0.10927848957E+04  0.10566000000E+00 0.  1.
         13    1    1    2    0    0  0.56991491133E+03 -0.23523790974E+03 -0.16525785064E+04  0.17638468220E+04  0.10566000000E+00 0. -1.
          4    1    1    2  501    0  0.11491944618E+03 -0.20162756481E+03  0.82774164714E+02  0.24639747634E+03  0.00000000000E+00 0.  1.
</event>
<event>
 5    1  0.4866530E-005  0.2310896E+03  0.7818608E-02  0.1040687E+00
         21   -1    0    0  501  502  0.00000000000E+00  0.00000000000E+00  0.10796392323E+04  0.10796392323E+04  0.00000000000E+00 0. -1.
         -4   -1    0    0    0  501 -0.00000000000E+00 -0.00000000000E+00 -0.21421540985E+03  0.21421540985E+03  0.00000000000E+00 0. -1.
        -13    1    1    2    0    0  0.17052030450E+03  0.12528541591E+03  0.13089866558E+03  0.24881334670E+03  0.10566000000E+00 0.  1.
         13    1    1    2    0    0 -0.16933527749E+03 -0.17253008818E+03 -0.60025323280E+02  0.24908656755E+03  0.10566000000E+00 0. -1.
         -4    1    1    2    0  502 -0.11850270033E+01  0.47244672278E+02  0.79455048018E+03  0.79595472792E+03  0.00000000000E+00 0. -1.
</event>
<event>
 5    1  0.4866530E-005  0.5676177E+03  0.7818608E-02  0.9524305E-01
         21   -1    0    0  501  502  0.00000000000E+00  0.00000000000E+00  0.62125703588E+03  0.62125703588E+03  0.00000000000E+00 0.  1.
          4   -1    0    0  502    0 -0.00000000000E+00 -0.00000000000E+00 -0.25964396131E+04  0.25964396131E+04  0.00000000000E+00 0.  1.
        -13    1    1    2    0    0  0.22135257603E+03  0.13156560468E+03 -0.41185822443E+02  0.26077337745E+03  0.10566000000E+00 0.  1.
         13    1    1    2    0    0  0.55661500882E+03  0.56867290638E+03 -0.17106404394E+04  0.18866636866E+04  0.10566000000E+00 0. -1.
          4    1    1    2  501    0 -0.77796758485E+03 -0.70023851106E+03 -0.22335631542E+03  0.10702595849E+04  0.00000000000E+00 0.  1.
</event>
<event>
 5    1  0.4866530E-005  0.4023940E+03  0.7818608E-02  0.1029827E+00
         21   -1    0    0  501  502  0.00000000000E+00  0.00000000000E+00  0.35399442851E+03  0.35399442851E+03  0.00000000000E+00 0. -1.
         -4   -1    0    0    0  501 -0.00000000000E+00 -0.00000000000E+00 -0.79910716529E+03  0.79910716529E+03  0.00000000000E+00 0. -1.
        -13    1    1    2    0    0 -0.57211323047E+02 -0.21188434457E+02 -0.19398772032E+02  0.64018815671E+02  0.10566000000E+00 0.  1.
         13    1    1    2    0    0 -0.24710670374E+03 -0.30390062709E+03  0.95890532718E+02  0.40325217868E+03  0.10566000000E+00 0. -1.
         -4    1    1    2    0  502  0.30431802679E+03  0.32508906155E+03 -0.52160449747E+03  0.68583059945E+03  0.00000000000E+00 0. -1.
</event>
<event>
 5    1  0.4866530E-005  0.4508666E+03  0.7818608E-02  0.9680559E-01
         21   -1    0    0  501  502  0.00000000000E+00  0.00000000000E+00  0.17435725327E+04  0.17435725327E+04  0.00000000000E+00 0.  1.
          4   -1    0    0  502    0 -0.00000000000E+00 -0.00000000000E+00 -0.35247204003E+03  0.35247204003E+03  0.00000000000E+00 0.  1.
        -13    1    1    2    0    0  0.19746143775E+03  0.57675851113E+03  0.61745888454E+03  0.86769630910E+03  0.10566000000E+00 0.  1.
         13    1    1    2    0    0 -0.28010628778E+03 -0.17568869732E+03 -0.24226516861E+02  0.33153127469E+03  0.10566000000E+00 0. -1.
          4    1    1    2  501    0  0.82644850023E+02 -0.40106981381E+03  0.79786812503E+03  0.89681698898E+03  0.00000000000E+00 0.  1.
</event>
<event>
 5    1  0.4866530E-005  0.4636433E+03  0.7818608E-02  0.1029969E+00
         -4   -1    0    0    0  501 -0.00000000000E+00  0.00000000000E+00  0.32559539170E+03  0.32559539170E+03  0.00000000000E+00 0. -1.
         21   -1    0    0  501  502  0.00000000000E+00 -0.00000000000E+00 -0.87748878778E+03  0.87748878778E+03  0.00000000000E+00 0. -1.
        -13    1    1    2    0    0  0.39642707099E+02  0.22998472441E+01  0.52363953844E+02  0.65717793251E+02  0.10566000000E+00 0.  1.
         13    1    1    2    0    0 -0.16455740518E+03  0.43784473846E+03 -0.46393641371E+03  0.65880510147E+03  0.10566000000E+00 0. -1.
         -4    1    1    2    0  502  0.12491469809E+03 -0.44014458571E+03 -0.14032093622E+03  0.47856128476E+03  0.00000000000E+00 0. -1.
</event>
<event>
 5    1  0.4866530E-005  0.4933524E+03  0.7818608E-02  0.9784108E-01
         -4   -1    0    0    0  501 -0.00000000000E+00  0.00000000000E+00  0.37668947049E+03  0.37668947049E+03  0.00000000000E+00 0. -1.
         21   -1    0    0  501  502  0.00000000000E+00 -0.00000000000E+00 -0.96337552556E+03  0.96337552556E+03  0.00000000000E+00 0. -1.
        -13    1    1    2    0    0  0.70594400286E+02  0.16162252066E+03 -0.20905261490E+02  0.17760194159E+03  0.10566000000E+00 0.  1.
         13    1    1    2    0    0 -0.14784144186E+03  0.38768367580E+03 -0.74655288415E+02  0.42157934920E+03  0.10566000000E+00 0. -1.
         -4    1    1    2    0  502  0.77247041572E+02 -0.54930619646E+03 -0.49112550516E+03  0.74088370526E+03  0.00000000000E+00 0. -1.
</event>
<event>
 5    1  0.4866530E-005  0.2313852E+03  0.7818608E-02  0.1040518E+00
         21   -1    0    0  501  502  0.00000000000E+00  0.00000000000E+00  0.52140650319E+02  0.52140650319E+02  0.00000000000E+00 0.  1.
         -4   -1    0    0    0  501 -0.00000000000E+00 -0.00000000000E+00 -0.12384139060E+04  0.12384139060E+04  0.00000000000E+00 0. -1.
        -13    1    1    2    0    0 -0.18567613075E+03 -0.11427946338E+03 -0.48991013250E+03  0.53623443602E+03  0.10566000000E+00 0.  1.
         13    1    1    2    0    0  0.21723810640E+03  0.11142814493E+03 -0.66999868836E+03  0.71309668343E+03  0.10566000000E+00 0. -1.
         -4    1    1    2    0  502 -0.31561975648E+02  0.28513184535E+01 -0.26364434825E+02  0.41223436870E+02  0.00000000000E+00 0. -1.
</event>
<event>
 5    1  0.4866530E-005  0.3292618E+03  0.7818608E-02  0.1015013E+00
         -4   -1    0    0    0  501 -0.00000000000E+00  0.00000000000E+00  0.24088073636E+03  0.24088073636E+03  0.00000000000E+00 0. -1.
         21   -1    0    0  501  502  0.00000000000E+00 -0.00000000000E+00 -0.13693334999E+04  0.13693334999E+04  0.00000000000E+00 0. -1.
        -13    1    1    2    0    0  0.49825512378E+02 -0.17008254652E+03 -0.42967110502E+02  0.18236457458E+03  0.10566000000E+00 0.  1.
         13    1    1    2    0    0 -0.14701010531E+03  0.32465353403E+03 -0.11725898100E+04  0.12255524313E+04  0.10566000000E+00 0. -1.
         -4    1    1    2    0  502  0.97184592937E+02 -0.15457098751E+03  0.87104156903E+02  0.20229723042E+03  0.00000000000E+00 0. -1.
</event>
<event>
 5    1  0.4866530E-005  0.3584918E+03  0.7818608E-02  0.9857236E-01
          4   -1    0    0  502    0 -0.00000000000E+00  0.00000000000E+00  0.16008632825E+04  0.16008632825E+04  0.00000000000E+00 0.  1.
         21   -1    0    0  501  502  0.00000000000E+00 -0.00000000000E+00 -0.12555244632E+03  0.12555244632E+03  0.00000000000E+00 0. -1.
        -13    1    1    2    0    0  0.34645123812E+03 -0.52229762624E+02  0.95063848219E+03  0.10131485298E+04  0.10566000000E+00 0.  1.
         13    1    1    2    0    0 -0.38051480251E+03 -0.25715304837E+02  0.49114989782E+03  0.62183681551E+03  0.10566000000E+00 0. -1.
          4    1    1    2  501    0  0.34063564399E+02  0.77945067461E+02  0.33522456201E+02  0.91430383521E+02  0.00000000000E+00 0.  1.
</event>
<event>
 5    1  0.4866530E-005  0.3200056E+02  0.7818608E-02  0.1402374E+00
          4   -1    0    0  502    0 -0.00000000000E+00  0.00000000000E+00  0.10237500085E+03  0.10237500085E+03  0.00000000000E+00 0.  1.
         21   -1    0    0  501  502  0.00000000000E+00 -0.00000000000E+00 -0.53448715951E+02  0.53448715951E+02  0.00000000000E+00 0.  1.
        -13    1    1    2    0    0 -0.32418815619E+02 -0.30019341979E+01  0.75967656881E+02  0.82650391839E+02  0.10566000000E+00 0.  1.
         13    1    1    2    0    0  0.77774489950E+01  0.24581318386E+02  0.61875904350E+01  0.26514663224E+02  0.10566000000E+00 0. -1.
          4    1    1    2  501    0  0.24641366624E+02 -0.21579384188E+02 -0.33228962422E+02  0.46658661733E+02  0.00000000000E+00 0.  1.
</event>
<event>
 5    1  0.4866530E-005  0.4919785E+03  0.7818608E-02  0.9552361E-01
         21   -1    0    0  501  502  0.00000000000E+00  0.00000000000E+00  0.32723510515E+03  0.32723510515E+03  0.00000000000E+00 0.  1.
          4   -1    0    0  502    0 -0.00000000000E+00 -0.00000000000E+00 -0.26784824306E+04  0.26784824306E+04  0.00000000000E+00 0.  1.
        -13    1    1    2    0    0  0.29225475435E+03 -0.25388881207E+03 -0.25824311650E+03  0.46536210494E+03  0.10566000000E+00 0.  1.
         13    1    1    2    0    0 -0.14880263977E+02 -0.40062319711E+03 -0.16606114845E+04  0.17083181443E+04  0.10566000000E+00 0. -1.
          4    1    1    2  501    0 -0.27737449037E+03  0.65451200918E+03 -0.43239272441E+03  0.83203728654E+03  0.00000000000E+00 0.  1.
</event>
<event>
 5    1  0.4866530E-005  0.1905914E+03  0.7818608E-02  0.1066784E+00
         21   -1    0    0  501  502  0.00000000000E+00  0.00000000000E+00  0.28944292613E+03  0.28944292613E+03  0.00000000000E+00 0.  1.
         -4   -1    0    0    0  501 -0.00000000000E+00 -0.00000000000E+00 -0.30384030974E+03  0.30384030974E+03  0.00000000000E+00 0. -1.
        -13    1    1    2    0    0 -0.91775361232E+02  0.17673918885E+03  0.14113333163E+03  0.24408622712E+03  0.10566000000E+00 0.  1.
         13    1    1    2    0    0  0.14441028877E+03 -0.12533564046E+03 -0.18856281790E+03  0.26855037094E+03  0.10566000000E+00 0. -1.
         -4    1    1    2    0  502 -0.52634927534E+02 -0.51403548394E+02  0.33032102661E+02  0.80646637811E+02  0.00000000000E+00 0. -1.
</event>
<event>
 5    1  0.4866530E-005  0.4903268E+03  0.7818608E-02  0.9499429E-01
          4   -1    0    0  502    0 -0.00000000000E+00  0.00000000000E+00  0.57348639525E+03  0.57348639525E+03  0.00000000000E+00 0.  1.
         21   -1    0    0  501  502  0.00000000000E+00 -0.00000000000E+00 -0.11581478460E+04  0.11581478460E+04  0.00000000000E+00 0.  1.
        -13    1    1    2    0    0 -0.16715313001E+03  0.47048837815E+03  0.17294008012E+03  0.52840114054E+03  0.10566000000E+00 0.  1.
         13    1    1    2    0    0  0.72360173452E+02 -0.47682223002E+03 -0.45055540752E+02  0.48438150941E+03  0.10566000000E+00 0. -1.
          4    1    1    2  501    0  0.94792956556E+02  0.63338518642E+01 -0.71254599016E+03  0.71885159135E+03  0.00000000000E+00 0.  1.
</event>
<event>
 5    1  0.4866530E-005  0.5079851E+02  0.7818608E-02  0.1288571E+00
         -4   -1    0    0    0  501 -0.00000000000E+00  0.00000000000E+00  0.59486840869E+02  0.59486840869E+02  0.00000000000E+00 0. -1.
         21   -1    0    0  501  502  0.00000000000E+00 -0.00000000000E+00 -0.50283700092E+03  0.50283700092E+03  0.00000000000E+00 0. -1.
        -13    1    1    2    0    0 -0.65622224936E+02 -0.17551134105E+01 -0.98072315073E+02  0.11801502860E+03  0.10566000000E+00 0.  1.
         13    1    1    2    0    0  0.49114103674E+02  0.68523876678E+00  0.37111075387E+02  0.61562227155E+02  0.10566000000E+00 0. -1.
         -4    1    1    2    0  502  0.16508121262E+02  0.10698746438E+01 -0.38238892037E+03  0.38274658603E+03  0.00000000000E+00 0. -1.
</event>
<event>
 5    1  0.4866530E-005  0.2878207E+02  0.7818608E-02  0.1414963E+00
         21   -1    0    0  501  502  0.00000000000E+00  0.00000000000E+00  0.54570285443E+02  0.54570285443E+02  0.00000000000E+00 0.  1.
         -4   -1    0    0    0  501 -0.00000000000E+00 -0.00000000000E+00 -0.15870168165E+03  0.15870168165E+03  0.00000000000E+00 0. -1.
        -13    1    1    2    0    0  0.25317642624E+02 -0.26104742714E+02  0.28722050596E+02  0.46340133520E+02  0.10566000000E+00 0.  1.
         13    1    1    2    0    0 -0.10308301389E+02  0.26680207385E+02 -0.14488844386E+03  0.14768468733E+03  0.10566000000E+00 0. -1.
         -4    1    1    2    0  502 -0.15009341234E+02 -0.57546467112E+00  0.12034997063E+02  0.19247146235E+02  0.00000000000E+00 0. -1.
</event>
<event>
 5    1  0.4866530E-005  0.4653355E+03  0.7818608E-02  0.9848528E-01
         21   -1    0    0  501  502  0.00000000000E+00  0.00000000000E+00  0.15189955879E+04  0.15189955879E+04  0.00000000000E+00 0. -1.
         -4   -1    0    0    0  501 -0.00000000000E+00 -0.00000000000E+00 -0.24850963248E+03  0.24850963248E+03  0.00000000000E+00 0. -1.
        -13    1    1    2    0    0 -0.10260344892E+03  0.13404629504E+03  0.58393640743E+02  0.17862168230E+03  0.10566000000E+00 0.  1.
         13    1    1    2    0    0 -0.13743008529E+03 -0.50928537269E+03  0.39767911827E+03  0.66061131648E+03  0.10566000000E+00 0. -1.
         -4    1    1    2    0  502  0.24003353421E+03  0.37523907766E+03  0.81441319643E+03  0.92827222164E+03  0.00000000000E+00 0. -1.
</event>
<event>
 5    1  0.4866530E-005  0.4416267E+02  0.7818608E-02  0.1317572E+00
         21   -1    0    0  501  502  0.00000000000E+00  0.00000000000E+00  0.35592909623E+02  0.35592909623E+02  0.00000000000E+00 0. -1.
         -4   -1    0    0    0  501 -0.00000000000E+00 -0.00000000000E+00 -0.25607257213E+03  0.25607257213E+03  0.00000000000E+00 0. -1.
        -13    1    1    2    0    0 -0.20504781663E+02 -0.39516146824E+02 -0.81951489077E+01  0.45267466911E+02  0.10566000000E+00 0.  1.
         13    1    1    2    0    0  0.97464230707E+01  0.43187078853E+02 -0.22501604205E+03  0.22933021363E+03  0.10566000000E+00 0. -1.
         -4    1    1    2    0  502  0.10758358592E+02 -0.36709320296E+01  0.12731528446E+02  0.17067801210E+02  0.00000000000E+00 0. -1.
</event>
<event>
 5    1  0.4866530E-005  0.4887975E+03  0.7818608E-02  0.9754321E-01
         21   -1    0    0  501  502  0.00000000000E+00  0.00000000000E+00  0.75813220934E+03  0.75813220934E+03  0.00000000000E+00 0. -1.
         -4   -1    0    0    0  501 -0.00000000000E+00 -0.00000000000E+00 -0.51344008987E+03  0.51344008987E+03  0.00000000000E+00 0. -1.
        -13    1    1    2    0    0  0.17316749865E+03  0.10181480135E+03  0.14420775585E+03  0.24728348989E+03  0.10566000000E+00 0.  1.
         13    1    1    2    0    0 -0.21450381634E+03 -0.53774482200E+03  0.21576310252E+02  0.57935043724E+03  0.10566000000E+00 0. -1.
         -4    1    1    2    0  502  0.41336317691E+02  0.43593002064E+03  0.78908053374E+02  0.44493837207E+03  0.00000000000E+00 0. -1.
</event>
<event>
 5    1  0.4866530E-005  0.1103852E+03  0.7818608E-02  0.1148430E+00
         -4   -1    0    0    0  501 -0.00000000000E+00  0.00000000000E+00  0.99083899101E+03  0.99083899101E+03  0.00000000000E+00 0. -1.
         21   -1    0    0  501  502  0.00000000000E+00 -0.00000000000E+00 -0.32832446901E+02  0.32832446901E+02  0.00000000000E+00 0. -1.
        -13    1    1    2    0    0 -0.14112112191E+03  0.19270643015E+02  0.38157718544E+03  0.40729312337E+03  0.10566000000E+00 0.  1.
         13    1    1    2    0    0  0.98801257254E+02 -0.11820023119E+02  0.56245984287E+03  0.57119391399E+03  0.10566000000E+00 0. -1.
         -4    1    1    2    0  502  0.42319864656E+02 -0.74506198957E+01  0.13969515806E+02  0.45184400551E+02  0.00000000000E+00 0. -1.
</event>
<event>
 5    1  0.4866530E-005  0.1240441E+03  0.7818608E-02  0.1129958E+00
         21   -1    0    0  501  502  0.00000000000E+00  0.00000000000E+00  0.87167384077E+03  0.87167384077E+03  0.00000000000E+00 0. -1.
         -4   -1    0    0    0  501 -0.00000000000E+00 -0.00000000000E+00 -0.30929071895E+02  0.30929071895E+02  0.00000000000E+00 0. -1.
        -13    1    1    2    0    0 -0.28507021891E+02  0.10938519503E+03  0.20683878839E+03  0.23571182985E+03  0.10566000000E+00 0.  1.
         13    1    1    2    0    0  0.77856766111E+02 -0.12498963245E+03  0.37527628359E+03  0.40313320930E+03  0.10566000000E+00 0. -1.
         -4    1    1    2    0  502 -0.49349744220E+02  0.15604437427E+02  0.25862969690E+03  0.26375787352E+03  0.00000000000E+00 0. -1.
</event>
<event>
 5    1  0.4866530E-005  0.4390741E+03  0.7818608E-02  0.9997078E-01
         21   -1    0    0  501  502  0.00000000000E+00  0.00000000000E+00  0.10367307135E+03  0.10367307135E+03  0.00000000000E+00 0.  1.
          4   -1    0    0  502    0 -0.00000000000E+00 -0.00000000000E+00 -0.31661170620E+04  0.31661170620E+04  0.00000000000E+00 0.  1.
        -13    1    1    2    0    0  0.34665361080E+03  0.36492737462E+02 -0.19942096106E+04  0.20244437329E+04  0.10566000000E+00 0.  1.
         13    1    1    2    0    0  0.12237980080E+03 -0.61093081981E+01 -0.46357185946E+03  0.47949246015E+03  0.10566000000E+00 0. -1.
          4    1    1    2  501    0 -0.46903341161E+03 -0.30383429264E+02 -0.60466252064E+03  0.76585394028E+03  0.00000000000E+00 0.  1.
</event>
<event>
 5    1  0.4866530E-005  0.3118163E+03  0.7818608E-02  0.1023276E+00
         -4   -1    0    0    0  501 -0.00000000000E+00  0.00000000000E+00  0.21165582768E+04  0.21165582768E+04  0.00000000000E+00 0. -1.
         21   -1    0    0  501  502  0.00000000000E+00 -0.00000000000E+00 -0.16703341383E+03  0.16703341383E+03  0.00000000000E+00 0. -1.
        -13    1    1    2    0    0 -0.49447108964E+02 -0.15296367236E+03  0.25419253021E+03  0.30076029529E+03  0.10566000000E+00 0.  1.
         13    1    1    2    0    0 -0.12386872088E+03  0.29995962179E+03  0.57838693291E+02  0.32964308020E+03  0.10566000000E+00 0. -1.
         -4    1    1    2    0  502  0.17331582984E+03 -0.14699594943E+03  0.16374936394E+04  0.16531883151E+04  0.00000000000E+00 0. -1.
</event>
<event>
 5    1  0.4866530E-005  0.4366654E+03  0.7818608E-02  0.9903401E-01
          4   -1    0    0  502    0 -0.00000000000E+00  0.00000000000E+00  0.19205443992E+03  0.19205443992E+03  0.00000000000E+00 0.  1.
         21   -1    0    0  501  502  0.00000000000E+00 -0.00000000000E+00 -0.16253089354E+04  0.16253089354E+04  0.00000000000E+00 0.  1.
        -13    1    1    2    0    0  0.47018037930E+03  0.11621988504E+03 -0.10727780916E+04  0.11770426907E+04  0.10566000000E+00 0.  1.
         13    1    1    2    0    0 -0.16391876882E+03  0.44585122855E+02 -0.18939023731E+03  0.25441279273E+03  0.10566000000E+00 0. -1.
          4    1    1    2  501    0 -0.30626161048E+03 -0.16080500790E+03 -0.17108616655E+03  0.38590789187E+03  0.00000000000E+00 0.  1.
</event>
<event>
 5    1  0.4866530E-005  0.6848348E+02  0.7818608E-02  0.1230764E+00
          4   -1    0    0  502    0 -0.00000000000E+00  0.00000000000E+00  0.74943552699E+02  0.74943552699E+02  0.00000000000E+00 0.  1.
         21   -1    0    0  501  502  0.00000000000E+00 -0.00000000000E+00 -0.21722550728E+03  0.21722550728E+03  0.00000000000E+00 0.  1.
        -13    1    1    2    0    0 -0.70505778399E+02  0.45772735291E+01  0.47566852340E+02  0.85174132377E+02  0.10566000000E+00 0.  1.
         13    1    1    2    0    0  0.55615661047E+02 -0.12862839070E+02 -0.96630679264E+02  0.11223214211E+03  0.10566000000E+00 0. -1.
          4    1    1    2  501    0  0.14890117352E+02  0.82855655412E+01 -0.93218127653E+02  0.94762785492E+02  0.00000000000E+00 0.  1.
</event>
<event>
 5    1  0.6907502E-005  0.7510045E+03  0.7818608E-02  0.9052100E-01
         -4   -1    0    0    0  501 -0.00000000000E+00  0.00000000000E+00  0.18700680875E+04  0.18700680875E+04  0.00000000000E+00 0. -1.
         21   -1    0    0  501  502  0.00000000000E+00 -0.00000000000E+00 -0.62670254022E+03  0.62670254022E+03  0.00000000000E+00 0.  1.
        -13    1    1    2    0    0  0.42454891839E+03 -0.70185617493E+03  0.21037577047E+03  0.84681866439E+03  0.10566000000E+00 0.  1.
         13    1    1    2    0    0 -0.67471514974E+03  0.34519462024E+03  0.93469416360E+03  0.12033507592E+04  0.10566000000E+00 0. -1.
         -4    1    1    2    0  502  0.25016623135E+03  0.35666155469E+03  0.98295613192E+02  0.44660120407E+03  0.00000000000E+00 0. -1.
</event>
<event>
 5    1  0.4866530E-005  0.4098014E+02  0.7818608E-02  0.1333607E+00
          4   -1    0    0  502    0 -0.00000000000E+00  0.00000000000E+00  0.18233094787E+02  0.18233094787E+02  0.00000000000E+00 0.  1.
         21   -1    0    0  501  502  0.00000000000E+00 -0.00000000000E+00 -0.38874535042E+03  0.38874535042E+03  0.00000000000E+00 0.  1.
        -13    1    1    2    0    0 -0.40074593323E+02 -0.26064660359E+02 -0.53157876208E+02  0.71492031141E+02  0.10566000000E+00 0.  1.
         13    1    1    2    0    0  0.13363115951E+02  0.37459718252E+02 -0.39278544506E+02  0.55898287827E+02  0.10566000000E+00 0. -1.
          4    1    1    2  501    0  0.26711477373E+02 -0.11395057893E+02 -0.27807583492E+03  0.27958812624E+03  0.00000000000E+00 0.  1.
</event>
<event>
 5    1  0.4866530E-005  0.4918137E+03  0.7818608E-02  0.9725917E-01
          4   -1    0    0  502    0 -0.00000000000E+00  0.00000000000E+00  0.11940386155E+04  0.11940386155E+04  0.00000000000E+00 0.  1.
         21   -1    0    0  501  502  0.00000000000E+00 -0.00000000000E+00 -0.52191981832E+03  0.52191981832E+03  0.00000000000E+00 0.  1.
        -13    1    1    2    0    0 -0.88864037597E+02 -0.46173103332E+03  0.54962857873E+02  0.47340605322E+03  0.10566000000E+00 0.  1.
         13    1    1    2    0    0 -0.21604015873E+03  0.25527886037E+02  0.67313391404E+03  0.70741381139E+03  0.10566000000E+00 0. -1.
          4    1    1    2  501    0  0.30490419632E+03  0.43620314729E+03 -0.55977974710E+02  0.53513856924E+03  0.00000000000E+00 0.  1.
</event>
<event>
 5    1  0.4866530E-005  0.1111722E+03  0.7818608E-02  0.1147287E+00
         21   -1    0    0  501  502  0.00000000000E+00  0.00000000000E+00  0.38831206982E+02  0.38831206982E+02  0.00000000000E+00 0.  1.
          4   -1    0    0  502    0 -0.00000000000E+00 -0.00000000000E+00 -0.83603069800E+03  0.83603069800E+03  0.00000000000E+00 0.  1.
        -13    1    1    2    0    0 -0.19285043803E+02 -0.11149659591E+03 -0.65699197975E+03  0.66666474066E+03  0.10566000000E+00 0.  1.
         13    1    1    2    0    0  0.14721614288E+01  0.10545526262E+03 -0.15272628697E+03  0.18560255808E+03  0.10566000000E+00 0. -1.
          4    1    1    2  501    0  0.17812882375E+02  0.60413332971E+01  0.12518775694E+02  0.22594606245E+02  0.00000000000E+00 0.  1.
</event>
<event>
 5    1  0.4866530E-005  0.3844905E+02  0.7818608E-02  0.1347585E+00
         -4   -1    0    0    0  501 -0.00000000000E+00  0.00000000000E+00  0.89780327285E+02  0.89780327285E+02  0.00000000000E+00 0. -1.
         21   -1    0    0  501  502  0.00000000000E+00 -0.00000000000E+00 -0.31724434757E+02  0.31724434757E+02  0.00000000000E+00 0.  1.
        -13    1    1    2    0    0  0.44951269492E+02  0.62197849303E+01  0.51807070842E+02  0.68871518837E+02  0.10566000000E+00 0.  1.
         13    1    1    2    0    0 -0.30907653407E+02 -0.28434712671E+00  0.15727701254E+02  0.34680479282E+02  0.10566000000E+00 0. -1.
         -4    1    1    2    0  502 -0.14043616085E+02 -0.59354378036E+01 -0.94788795685E+01  0.17952763925E+02  0.00000000000E+00 0. -1.
</event>
<event>
 5    1  0.4866530E-005  0.5360876E+03  0.7818608E-02  0.9402199E-01
         -4   -1    0    0    0  501 -0.00000000000E+00  0.00000000000E+00  0.18643383489E+04  0.18643383489E+04  0.00000000000E+00 0. -1.
         21   -1    0    0  501  502  0.00000000000E+00 -0.00000000000E+00 -0.78399351726E+03  0.78399351726E+03  0.00000000000E+00 0. -1.
        -13    1    1    2    0    0  0.64332547873E+03 -0.15495328363E+03  0.13297744597E+04  0.14853209473E+04  0.10566000000E+00 0.  1.
         13    1    1    2    0    0 -0.39524613256E+03 -0.59255773458E+02  0.31596984076E+03  0.50947787334E+03  0.10566000000E+00 0. -1.
         -4    1    1    2    0  502 -0.24807934617E+03  0.21420905708E+03 -0.56539946886E+03  0.65353304547E+03  0.00000000000E+00 0. -1.
</event>
<event>
 5    1  0.4866530E-005  0.7944180E+03  0.7818608E-02  0.8996237E-01
          4   -1    0    0  502    0 -0.00000000000E+00  0.00000000000E+00  0.20112387443E+04  0.20112387443E+04  0.00000000000E+00 0.  1.
         21   -1    0    0  501  502  0.00000000000E+00 -0.00000000000E+00 -0.76788696465E+03  0.76788696465E+03  0.00000000000E+00 0. -1.
        -13    1    1    2    0    0  0.32555309439E+02 -0.78116256802E+03  0.14064800203E+04  0.16091801840E+04  0.10566000000E+00 0.  1.
         13    1    1    2    0    0  0.66353253064E+02  0.84137390225E+03  0.13077144060E+03  0.85405736249E+03  0.10566000000E+00 0. -1.
          4    1    1    2  501    0 -0.98908562503E+02 -0.60211334232E+02 -0.29389968129E+03  0.31588816244E+03  0.00000000000E+00 0.  1.
</event>
<event>
 5    1  0.4866530E-005  0.4722355E+03  0.7818608E-02  0.9903512E-01
          4   -1    0    0  502    0 -0.00000000000E+00  0.00000000000E+00  0.13515295323E+04  0.13515295323E+04  0.00000000000E+00 0.  1.
         21   -1    0    0  501  502  0.00000000000E+00 -0.00000000000E+00 -0.25117501640E+03  0.25117501640E+03  0.00000000000E+00 0.  1.
        -13    1    1    2    0    0  0.24797708172E+03 -0.30113011321E+03  0.74842010431E+03  0.84398142269E+03  0.10566000000E+00 0.  1.
         13    1    1    2    0    0  0.21978804574E+02 -0.13244519783E+03  0.16981607208E+03  0.21647703753E+03  0.10566000000E+00 0. -1.
          4    1    1    2  501    0 -0.26995588629E+03  0.43357531104E+03  0.18211833950E+03  0.54224608848E+03  0.00000000000E+00 0.  1.
</event>
<event>
 5    1  0.4866530E-005  0.3758763E+03  0.7818608E-02  0.9854470E-01
         21   -1    0    0  501  502  0.00000000000E+00  0.00000000000E+00  0.28489313037E+03  0.28489313037E+03  0.00000000000E+00 0. -1.
         -4   -1    0    0    0  501 -0.00000000000E+00 -0.00000000000E+00 -0.16237045039E+04  0.16237045039E+04  0.00000000000E+00 0. -1.
        -13    1    1    2    0    0  0.25189872977E+02 -0.31292005610E+03 -0.36067183065E+03  0.47816071754E+03  0.10566000000E+00 0.  1.
         13    1    1    2    0    0 -0.34715298614E+03  0.44558875583E+03 -0.91681297749E+03  0.10768521635E+04  0.10566000000E+00 0. -1.
         -4    1    1    2    0  502  0.32196311316E+03 -0.13266869973E+03 -0.61326565406E+02  0.35358475328E+03  0.00000000000E+00 0. -1.
</event>
<event>
 5    1  0.4866530E-005  0.5538501E+02  0.7818608E-02  0.1271292E+00
         -4   -1    0    0    0  501 -0.00000000000E+00  0.00000000000E+00  0.13828882261E+03  0.13828882261E+03  0.00000000000E+00 0. -1.
         21   -1    0    0  501  502  0.00000000000E+00 -0.00000000000E+00 -0.44050248126E+02  0.44050248126E+02  0.00000000000E+00 0.  1.
        -13    1    1    2    0    0  0.45231802300E+02  0.50032168625E+00 -0.69244866149E+00  0.45239992378E+02  0.10566000000E+00 0.  1.
         13    1    1    2    0    0 -0.56950376708E+02  0.18017209328E+02  0.98202525430E+02  0.11494221333E+03  0.10566000000E+00 0. -1.
         -4    1    1    2    0  502  0.11718574408E+02 -0.18517531014E+02 -0.32715022829E+01  0.22156865035E+02  0.00000000000E+00 0. -1.
</event>
<event>
 5    1  0.4866530E-005  0.2490703E+03  0.7818608E-02  0.1046072E+00
         21   -1    0    0  501  502  0.00000000000E+00  0.00000000000E+00  0.30431271986E+03  0.30431271986E+03  0.00000000000E+00 0. -1.
         -4   -1    0    0    0  501 -0.00000000000E+00 -0.00000000000E+00 -0.46061588423E+03  0.46061588423E+03  0.00000000000E+00 0. -1.
        -13    1    1    2    0    0  0.33468306181E+02  0.15333360518E+03  0.41231240621E+02  0.16226936976E+03  0.10566000000E+00 0.  1.
         13    1    1    2    0    0  0.43678993105E+02 -0.34821881194E+03 -0.17408463593E+03  0.39175204793E+03  0.10566000000E+00 0. -1.
         -4    1    1    2    0  502 -0.77147299287E+02  0.19488520677E+03 -0.23449769055E+02  0.21090718639E+03  0.00000000000E+00 0. -1.
</event>
<event>
 5    1  0.4866530E-005  0.5031461E+03  0.7818608E-02  0.9490638E-01
          4   -1    0    0  502    0 -0.00000000000E+00  0.00000000000E+00  0.16232588252E+04  0.16232588252E+04  0.00000000000E+00 0.  1.
         21   -1    0    0  501  502  0.00000000000E+00 -0.00000000000E+00 -0.38868096262E+03  0.38868096262E+03  0.00000000000E+00 0.  1.
        -13    1    1    2    0    0  0.25970991891E+03  0.17028767143E+03  0.46854777885E+03  0.56212468835E+03  0.10566000000E+00 0.  1.
         13    1    1    2    0    0  0.11310976538E+03  0.45468143834E+03  0.47161220205E+03  0.66479102708E+03  0.10566000000E+00 0. -1.
          4    1    1    2  501    0 -0.37281968428E+03 -0.62496910978E+03  0.29441788166E+03  0.78502407237E+03  0.00000000000E+00 0.  1.
</event>
<event>
 5    1  0.4866530E-005  0.4647564E+03  0.7818608E-02  0.9583520E-01
          4   -1    0    0  502    0 -0.00000000000E+00  0.00000000000E+00  0.40247565112E+03  0.40247565112E+03  0.00000000000E+00 0.  1.
         21   -1    0    0  501  502  0.00000000000E+00 -0.00000000000E+00 -0.15796677003E+04  0.15796677003E+04  0.00000000000E+00 0. -1.
        -13    1    1    2    0    0  0.15551363661E+03  0.46805152691E+03 -0.78973447061E+03  0.93109466127E+03  0.10566000000E+00 0.  1.
         13    1    1    2    0    0 -0.42518149190E+03 -0.11416943997E+02 -0.64677044180E+02  0.43022410309E+03  0.10566000000E+00 0. -1.
          4    1    1    2  501    0  0.26966785529E+03 -0.45663458291E+03 -0.32278053435E+03  0.62082458702E+03  0.00000000000E+00 0.  1.
</event>
<event>
 5    1  0.4866530E-005  0.4536594E+03  0.7818608E-02  0.9585770E-01
         21   -1    0    0  501  502  0.00000000000E+00  0.00000000000E+00  0.37344619729E+03  0.37344619729E+03  0.00000000000E+00 0.  1.
         -4   -1    0    0    0  501 -0.00000000000E+00 -0.00000000000E+00 -0.17420074694E+04  0.17420074694E+04  0.00000000000E+00 0. -1.
        -13    1    1    2    0    0  0.35483122216E+03  0.78271226254E+02  0.15630180045E+02  0.36369753198E+03  0.10566000000E+00 0.  1.
         13    1    1    2    0    0 -0.35939406845E+03 -0.44077539406E+03 -0.37965163250E+03  0.68379998367E+03  0.10566000000E+00 0. -1.
         -4    1    1    2    0  502  0.45628462906E+01  0.36250416781E+03 -0.10045398196E+04  0.10679561510E+04  0.00000000000E+00 0. -1.
</event>
<event>
 5    1  0.4866530E-005  0.1440663E+03  0.7818608E-02  0.1144354E+00
         21   -1    0    0  501  502  0.00000000000E+00  0.00000000000E+00  0.70421661810E+03  0.70421661810E+03  0.00000000000E+00 0. -1.
         -4   -1    0    0    0  501 -0.00000000000E+00 -0.00000000000E+00 -0.40756503971E+03  0.40756503971E+03  0.00000000000E+00 0. -1.
        -13    1    1    2    0    0  0.49032147084E+02  0.24841030801E+02  0.49129291833E+02  0.73721955610E+02  0.10566000000E+00 0.  1.
         13    1    1    2    0    0 -0.11708708015E+03  0.10210234234E+03 -0.37140873539E+03  0.40259003035E+03  0.10566000000E+00 0. -1.
         -4    1    1    2    0  502  0.68054933070E+02 -0.12694337314E+03  0.61893102195E+03  0.63546967184E+03  0.00000000000E+00 0. -1.
</event>
<event>
 5    1  0.4866530E-005  0.4989018E+03  0.7818608E-02  0.9943229E-01
         -4   -1    0    0    0  501 -0.00000000000E+00  0.00000000000E+00  0.27560703226E+04  0.27560703226E+04  0.00000000000E+00 0. -1.
         21   -1    0    0  501  502  0.00000000000E+00 -0.00000000000E+00 -0.11241614909E+03  0.11241614909E+03  0.00000000000E+00 0. -1.
        -13    1    1    2    0    0  0.96726375072E+02  0.24395702177E+02  0.26308480304E+03  0.28136234054E+03  0.10566000000E+00 0.  1.
         13    1    1    2    0    0 -0.30787382066E+03 -0.44413955335E+03  0.13670103113E+04  0.14699535485E+04  0.10566000000E+00 0. -1.
         -4    1    1    2    0  502  0.21114744559E+03  0.41974385118E+03  0.10135590591E+04  0.11171705827E+04  0.00000000000E+00 0. -1.
</event>
<event>
 5    1  0.5260206E-005  0.4424837E+03  0.7818608E-02  0.1022791E+00
         21   -1    0    0  501  502  0.00000000000E+00  0.00000000000E+00  0.96469677757E+03  0.96469677757E+03  0.00000000000E+00 0. -1.
         -4   -1    0    0    0  501 -0.00000000000E+00 -0.00000000000E+00 -0.30131923729E+03  0.30131923729E+03  0.00000000000E+00 0. -1.
        -13    1    1    2    0    0  0.13620123756E+02 -0.55470221858E+02 -0.22492246376E+02  0.61387014874E+02  0.10566000000E+00 0.  1.
         13    1    1    2    0    0  0.34712085771E+03 -0.22136921269E+03  0.38475052767E+02  0.41349432769E+03  0.10566000000E+00 0. -1.
         -4    1    1    2    0  502 -0.36074098146E+03  0.27683943455E+03  0.64739473389E+03  0.79113467229E+03  0.00000000000E+00 0. -1.
</event>
<event>
 5    1  0.4866530E-005  0.4187598E+03  0.7818608E-02  0.1017893E+00
         21   -1    0    0  501  502  0.00000000000E+00  0.00000000000E+00  0.14971442610E+04  0.14971442610E+04  0.00000000000E+00 0.  1.
          4   -1    0    0  502    0 -0.00000000000E+00 -0.00000000000E+00 -0.19638814906E+03  0.19638814906E+03  0.00000000000E+00 0.  1.
        -13    1    1    2    0    0  0.35865499835E+03  0.14520581806E+03  0.11980948001E+03  0.40505858849E+03  0.10566000000E+00 0.  1.
         13    1    1    2    0    0  0.60043497162E+02 -0.50761274024E+02  0.11453455107E+03  0.13892481076E+03  0.10566000000E+00 0. -1.
          4    1    1    2  501    0 -0.41869849552E+03 -0.94444544036E+02  0.10664120808E+04  0.11495490108E+04  0.00000000000E+00 0.  1.
</event>
<event>
 5    1  0.4866530E-005  0.4377811E+03  0.7818608E-02  0.9852028E-01
         21   -1    0    0  501  502  0.00000000000E+00  0.00000000000E+00  0.27059264101E+03  0.27059264101E+03  0.00000000000E+00 0.  1.
         -4   -1    0    0    0  501 -0.00000000000E+00 -0.00000000000E+00 -0.19624417387E+04  0.19624417387E+04  0.00000000000E+00 0. -1.
        -13    1    1    2    0    0  0.36716745697E+02 -0.19695352459E+03  0.38685615261E+02  0.20404753920E+03  0.10566000000E+00 0.  1.
         13    1    1    2    0    0 -0.39030938565E+03 -0.94489874897E+02 -0.14194033749E+04  0.14751188782E+04  0.10566000000E+00 0. -1.
         -4    1    1    2    0  502  0.35359263995E+03  0.29144339948E+03 -0.31113133801E+03  0.55386796226E+03  0.00000000000E+00 0. -1.
</event>
<event>
 5    1  0.4866530E-005  0.6438564E+03  0.7818608E-02  0.9208661E-01
         21   -1    0    0  501  502  0.00000000000E+00  0.00000000000E+00  0.65093182454E+03  0.65093182454E+03  0.00000000000E+00 0.  1.
          4   -1    0    0  502    0 -0.00000000000E+00 -0.00000000000E+00 -0.13749347495E+04  0.13749347495E+04  0.00000000000E+00 0.  1.
        -13    1    1    2    0    0  0.83988396603E+03  0.38311698320E+02 -0.14820098119E+03  0.85371916027E+03  0.10566000000E+00 0.  1.
         13    1    1    2    0    0 -0.57460039404E+03  0.11058640763E+03 -0.63363024517E+03  0.86248609563E+03  0.10566000000E+00 0. -1.
          4    1    1    2  501    0 -0.26528357198E+03 -0.14889810595E+03  0.57828301391E+02  0.30966131816E+03  0.00000000000E+00 0.  1.
</event>
<event>
 5    1  0.4866530E-005  0.3974318E+02  0.7818608E-02  0.1340290E+00
         -4   -1    0    0    0  501 -0.00000000000E+00  0.00000000000E+00  0.11160790844E+03  0.11160790844E+03  0.00000000000E+00 0. -1.
         21   -1    0    0  501  502  0.00000000000E+00 -0.00000000000E+00 -0.83887273848E+02  0.83887273848E+02  0.00000000000E+00 0. -1.
        -13    1    1    2    0    0  0.24439356929E+02 -0.23263585519E+02  0.14652655212E+02  0.36785704385E+02  0.10566000000E+00 0.  1.
         13    1    1    2    0    0 -0.21894269434E+02  0.37213427213E+02  0.79668507725E+02  0.90616116040E+02  0.10566000000E+00 0. -1.
         -4    1    1    2    0  502 -0.25450874949E+01 -0.13949841694E+02 -0.66600528346E+02  0.68093361861E+02  0.00000000000E+00 0. -1.
</event>
<event>
 5    1  0.4866530E-005  0.4097032E+03  0.7818608E-02  0.9718399E-01
         -4   -1    0    0    0  501 -0.00000000000E+00  0.00000000000E+00  0.17349630651E+04  0.17349630651E+04  0.00000000000E+00 0. -1.
         21   -1    0    0  501  502  0.00000000000E+00 -0.00000000000E+00 -0.61653854449E+03  0.61653854449E+03  0.00000000000E+00 0.  1.
        -13    1    1    2    0    0 -0.42068817957E+03  0.21316278553E+03 -0.29700174346E+03  0.55733918250E+03  0.10566000000E+00 0.  1.
         13    1    1    2    0    0  0.51193314894E+02 -0.39016623672E+03  0.13146029068E+04  0.13722358622E+04  0.10566000000E+00 0. -1.
         -4    1    1    2    0  502  0.36949486468E+03  0.17700345119E+03  0.10082335721E+03  0.42192656483E+03  0.00000000000E+00 0. -1.
</event>
<event>
 5    1  0.4866530E-005  0.2133533E+03  0.7818608E-02  0.1051348E+00
          4   -1    0    0  502    0 -0.00000000000E+00  0.00000000000E+00  0.28706219524E+03  0.28706219524E+03  0.00000000000E+00 0.  1.
         21   -1    0    0  501  502  0.00000000000E+00 -0.00000000000E+00 -0.73783235753E+03  0.73783235753E+03  0.00000000000E+00 0.  1.
        -13    1    1    2    0    0 -0.18804916570E+03 -0.28335680524E+03 -0.13774145135E+03  0.36691454915E+03  0.10566000000E+00 0.  1.
         13    1    1    2    0    0  0.13106778155E+03  0.13278709025E+03  0.10212881008E+03  0.21270044596E+03  0.10566000000E+00 0. -1.
          4    1    1    2  501    0  0.56981384142E+02  0.15056971498E+03 -0.41515752103E+03  0.44527955766E+03  0.00000000000E+00 0.  1.
</event>
<event>
 5    1  0.4866530E-005  0.4508523E+02  0.7818608E-02  0.1313205E+00
          4   -1    0    0  502    0 -0.00000000000E+00  0.00000000000E+00  0.26717729971E+03  0.26717729971E+03  0.00000000000E+00 0.  1.
         21   -1    0    0  501  502  0.00000000000E+00 -0.00000000000E+00 -0.13883395970E+02  0.13883395970E+02  0.00000000000E+00 0. -1.
        -13    1    1    2    0    0  0.41046148347E+02  0.11569214933E+02  0.13302854510E+03  0.13969695059E+03  0.10566000000E+00 0.  1.
         13    1    1    2    0    0 -0.49743501050E+02 -0.71902673622E+00  0.11691613213E+03  0.12706032430E+03  0.10566000000E+00 0. -1.
          4    1    1    2  501    0  0.86973527030E+01 -0.10850188197E+02  0.33492265070E+01  0.14303420784E+02  0.00000000000E+00 0.  1.
</event>
<event>
 5    1  0.4866530E-005  0.2933846E+03  0.7818608E-02  0.1010074E+00
         -4   -1    0    0    0  501 -0.00000000000E+00  0.00000000000E+00  0.17275349430E+03  0.17275349430E+03  0.00000000000E+00 0. -1.
         21   -1    0    0  501  502  0.00000000000E+00 -0.00000000000E+00 -0.63867699323E+03  0.63867699323E+03  0.00000000000E+00 0.  1.
        -13    1    1    2    0    0 -0.28426680862E+03 -0.11996885148E+03 -0.27222241609E+03  0.41146712967E+03  0.10566000000E+00 0.  1.
         13    1    1    2    0    0  0.25830780364E+03  0.11945388783E+03 -0.98296172306E+02  0.30108852750E+03  0.10566000000E+00 0. -1.
         -4    1    1    2    0  502  0.25959004988E+02  0.51496364761E+00 -0.95404910527E+02  0.98874830368E+02  0.00000000000E+00 0. -1.
</event>
<event>
 5    1  0.4866530E-005  0.3089717E+03  0.7818608E-02  0.1003669E+00
         -4   -1    0    0    0  501 -0.00000000000E+00  0.00000000000E+00  0.15238796607E+03  0.15238796607E+03  0.00000000000E+00 0. -1.
         21   -1    0    0  501  502  0.00000000000E+00 -0.00000000000E+00 -0.82511422433E+03  0.82511422433E+03  0.00000000000E+00 0.  1.
        -13    1    1    2    0    0  0.76449190316E+02 -0.29218310823E+03 -0.22269330983E+03  0.37524361266E+03  0.10566000000E+00 0.  1.
         13    1    1    2    0    0 -0.64675927494E+02  0.31024136221E+03 -0.25698908081E+03  0.40801480028E+03  0.10566000000E+00 0. -1.
         -4    1    1    2    0  502 -0.11773262822E+02 -0.18058253980E+02 -0.19304386762E+03  0.19424377746E+03  0.00000000000E+00 0. -1.
</event>
<event>
 5    1  0.4866530E-005  0.2750181E+03  0.7818608E-02  0.1018186E+00
         -4   -1    0    0    0  501 -0.00000000000E+00  0.00000000000E+00  0.77760295594E+03  0.77760295594E+03  0.00000000000E+00 0. -1.
         21   -1    0    0  501  502  0.00000000000E+00 -0.00000000000E+00 -0.13134142939E+03  0.13134142939E+03  0.00000000000E+00 0.  1.
        -13    1    1    2    0    0  0.10566427806E+02  0.29120536666E+03  0.35097334444E+03  0.45617377680E+03  0.10566000000E+00 0.  1.
         13    1    1    2    0    0  0.34537045160E+01 -0.26067012514E+03  0.31875763759E+03  0.41178548408E+03  0.10566000000E+00 0. -1.
         -4    1    1    2    0  502 -0.14020132322E+02 -0.30535241529E+02 -0.23469455473E+02  0.40985124445E+02  0.00000000000E+00 0. -1.
</event>
<event>
 5    1  0.4866530E-005  0.4426374E+03  0.7818608E-02  0.9613424E-01
         21   -1    0    0  501  502  0.00000000000E+00  0.00000000000E+00  0.72350396109E+03  0.72350396109E+03  0.00000000000E+00 0.  1.
          4   -1    0    0  502    0 -0.00000000000E+00 -0.00000000000E+00 -0.71775469975E+03  0.71775469975E+03  0.00000000000E+00 0.  1.
        -13    1    1    2    0    0 -0.49790300519E+03  0.38724997951E+03  0.22138485656E+03  0.66849174646E+03  0.10566000000E+00 0.  1.
         13    1    1    2    0    0  0.35894350129E+03 -0.96802556880E+02  0.22265923712E+02  0.37243382588E+03  0.10566000000E+00 0. -1.
          4    1    1    2  501    0  0.13895950390E+03 -0.29044742263E+03 -0.23790151893E+03  0.40033308850E+03  0.00000000000E+00 0.  1.
</event>
<event>
 5    1  0.4866530E-005  0.5821893E+02  0.7818608E-02  0.1261525E+00
         21   -1    0    0  501  502  0.00000000000E+00  0.00000000000E+00  0.46559334496E+03  0.46559334496E+03  0.00000000000E+00 0.  1.
          4   -1    0    0  502    0 -0.00000000000E+00 -0.00000000000E+00 -0.45907241544E+02  0.45907241544E+02  0.00000000000E+00 0.  1.
        -13    1    1    2    0    0 -0.52804358041E+02  0.19051290798E+02 -0.73067873491E+01  0.56609647716E+02  0.10566000000E+00 0.  1.
         13    1    1    2    0    0  0.64067624336E+02 -0.12538533094E+02  0.63192637510E+02  0.90858108608E+02  0.10566000000E+00 0. -1.
          4    1    1    2  501    0 -0.11263266295E+02 -0.65127577032E+01  0.36380025325E+03  0.36403283018E+03  0.00000000000E+00 0.  1.
</event>
<event>
 5    1  0.4866530E-005  0.4213318E+03  0.7818608E-02  0.1007020E+00
         21   -1    0    0  501  502  0.00000000000E+00  0.00000000000E+00  0.14442212810E+04  0.14442212810E+04  0.00000000000E+00 0. -1.
         -4   -1    0    0    0  501 -0.00000000000E+00 -0.00000000000E+00 -0.57363639895E+03  0.57363639895E+03  0.00000000000E+00 0. -1.
        -13    1    1    2    0    0 -0.84986799361E+02  0.68729887859E+02 -0.38724397463E+03  0.40237353368E+03  0.10566000000E+00 0.  1.
         13    1    1    2    0    0  0.34324998880E+03 -0.28477527694E+03  0.11915839698E+04  0.12723167378E+04  0.10566000000E+00 0. -1.
         -4    1    1    2    0  502 -0.25826318943E+03  0.21604538908E+03  0.66244886875E+02  0.34316740842E+03  0.00000000000E+00 0. -1.
</event>
<event>
 5    1  0.4866530E-005  0.4915469E+03  0.7818608E-02  0.9887716E-01
         21   -1    0    0  501  502  0.00000000000E+00  0.00000000000E+00  0.47704067879E+03  0.47704067879E+03  0.00000000000E+00 0. -1.
         -4   -1    0    0    0  501 -0.00000000000E+00 -0.00000000000E+00 -0.81177743129E+03  0.81177743129E+03  0.00000000000E+00 0. -1.
        -13    1    1    2    0    0 -0.97828514783E+02 -0.78632186525E+02 -0.24057229205E+03  0.27134567977E+03  0.10566000000E+00 0.  1.
         13    1    1    2    0    0 -0.45212555465E+03  0.42943705118E+01  0.12687053326E+02  0.45232392295E+03  0.10566000000E+00 0. -1.
         -4    1    1    2    0  502  0.54995406943E+03  0.74337816013E+02 -0.10685151377E+03  0.56514850736E+03  0.00000000000E+00 0. -1.
</event>
<event>
 5    1  0.4866530E-005  0.7686537E+02  0.7818608E-02  0.1215844E+00
          4   -1    0    0  502    0 -0.00000000000E+00  0.00000000000E+00  0.63351843523E+02  0.63351843523E+02  0.00000000000E+00 0.  1.
         21   -1    0    0  501  502  0.00000000000E+00 -0.00000000000E+00 -0.69763508353E+03  0.69763508353E+03  0.00000000000E+00 0. -1.
        -13    1    1    2    0    0  0.44200879632E+02  0.52152599705E+02  0.31582818043E+02  0.75306686130E+02  0.10566000000E+00 0.  1.
         13    1    1    2    0    0 -0.85690216442E+02  0.12553814212E+02 -0.33690602250E+03  0.34785929714E+03  0.10566000000E+00 0. -1.
          4    1    1    2  501    0  0.41489336810E+02 -0.64706413917E+02 -0.32896003555E+03  0.33782094379E+03  0.00000000000E+00 0.  1.
</event>
<event>
 5    1  0.4866530E-005  0.5079432E+03  0.7818608E-02  0.9460730E-01
         21   -1    0    0  501  502  0.00000000000E+00  0.00000000000E+00  0.77512945104E+03  0.77512945104E+03  0.00000000000E+00 0.  1.
          4   -1    0    0  502    0 -0.00000000000E+00 -0.00000000000E+00 -0.24027102757E+04  0.24027102757E+04  0.00000000000E+00 0.  1.
        -13    1    1    2    0    0 -0.64104770199E+03  0.27471235063E+03  0.66077044003E+02  0.70055350883E+03  0.10566000000E+00 0.  1.
         13    1    1    2    0    0  0.49387518439E+03  0.80947845125E+02 -0.19510715881E+04  0.20142357371E+04  0.10566000000E+00 0. -1.
          4    1    1    2  501    0  0.14717251761E+03 -0.35566019576E+03  0.25741371949E+03  0.46305048080E+03  0.00000000000E+00 0.  1.
</event>
<event>
 5    1  0.4866530E-005  0.2587361E+03  0.7818608E-02  0.1054053E+00
          4   -1    0    0  502    0 -0.00000000000E+00  0.00000000000E+00  0.70355677951E+03  0.70355677951E+03  0.00000000000E+00 0.  1.
         21   -1    0    0  501  502  0.00000000000E+00 -0.00000000000E+00 -0.11846848067E+04  0.11846848067E+04  0.00000000000E+00 0.  1.
        -13    1    1    2    0    0 -0.11014699323E+03  0.10619839882E+03  0.22022171216E+03  0.26815680804E+03  0.10566000000E+00 0.  1.
         13    1    1    2    0    0 -0.16669080811E+03 -0.38942375324E+03  0.31592259045E+03  0.52843521780E+03  0.10566000000E+00 0. -1.
          4    1    1    2  501    0  0.27683780134E+03  0.28322535442E+03 -0.10172723298E+04  0.10916495603E+04  0.00000000000E+00 0.  1.
</event>
<event>
 5    1  0.4866530E-005  0.4998787E+03  0.7818608E-02  0.9805718E-01
         -4   -1    0    0    0  501 -0.00000000000E+00  0.00000000000E+00  0.10541685133E+04  0.10541685133E+04  0.00000000000E+00 0. -1.
         21   -1    0    0  501  502  0.00000000000E+00 -0.00000000000E+00 -0.33453328243E+03  0.33453328243E+03  0.00000000000E+00 0. -1.
        -13    1    1    2    0    0  0.12523009438E+03 -0.95482949139E+02  0.81233792291E+02  0.17719624795E+03  0.10566000000E+00 0.  1.
         13    1    1    2    0    0 -0.88580929366E+02  0.55630195242E+03  0.40394935585E+03  0.69317641086E+03  0.10566000000E+00 0. -1.
         -4    1    1    2    0  502 -0.36649165012E+02 -0.46081900328E+03  0.23445208273E+03  0.51832913691E+03  0.00000000000E+00 0. -1.
</event>
<event>
 5    1  0.4866530E-005  0.4479063E+03  0.7818608E-02  0.9683512E-01
         21   -1    0    0  501  502  0.00000000000E+00  0.00000000000E+00  0.23640491739E+03  0.23640491739E+03  0.00000000000E+00 0.  1.
          4   -1    0    0  502    0 -0.00000000000E+00 -0.00000000000E+00 -0.23731893323E+04  0.23731893323E+04  0.00000000000E+00 0.  1.
        -13    1    1    2    0    0 -0.57188712521E+03  0.84642657496E+02 -0.89159440959E+03  0.10626193419E+04  0.10566000000E+00 0.  1.
         13    1    1    2    0    0  0.26198329609E+03  0.20682143883E+03 -0.10037829982E+04  0.10578235551E+04  0.10566000000E+00 0. -1.
          4    1    1    2  501    0  0.30990382912E+03 -0.29146409633E+03 -0.24140700705E+03  0.48915135265E+03  0.00000000000E+00 0.  1.
</event>
<event>
 5    1  0.4866530E-005  0.3647382E+03  0.7818608E-02  0.1012777E+00
         21   -1    0    0  501  502  0.00000000000E+00  0.00000000000E+00  0.15105623159E+04  0.15105623159E+04  0.00000000000E+00 0. -1.
         -4   -1    0    0    0  501 -0.00000000000E+00 -0.00000000000E+00 -0.26834974876E+03  0.26834974876E+03  0.00000000000E+00 0. -1.
        -13    1    1    2    0    0 -0.13807915829E+03 -0.23227815755E+02 -0.69790347618E+02  0.15644835942E+03  0.10566000000E+00 0.  1.
         13    1    1    2    0    0  0.38033828199E+03 -0.22899450492E+03  0.26142823226E+03  0.51520910689E+03  0.10566000000E+00 0. -1.
         -4    1    1    2    0  502 -0.24225912370E+03  0.25222232068E+03  0.10505746825E+04  0.11072545984E+04  0.00000000000E+00 0. -1.
</event>
<event>
 5    1  0.4866530E-005  0.3058119E+02  0.7818608E-02  0.1408642E+00
         -4   -1    0    0    0  501 -0.00000000000E+00  0.00000000000E+00  0.25963680755E+02  0.25963680755E+02  0.00000000000E+00 0. -1.
         21   -1    0    0  501  502  0.00000000000E+00 -0.00000000000E+00 -0.52215339665E+03  0.52215339665E+03  0.00000000000E+00 0.  1.
        -13    1    1    2    0    0 -0.11488564497E+02  0.24017258852E+02 -0.14172840139E+03  0.14420737416E+03  0.10566000000E+00 0.  1.
         13    1    1    2    0    0  0.28771054302E+02  0.16307738874E+01  0.15456770469E+02  0.32701007729E+02  0.10566000000E+00 0. -1.
         -4    1    1    2    0  502 -0.17282489805E+02 -0.25648032740E+02 -0.36991808497E+03  0.37120869551E+03  0.00000000000E+00 0. -1.
</event>
<event>
 5    1  0.4866530E-005  0.5006654E+03  0.7818608E-02  0.9825429E-01
         21   -1    0    0  501  502  0.00000000000E+00  0.00000000000E+00  0.74641014339E+03  0.74641014339E+03  0.00000000000E+00 0.  1.
          4   -1    0    0  502    0 -0.00000000000E+00 -0.00000000000E+00 -0.65219151592E+03  0.65219151592E+03  0.00000000000E+00 0.  1.
        -13    1    1    2    0    0 -0.20060507894E+03  0.43150230400E+03  0.19225235262E+03  0.51322277259E+03  0.10566000000E+00 0.  1.
         13    1    1    2    0    0 -0.14559007206E+03 -0.16905322495E+02 -0.27948378253E+03  0.31558430708E+03  0.10566000000E+00 0. -1.
          4    1    1    2  501    0  0.34619515101E+03 -0.41459698151E+03  0.18145005738E+03  0.56979457963E+03  0.00000000000E+00 0.  1.
</event>
<event>
 5    1  0.4866530E-005  0.4833288E+03  0.7818608E-02  0.9612330E-01
          4   -1    0    0  502    0 -0.00000000000E+00  0.00000000000E+00  0.12984370371E+04  0.12984370371E+04  0.00000000000E+00 0.  1.
         21   -1    0    0  501  502  0.00000000000E+00 -0.00000000000E+00 -0.50133787106E+03  0.50133787106E+03  0.00000000000E+00 0.  1.
        -13    1    1    2    0    0 -0.18298732548E+03 -0.53694118777E+03 -0.12413018206E+03  0.58068796584E+03  0.10566000000E+00 0.  1.
         13    1    1    2    0    0  0.30426956165E+03  0.15463754169E+03  0.65227773354E+03  0.73617863884E+03  0.10566000000E+00 0. -1.
          4    1    1    2  501    0 -0.12128223617E+03  0.38230364608E+03  0.26895161461E+03  0.48290830353E+03  0.00000000000E+00 0.  1.
</event>
<event>
 5    1  0.4866530E-005  0.9919429E+02  0.7818608E-02  0.1165896E+00
         21   -1    0    0  501  502  0.00000000000E+00  0.00000000000E+00  0.12433199012E+03  0.12433199012E+03  0.00000000000E+00 0. -1.
         -4   -1    0    0    0  501 -0.00000000000E+00 -0.00000000000E+00 -0.32276894439E+03  0.32276894439E+03  0.00000000000E+00 0. -1.
        -13    1    1    2    0    0  0.70952640504E+02 -0.67429503649E+02 -0.69442861776E+02  0.12001390491E+03  0.10566000000E+00 0.  1.
         13    1    1    2    0    0 -0.64252159581E+02  0.76564503011E+02 -0.21670621808E+03  0.23864630576E+03  0.10566000000E+00 0. -1.
         -4    1    1    2    0  502 -0.67004809230E+01 -0.91349993621E+01  0.87712125587E+02  0.88440723838E+02  0.00000000000E+00 0. -1.
</event>
<event>
 5    1  0.4866530E-005  0.4195711E+03  0.7818608E-02  0.9725966E-01
          4   -1    0    0  502    0 -0.00000000000E+00  0.00000000000E+00  0.29008238422E+04  0.29008238422E+04  0.00000000000E+00 0.  1.
         21   -1    0    0  501  502  0.00000000000E+00 -0.00000000000E+00 -0.38478757339E+03  0.38478757339E+03  0.00000000000E+00 0.  1.
        -13    1    1    2    0    0 -0.26605842023E+03 -0.15016515500E+03 -0.60928449589E+01  0.30557125303E+03  0.10566000000E+00 0.  1.
         13    1    1    2    0    0 -0.32241919851E+03 -0.32693971610E+03  0.20191126338E+04  0.20706664523E+04  0.10566000000E+00 0. -1.
          4    1    1    2  501    0  0.58847761874E+03  0.47710487110E+03  0.50301647994E+03  0.90937371024E+03  0.00000000000E+00 0.  1.
</event>
<event>
 5    1  0.4866530E-005  0.1845147E+03  0.7818608E-02  0.1092645E+00
         -4   -1    0    0    0  501 -0.00000000000E+00  0.00000000000E+00  0.27602653752E+04  0.27602653752E+04  0.00000000000E+00 0. -1.
         21   -1    0    0  501  502  0.00000000000E+00 -0.00000000000E+00 -0.22619254129E+02  0.22619254129E+02  0.00000000000E+00 0. -1.
        -13    1    1    2    0    0 -0.17560575685E+02  0.99972889746E+02  0.34330028802E+03  0.35799169183E+03  0.10566000000E+00 0.  1.
         13    1    1    2    0    0 -0.10923377333E+03 -0.19493585389E+03  0.12830207013E+04  0.13023341105E+04  0.10566000000E+00 0. -1.
         -4    1    1    2    0  502  0.12679434901E+03  0.94962964142E+02  0.11113251317E+04  0.11225588269E+04  0.00000000000E+00 0. -1.
</event>
<event>
 5    1  0.4866530E-005  0.3962409E+03  0.7818608E-02  0.9739965E-01
         -4   -1    0    0    0  501 -0.00000000000E+00  0.00000000000E+00  0.56466574709E+03  0.56466574709E+03  0.00000000000E+00 0. -1.
         21   -1    0    0  501  502  0.00000000000E+00 -0.00000000000E+00 -0.96809062189E+03  0.96809062189E+03  0.00000000000E+00 0. -1.
        -13    1    1    2    0    0 -0.17695676798E+03  0.36450696006E+03 -0.10113935600E+02  0.40531632650E+03  0.10566000000E+00 0.  1.
         13    1    1    2    0    0 -0.71919516553E+02 -0.42170550219E+03 -0.64168300662E+03  0.77121011377E+03  0.10566000000E+00 0. -1.
         -4    1    1    2    0  502  0.24887628454E+03  0.57198542130E+02  0.24837206742E+03  0.35622992870E+03  0.00000000000E+00 0. -1.
</event>
<event>
 5    1  0.4866530E-005  0.6593549E+02  0.7818608E-02  0.1237813E+00
          4   -1    0    0  502    0 -0.00000000000E+00  0.00000000000E+00  0.11737618470E+03  0.11737618470E+03  0.00000000000E+00 0.  1.
         21   -1    0    0  501  502  0.00000000000E+00 -0.00000000000E+00 -0.15808916432E+03  0.15808916432E+03  0.00000000000E+00 0. -1.
        -13    1    1    2    0    0 -0.40151845049E+02 -0.54146658674E+02  0.88655145757E+02  0.11137224672E+03  0.10566000000E+00 0.  1.
         13    1    1    2    0    0  0.26405715070E+02  0.53724850113E+02 -0.36289564348E+02  0.70004035259E+02  0.10566000000E+00 0. -1.
          4    1    1    2  501    0  0.13746129979E+02  0.42180856084E+00 -0.93078561034E+02  0.94089067037E+02  0.00000000000E+00 0.  1.
</event>
<event>
 5    1  0.4866530E-005  0.6254721E+02  0.7818608E-02  0.1247754E+00
          4   -1    0    0  502    0 -0.00000000000E+00  0.00000000000E+00  0.37942364309E+03  0.37942364309E+03  0.00000000000E+00 0.  1.
         21   -1    0    0  501  502  0.00000000000E+00 -0.00000000000E+00 -0.53457127731E+02  0.53457127731E+02  0.00000000000E+00 0.  1.
        -13    1    1    2    0    0 -0.92266490908E+01  0.61592240999E+02  0.32527968409E+03  0.33118819310E+03  0.10566000000E+00 0.  1.
         13    1    1    2    0    0  0.24133034997E+02 -0.61449578491E+02  0.27098987411E+02  0.71363999030E+02  0.10566000000E+00 0. -1.
          4    1    1    2  501    0 -0.14906385906E+02 -0.14266250831E+00 -0.26412156141E+02  0.30328578690E+02  0.00000000000E+00 0.  1.
</event>
<event>
 5    1  0.4866530E-005  0.1151086E+03  0.7818608E-02  0.1141725E+00
         21   -1    0    0  501  502  0.00000000000E+00  0.00000000000E+00  0.18911059928E+03  0.18911059928E+03  0.00000000000E+00 0. -1.
          4   -1    0    0  502    0 -0.00000000000E+00 -0.00000000000E+00 -0.94670929525E+02  0.94670929525E+02  0.00000000000E+00 0.  1.
        -13    1    1    2    0    0 -0.12041556957E+03  0.27292640533E+02  0.60568254857E+02  0.13752571498E+03  0.10566000000E+00 0.  1.
         13    1    1    2    0    0  0.11054121882E+03 -0.63705357388E+01  0.72144344639E+01  0.11095947014E+03  0.10566000000E+00 0. -1.
          4    1    1    2  501    0  0.98743507416E+01 -0.20922104795E+02  0.26656980437E+02  0.35296343687E+02  0.00000000000E+00 0.  1.
</event>
<event>
 5    1  0.4866530E-005  0.2825066E+03  0.7818608E-02  0.1014799E+00
          4   -1    0    0  502    0 -0.00000000000E+00  0.00000000000E+00  0.28877907929E+03  0.28877907929E+03  0.00000000000E+00 0.  1.
         21   -1    0    0  501  502  0.00000000000E+00 -0.00000000000E+00 -0.16889461247E+04  0.16889461247E+04  0.00000000000E+00 0.  1.
        -13    1    1    2    0    0 -0.29441719206E+03  0.34458708747E+02  0.27538723448E+02  0.29770333899E+03  0.10566000000E+00 0.  1.
         13    1    1    2    0    0  0.25840676351E+03  0.14890043883E+03 -0.65868450754E+02  0.30542439339E+03  0.10566000000E+00 0. -1.
          4    1    1    2  501    0  0.36010428553E+02 -0.18335914758E+03 -0.13618373181E+04  0.13745974716E+04  0.00000000000E+00 0.  1.
</event>
<event>
 5    1  0.4866530E-005  0.4988318E+03  0.7818608E-02  0.9977839E-01
         21   -1    0    0  501  502  0.00000000000E+00  0.00000000000E+00  0.76504898580E+03  0.76504898580E+03  0.00000000000E+00 0.  1.
          4   -1    0    0  502    0 -0.00000000000E+00 -0.00000000000E+00 -0.49377651026E+03  0.49377651026E+03  0.00000000000E+00 0.  1.
        -13    1    1    2    0    0 -0.46149070605E+03  0.15826468102E+03  0.27313127692E+03  0.55912618131E+03  0.10566000000E+00 0.  1.
         13    1    1    2    0    0 -0.49812906897E+02 -0.73770402388E+02 -0.13768905312E+03  0.16395634930E+03  0.10566000000E+00 0. -1.
          4    1    1    2  501    0  0.51130361295E+03 -0.84494278632E+02  0.13583025174E+03  0.53574296545E+03  0.00000000000E+00 0.  1.
</event>
<event>
 5    1  0.4866530E-005  0.3674622E+03  0.7818608E-02  0.9974785E-01
         21   -1    0    0  501  502  0.00000000000E+00  0.00000000000E+00  0.27243421953E+03  0.27243421953E+03  0.00000000000E+00 0.  1.
          4   -1    0    0  502    0 -0.00000000000E+00 -0.00000000000E+00 -0.17536540979E+04  0.17536540979E+04  0.00000000000E+00 0.  1.
        -13    1    1    2    0    0  0.17405728739E+03  0.75096869301E+02 -0.78587717077E+03  0.80841723001E+03  0.10566000000E+00 0.  1.
         13    1    1    2    0    0  0.22492904328E+03 -0.74498406420E+00 -0.77247069748E+03  0.80455243406E+03  0.10566000000E+00 0. -1.
          4    1    1    2  501    0 -0.39898633067E+03 -0.74351885236E+02  0.77127989919E+02  0.41311865333E+03  0.00000000000E+00 0.  1.
</event>
<event>
 5    1  0.4866530E-005  0.4077632E+03  0.7818608E-02  0.1007557E+00
         21   -1    0    0  501  502  0.00000000000E+00  0.00000000000E+00  0.83905505518E+03  0.83905505518E+03  0.00000000000E+00 0. -1.
         -4   -1    0    0    0  501 -0.00000000000E+00 -0.00000000000E+00 -0.65510048273E+03  0.65510048273E+03  0.00000000000E+00 0. -1.
        -13    1    1    2    0    0 -0.11846971126E+03  0.28243734457E+01 -0.32491185367E+03  0.34584790500E+03  0.10566000000E+00 0.  1.
         13    1    1    2    0    0  0.78190264772E+02  0.40515368885E+03 -0.90220825300E+02  0.42237783745E+03  0.10566000000E+00 0. -1.
         -4    1    1    2    0  502  0.40279446486E+02 -0.40797806229E+03  0.59908725142E+03  0.72592979546E+03  0.00000000000E+00 0. -1.
</event>
<event>
 5    1  0.4866530E-005  0.2242874E+03  0.7818608E-02  0.1044651E+00
         21   -1    0    0  501  502  0.00000000000E+00  0.00000000000E+00  0.14195479688E+03  0.14195479688E+03  0.00000000000E+00 0. -1.
          4   -1    0    0  502    0 -0.00000000000E+00 -0.00000000000E+00 -0.76378679499E+03  0.76378679499E+03  0.00000000000E+00 0.  1.
        -13    1    1    2    0    0  0.22274587368E+03  0.13722214312E+02 -0.59602389768E+03  0.63643422376E+03  0.10566000000E+00 0.  1.
         13    1    1    2    0    0 -0.22713772345E+03 -0.41531661461E+02 -0.44982192372E+02  0.23524419889E+03  0.10566000000E+00 0. -1.
          4    1    1    2  501    0  0.43918497756E+01  0.27809447149E+02  0.19174091948E+02  0.34063169218E+02  0.00000000000E+00 0.  1.
</event>
<event>
 5    1  0.4866530E-005  0.4969938E+03  0.7818608E-02  0.9906839E-01
         21   -1    0    0  501  502  0.00000000000E+00  0.00000000000E+00  0.61651383628E+03  0.61651383628E+03  0.00000000000E+00 0. -1.
         -4   -1    0    0    0  501 -0.00000000000E+00 -0.00000000000E+00 -0.51474892552E+03  0.51474892552E+03  0.00000000000E+00 0. -1.
        -13    1    1    2    0    0 -0.77309655472E+02  0.83646733270E+02  0.29653834149E+02  0.11769842760E+03  0.10566000000E+00 0.  1.
         13    1    1    2    0    0  0.45304065685E+03 -0.30151606480E+03  0.16648744193E+03  0.56910091686E+03  0.10566000000E+00 0. -1.
         -4    1    1    2    0  502 -0.37573100137E+03  0.21786933153E+03 -0.94376365321E+02  0.44446341733E+03  0.00000000000E+00 0. -1.
</event>
<event>
 5    1  0.4866530E-005  0.5991759E+03  0.7818608E-02  0.9283672E-01
         21   -1    0    0  501  502  0.00000000000E+00  0.00000000000E+00  0.39145448596E+03  0.39145448596E+03  0.00000000000E+00 0.  1.
          4   -1    0    0  502    0 -0.00000000000E+00 -0.00000000000E+00 -0.16461669236E+04  0.16461669236E+04  0.00000000000E+00 0.  1.
        -13    1    1    2    0    0  0.77036134116E+03 -0.12791930790E+03 -0.59772432120E+03  0.98340953860E+03  0.10566000000E+00 0.  1.
         13    1    1    2    0    0 -0.45500676489E+03  0.20430320372E+03 -0.42578659923E+03  0.65579356080E+03  0.10566000000E+00 0. -1.
          4    1    1    2  501    0 -0.31535457628E+03 -0.76383895813E+02 -0.23120151725E+03  0.39841831019E+03  0.00000000000E+00 0.  1.
</event>
<event>
 5    1  0.4866530E-005  0.4852583E+03  0.7818608E-02  0.9510881E-01
         21   -1    0    0  501  502  0.00000000000E+00  0.00000000000E+00  0.98161780940E+03  0.98161780940E+03  0.00000000000E+00 0.  1.
          4   -1    0    0  502    0 -0.00000000000E+00 -0.00000000000E+00 -0.10040382269E+04  0.10040382269E+04  0.00000000000E+00 0.  1.
        -13    1    1    2    0    0  0.10762029222E+03  0.43997456513E+03  0.81884152030E+03  0.93576770183E+03  0.10566000000E+00 0.  1.
         13    1    1    2    0    0  0.19730216744E+00 -0.48991181399E+03 -0.55702719110E+03  0.74181731390E+03  0.10566000000E+00 0. -1.
          4    1    1    2  501    0 -0.10781759439E+03  0.49937248866E+02 -0.28423474669E+03  0.30807102056E+03  0.00000000000E+00 0.  1.
</event>
<event>
 5    1  0.4866530E-005  0.4097254E+03  0.7818608E-02  0.9923648E-01
         21   -1    0    0  501  502  0.00000000000E+00  0.00000000000E+00  0.26788091822E+04  0.26788091822E+04  0.00000000000E+00 0.  1.
          4   -1    0    0  502    0 -0.00000000000E+00 -0.00000000000E+00 -0.17425593319E+03  0.17425593319E+03  0.00000000000E+00 0.  1.
        -13    1    1    2    0    0 -0.30385067154E+03 -0.13749716527E+02  0.21372806811E+03  0.37174451383E+03  0.10566000000E+00 0.  1.
         13    1    1    2    0    0 -0.11735200563E+03  0.15221802856E+03  0.52137044061E+02  0.19914844707E+03  0.10566000000E+00 0. -1.
          4    1    1    2  501    0  0.42120267717E+03 -0.13846831203E+03  0.22386881369E+04  0.22821721545E+04  0.00000000000E+00 0.  1.
</event>
<event>
 5    1  0.4866530E-005  0.4913645E+03  0.7818608E-02  0.9542800E-01
         -4   -1    0    0    0  501 -0.00000000000E+00  0.00000000000E+00  0.85277547630E+03  0.85277547630E+03  0.00000000000E+00 0. -1.
         21   -1    0    0  501  502  0.00000000000E+00 -0.00000000000E+00 -0.10507879804E+04  0.10507879804E+04  0.00000000000E+00 0. -1.
        -13    1    1    2    0    0 -0.76930481457E+02 -0.40931748255E+03  0.44443801546E+03  0.60908477345E+03  0.10566000000E+00 0.  1.
         13    1    1    2    0    0  0.49175503922E+03 -0.19381972258E+02 -0.45217194653E+03  0.66832489093E+03  0.10566000000E+00 0. -1.
         -4    1    1    2    0  502 -0.41482455776E+03  0.42869945481E+03 -0.19027857302E+03  0.62615379232E+03  0.00000000000E+00 0. -1.
</event>
<event>
 5    1  0.4866530E-005  0.6801769E+02  0.7818608E-02  0.1232027E+00
          4   -1    0    0  502    0 -0.00000000000E+00  0.00000000000E+00  0.22918981445E+02  0.22918981445E+02  0.00000000000E+00 0.  1.
         21   -1    0    0  501  502  0.00000000000E+00 -0.00000000000E+00 -0.46306052492E+03  0.46306052492E+03  0.00000000000E+00 0. -1.
        -13    1    1    2    0    0 -0.67985322168E+02  0.51042992003E+01 -0.44035948823E+02  0.81161775815E+02  0.10566000000E+00 0.  1.
         13    1    1    2    0    0  0.66172517208E+02 -0.15593754863E+02 -0.27633995635E+03  0.28457995338E+03  0.10566000000E+00 0. -1.
          4    1    1    2  501    0  0.18128049605E+01  0.10489455663E+02 -0.11976563830E+03  0.12023777717E+03  0.00000000000E+00 0.  1.
</event>
<event>
 5    1  0.4866530E-005  0.4968644E+03  0.7818608E-02  0.9513051E-01
         21   -1    0    0  501  502  0.00000000000E+00  0.00000000000E+00  0.21104555488E+04  0.21104555488E+04  0.00000000000E+00 0.  1.
          4   -1    0    0  502    0 -0.00000000000E+00 -0.00000000000E+00 -0.60669034981E+03  0.60669034981E+03  0.00000000000E+00 0.  1.
        -13    1    1    2    0    0  0.43272769685E+03  0.29018117273E+02  0.73585324610E+03  0.85415181420E+03  0.10566000000E+00 0.  1.
         13    1    1    2    0    0  0.12081507354E+03 -0.43192211086E+03 -0.33848644184E+03  0.56189507411E+03  0.10566000000E+00 0. -1.
          4    1    1    2  501    0 -0.55354277039E+03  0.40290399358E+03  0.11063983947E+04  0.13010990102E+04  0.00000000000E+00 0.  1.
</event>
<event>
 5    1  0.4866530E-005  0.3390365E+03  0.7818608E-02  0.9923822E-01
         -4   -1    0    0    0  501 -0.00000000000E+00  0.00000000000E+00  0.20189402794E+04  0.20189402794E+04  0.00000000000E+00 0. -1.
         21   -1    0    0  501  502  0.00000000000E+00 -0.00000000000E+00 -0.73909468800E+02  0.73909468800E+02  0.00000000000E+00 0. -1.
        -13    1    1    2    0    0  0.29786140345E+03  0.10288901917E+03  0.94161032477E+03  0.99294389610E+03  0.10566000000E+00 0.  1.
         13    1    1    2    0    0 -0.34018913032E+03 -0.15655987055E+03  0.91089624172E+03  0.98487136815E+03  0.10566000000E+00 0. -1.
         -4    1    1    2    0  502  0.42327726875E+02  0.53670851374E+02  0.92524244118E+02  0.11503448396E+03  0.00000000000E+00 0. -1.
</event>
<event>
 5    1  0.4866530E-005  0.4739384E+03  0.7818608E-02  0.9698384E-01
          4   -1    0    0  502    0 -0.00000000000E+00  0.00000000000E+00  0.29210595878E+04  0.29210595878E+04  0.00000000000E+00 0.  1.
         21   -1    0    0  501  502  0.00000000000E+00 -0.00000000000E+00 -0.15145564995E+03  0.15145564995E+03  0.00000000000E+00 0.  1.
        -13    1    1    2    0    0  0.16165874735E+03  0.61769104267E+03  0.12684919497E+04  0.14201223934E+04  0.10566000000E+00 0.  1.
         13    1    1    2    0    0  0.15061522071E+02 -0.26707552245E+03  0.85963031524E+03  0.90028910589E+03  0.10566000000E+00 0. -1.
          4    1    1    2  501    0 -0.17672026942E+03 -0.35061552022E+03  0.64148167298E+03  0.75210373847E+03  0.00000000000E+00 0.  1.
</event>
<event>
 5    1  0.4866530E-005  0.4806758E+03  0.7818608E-02  0.9821646E-01
         21   -1    0    0  501  502  0.00000000000E+00  0.00000000000E+00  0.69742945347E+03  0.69742945347E+03  0.00000000000E+00 0. -1.
         -4   -1    0    0    0  501 -0.00000000000E+00 -0.00000000000E+00 -0.13567135140E+04  0.13567135140E+04  0.00000000000E+00 0. -1.
        -13    1    1    2    0    0 -0.18650978665E+01 -0.16775772085E+03 -0.98185489289E+03  0.99608492277E+03  0.10566000000E+00 0.  1.
         13    1    1    2    0    0 -0.46355179143E+03  0.22790170452E+03  0.59223185356E+02  0.51992965592E+03  0.10566000000E+00 0. -1.
         -4    1    1    2    0  502  0.46541688929E+03 -0.60143983664E+02  0.26334764702E+03  0.53812838877E+03  0.00000000000E+00 0. -1.
</event>
<event>
 5    1  0.4866530E-005  0.4971745E+03  0.7818608E-02  0.9849162E-01
         21   -1    0    0  501  502  0.00000000000E+00  0.00000000000E+00  0.24062906600E+03  0.24062906600E+03  0.00000000000E+00 0. -1.
         -4   -1    0    0    0  501 -0.00000000000E+00 -0.00000000000E+00 -0.17238393205E+04  0.17238393205E+04  0.00000000000E+00 0. -1.
        -13    1    1    2    0    0 -0.13748891287E+03  0.13106459248E+02  0.34906561990E+02  0.14245511458E+03  0.10566000000E+00 0.  1.
         13    1    1    2    0    0 -0.41144215857E+03 -0.15499522866E+03 -0.70051681291E+03  0.82706226313E+03  0.10566000000E+00 0. -1.
         -4    1    1    2    0  502  0.54893107143E+03  0.14188876941E+03 -0.81760000360E+03  0.99495100882E+03  0.00000000000E+00 0. -1.
</event>
<event>
 5    1  0.4866530E-005  0.5160522E+03  0.7818608E-02  0.9443466E-01
         -4   -1    0    0    0  501 -0.00000000000E+00  0.00000000000E+00  0.19885304907E+04  0.19885304907E+04  0.00000000000E+00 0. -1.
         21   -1    0    0  501  502  0.00000000000E+00 -0.00000000000E+00 -0.39901045058E+03  0.39901045058E+03  0.00000000000E+00 0. -1.
        -13    1    1    2    0    0 -0.46518087938E+02 -0.52302313436E+03  0.94905666808E+03  0.10846315974E+04  0.10566000000E+00 0.  1.
         13    1    1    2    0    0  0.24313937406E+02  0.47168235649E+03 -0.16137933550E+03  0.49911793603E+03  0.10566000000E+00 0. -1.
         -4    1    1    2    0  502  0.22204150532E+02  0.51340777875E+02  0.80184270750E+03  0.80379140785E+03  0.00000000000E+00 0. -1.
</event>
<event>
 5    1  0.4866530E-005  0.1126415E+03  0.7818608E-02  0.1183006E+00
         21   -1    0    0  501  502  0.00000000000E+00  0.00000000000E+00  0.69133651230E+03  0.69133651230E+03  0.00000000000E+00 0. -1.
         -4   -1    0    0    0  501 -0.00000000000E+00 -0.00000000000E+00 -0.27883819164E+02  0.27883819164E+02  0.00000000000E+00 0. -1.
        -13    1    1    2    0    0  0.44026929370E+02  0.97918410520E+01  0.78532693378E+02  0.90562938082E+02  0.10566000000E+00 0.  1.
         13    1    1    2    0    0 -0.13204107694E+03  0.10064201643E+02  0.42364147189E+03  0.44385610509E+03  0.10566000000E+00 0. -1.
         -4    1    1    2    0  502  0.88014147571E+02 -0.19856042695E+02  0.16127852787E+03  0.18480128830E+03  0.00000000000E+00 0. -1.
</event>
<event>
 5    1  0.4866530E-005  0.1717360E+03  0.7818608E-02  0.1088845E+00
          4   -1    0    0  502    0 -0.00000000000E+00  0.00000000000E+00  0.72847940686E+02  0.72847940686E+02  0.00000000000E+00 0.  1.
         21   -1    0    0  501  502  0.00000000000E+00 -0.00000000000E+00 -0.13247162334E+04  0.13247162334E+04  0.00000000000E+00 0.  1.
        -13    1    1    2    0    0  0.16132049131E+03  0.29862026225E+02 -0.16212835125E+03  0.23065483947E+03  0.10566000000E+00 0.  1.
         13    1    1    2    0    0 -0.12287861356E+02 -0.13924823351E+03 -0.13464866730E+03  0.19409105297E+03  0.10566000000E+00 0. -1.
          4    1    1    2  501    0 -0.14903262995E+03  0.10938620728E+03 -0.95509127419E+03  0.97281828167E+03  0.00000000000E+00 0.  1.
</event>
<event>
 5    1  0.4866530E-005  0.1622949E+03  0.7818608E-02  0.1089581E+00
         -4   -1    0    0    0  501 -0.00000000000E+00  0.00000000000E+00  0.31911993777E+03  0.31911993777E+03  0.00000000000E+00 0. -1.
         21   -1    0    0  501  502  0.00000000000E+00 -0.00000000000E+00 -0.22048157621E+03  0.22048157621E+03  0.00000000000E+00 0.  1.
        -13    1    1    2    0    0  0.48460881453E+02 -0.14863321171E+03 -0.61780045089E+02  0.16809840508E+03  0.10566000000E+00 0.  1.
         13    1    1    2    0    0 -0.33713569465E+02  0.16026552131E+03  0.23954468847E+03  0.29017806778E+03  0.10566000000E+00 0. -1.
         -4    1    1    2    0  502 -0.14747311988E+02 -0.11632309600E+02 -0.79126281816E+02  0.81325041110E+02  0.00000000000E+00 0. -1.
</event>
<event>
 5    1  0.4866530E-005  0.4368179E+03  0.7818608E-02  0.1018038E+00
         -4   -1    0    0    0  501 -0.00000000000E+00  0.00000000000E+00  0.20065691281E+03  0.20065691281E+03  0.00000000000E+00 0. -1.
         21   -1    0    0  501  502  0.00000000000E+00 -0.00000000000E+00 -0.17015617244E+04  0.17015617244E+04  0.00000000000E+00 0. -1.
        -13    1    1    2    0    0  0.31126872237E+02  0.61530474412E+02  0.14846932730E+02  0.70535976864E+02  0.10566000000E+00 0.  1.
         13    1    1    2    0    0 -0.19757046205E+03  0.35383427604E+03 -0.22059701535E+03  0.46140636832E+03  0.10566000000E+00 0. -1.
         -4    1    1    2    0  502  0.16644358982E+03 -0.41536475045E+03 -0.12951547289E+04  0.13702762920E+04  0.00000000000E+00 0. -1.
</event>
<event>
 5    1  0.4866530E-005  0.9824869E+02  0.7818608E-02  0.1167486E+00
          4   -1    0    0  502    0 -0.00000000000E+00  0.00000000000E+00  0.12344337488E+03  0.12344337488E+03  0.00000000000E+00 0.  1.
         21   -1    0    0  501  502  0.00000000000E+00 -0.00000000000E+00 -0.10833813421E+03  0.10833813421E+03  0.00000000000E+00 0. -1.
        -13    1    1    2    0    0  0.19292491982E+02 -0.91859921918E+02 -0.91590046188E+01  0.94309829982E+02  0.10566000000E+00 0.  1.
         13    1    1    2    0    0 -0.10030845716E+02  0.10070672659E+03  0.46837599898E+02  0.11151786662E+03  0.10566000000E+00 0. -1.
          4    1    1    2  501    0 -0.92616462656E+01 -0.88468046763E+01 -0.22573354603E+02  0.25953812486E+02  0.00000000000E+00 0.  1.
</event>
<event>
 5    1  0.4866530E-005  0.4313781E+03  0.7818608E-02  0.9974365E-01
         -4   -1    0    0    0  501 -0.00000000000E+00  0.00000000000E+00  0.12189401381E+04  0.12189401381E+04  0.00000000000E+00 0. -1.
         21   -1    0    0  501  502  0.00000000000E+00 -0.00000000000E+00 -0.27763733031E+03  0.27763733031E+03  0.00000000000E+00 0. -1.
        -13    1    1    2    0    0  0.75201191262E+02 -0.11716665654E+03  0.21488019893E+03  0.25604053513E+03  0.10566000000E+00 0.  1.
         13    1    1    2    0    0  0.41117571556E+03  0.63853687868E+02  0.70204414652E+02  0.42198511054E+03  0.10566000000E+00 0. -1.
         -4    1    1    2    0  502 -0.48637690682E+03  0.53312968676E+02  0.65621819423E+03  0.81855182277E+03  0.00000000000E+00 0. -1.
</event>
<event>
 5    1  0.4866530E-005  0.4223243E+03  0.7818608E-02  0.9810704E-01
         21   -1    0    0  501  502  0.00000000000E+00  0.00000000000E+00  0.94597331455E+03  0.94597331455E+03  0.00000000000E+00 0.  1.
          4   -1    0    0  502    0 -0.00000000000E+00 -0.00000000000E+00 -0.56238823706E+03  0.56238823706E+03  0.00000000000E+00 0.  1.
        -13    1    1    2    0    0 -0.99878917501E+02  0.41101476931E+03  0.56617828795E+03  0.70672965387E+03  0.10566000000E+00 0.  1.
         13    1    1    2    0    0  0.25360692933E+03  0.40004834771E+02 -0.19902426767E+03  0.32485001415E+03  0.10566000000E+00 0. -1.
          4    1    1    2  501    0 -0.15372801183E+03 -0.45101960408E+03  0.16431057214E+02  0.47678188359E+03  0.00000000000E+00 0.  1.
</event>
<event>
 5    1  0.4866530E-005  0.1429874E+03  0.7818608E-02  0.1108241E+00
          4   -1    0    0  502    0 -0.00000000000E+00  0.00000000000E+00  0.68617854986E+02  0.68617854986E+02  0.00000000000E+00 0.  1.
         21   -1    0    0  501  502  0.00000000000E+00 -0.00000000000E+00 -0.67063189157E+03  0.67063189157E+03  0.00000000000E+00 0.  1.
        -13    1    1    2    0    0 -0.83223323786E+02 -0.13341294393E+03 -0.58251383495E+02  0.16768533052E+03  0.10566000000E+00 0.  1.
         13    1    1    2    0    0  0.48472853722E+02  0.99820968477E+02 -0.24554313630E+03  0.26945368107E+03  0.10566000000E+00 0. -1.
          4    1    1    2  501    0  0.34750470064E+02  0.33591975451E+02 -0.29821951678E+03  0.30211073495E+03  0.00000000000E+00 0.  1.
</event>
<event>
 5    1  0.4866530E-005  0.7891713E+03  0.7818608E-02  0.9002787E-01
         21   -1    0    0  501  502  0.00000000000E+00  0.00000000000E+00  0.35320683435E+03  0.35320683435E+03  0.00000000000E+00 0.  1.
         -4   -1    0    0    0  501 -0.00000000000E+00 -0.00000000000E+00 -0.30570385575E+04  0.30570385575E+04  0.00000000000E+00 0. -1.
        -13    1    1    2    0    0 -0.69749855686E+03  0.30778210368E+03 -0.15748701099E+04  0.17496999555E+04  0.10566000000E+00 0.  1.
         13    1    1    2    0    0  0.62742774874E+03 -0.60728543796E+03 -0.99845419744E+03  0.13264132006E+04  0.10566000000E+00 0. -1.
         -4    1    1    2    0  502  0.70070808125E+02  0.29950333428E+03 -0.13050741582E+03  0.33413223577E+03  0.00000000000E+00 0. -1.
</event>
<event>
 5    1  0.4866530E-005  0.3083520E+03  0.7818608E-02  0.1028781E+00
          4   -1    0    0  502    0 -0.00000000000E+00  0.00000000000E+00  0.26697334001E+04  0.26697334001E+04  0.00000000000E+00 0.  1.
         21   -1    0    0  501  502  0.00000000000E+00 -0.00000000000E+00 -0.13194469812E+03  0.13194469812E+03  0.00000000000E+00 0.  1.
        -13    1    1    2    0    0 -0.23716243964E+03 -0.36032012184E+03  0.18664530398E+04  0.19156522581E+04  0.10566000000E+00 0.  1.
         13    1    1    2    0    0  0.95418612405E+02  0.10250918455E+03  0.55039188388E+03  0.56792964486E+03  0.10566000000E+00 0. -1.
          4    1    1    2  501    0  0.14174382723E+03  0.25781093729E+03  0.12094377832E+03  0.31809619530E+03  0.00000000000E+00 0.  1.
</event>
<event>
 5    1  0.4866530E-005  0.3647566E+03  0.7818608E-02  0.1023053E+00
         -4   -1    0    0    0  501 -0.00000000000E+00  0.00000000000E+00  0.51952744349E+03  0.51952744349E+03  0.00000000000E+00 0. -1.
         21   -1    0    0  501  502  0.00000000000E+00 -0.00000000000E+00 -0.51605111668E+03  0.51605111668E+03  0.00000000000E+00 0. -1.
        -13    1    1    2    0    0 -0.10053756354E+03 -0.10953741689E+02  0.10339732546E+03  0.14463334407E+03  0.10566000000E+00 0.  1.
         13    1    1    2    0    0  0.85585166271E+02 -0.35614853254E+03  0.19940019397E+03  0.41704561673E+03  0.10566000000E+00 0. -1.
         -4    1    1    2    0  502  0.14952397271E+02  0.36710227423E+03 -0.29932119262E+03  0.47389959937E+03  0.00000000000E+00 0. -1.
</event>
<event>
 5    1  0.4866530E-005  0.2113594E+03  0.7818608E-02  0.1052616E+00
         21   -1    0    0  501  502  0.00000000000E+00  0.00000000000E+00  0.11374530184E+03  0.11374530184E+03  0.00000000000E+00 0. -1.
         -4   -1    0    0    0  501 -0.00000000000E+00 -0.00000000000E+00 -0.16785318089E+04  0.16785318089E+04  0.00000000000E+00 0. -1.
        -13    1    1    2    0    0 -0.21995464280E+02 -0.21867398373E+03 -0.47428195497E+03  0.52272889301E+03  0.10566000000E+00 0.  1.
         13    1    1    2    0    0  0.23407419392E+02  0.20685198478E+03 -0.11704007535E+04  0.11887697783E+04  0.10566000000E+00 0. -1.
         -4    1    1    2    0  502 -0.14119551116E+01  0.11821998953E+02  0.79896201400E+02  0.80778439417E+02  0.00000000000E+00 0. -1.
</event>
<event>
 5    1  0.4866530E-005  0.5664193E+03  0.7818608E-02  0.9343184E-01
         21   -1    0    0  501  502  0.00000000000E+00  0.00000000000E+00  0.18065311005E+03  0.18065311005E+03  0.00000000000E+00 0. -1.
          4   -1    0    0  502    0 -0.00000000000E+00 -0.00000000000E+00 -0.30461879125E+04  0.30461879125E+04  0.00000000000E+00 0.  1.
        -13    1    1    2    0    0  0.20001767811E+03 -0.51997908173E+03 -0.21590479974E+04  0.22297698498E+04  0.10566000000E+00 0.  1.
         13    1    1    2    0    0 -0.24868572791E+03  0.54080233652E+03 -0.72761744078E+03  0.94007388525E+03  0.10566000000E+00 0. -1.
          4    1    1    2  501    0  0.48668049805E+02 -0.20823254785E+02  0.21130635723E+02  0.56997287460E+02  0.00000000000E+00 0.  1.
</event>
<event>
 5    1  0.4866530E-005  0.4748930E+03  0.7818608E-02  0.1000134E+00
         21   -1    0    0  501  502  0.00000000000E+00  0.00000000000E+00  0.58818030030E+03  0.58818030030E+03  0.00000000000E+00 0.  1.
          4   -1    0    0  502    0 -0.00000000000E+00 -0.00000000000E+00 -0.54441242423E+03  0.54441242423E+03  0.00000000000E+00 0.  1.
        -13    1    1    2    0    0 -0.14430763920E+03 -0.48614350411E+03  0.26038620319E+03  0.57005367054E+03  0.10566000000E+00 0.  1.
         13    1    1    2    0    0  0.50483033674E+02  0.81068232051E+02 -0.80867931222E+02  0.12514083427E+03  0.10566000000E+00 0. -1.
          4    1    1    2  501    0  0.93824605527E+02  0.40507527206E+03 -0.13575039590E+03  0.43739821973E+03  0.00000000000E+00 0.  1.
</event>
<event>
 5    1  0.4866530E-005  0.1568727E+03  0.7818608E-02  0.1094525E+00
         -4   -1    0    0    0  501 -0.00000000000E+00  0.00000000000E+00  0.19224902886E+03  0.19224902886E+03  0.00000000000E+00 0. -1.
         21   -1    0    0  501  502  0.00000000000E+00 -0.00000000000E+00 -0.43402694612E+03  0.43402694612E+03  0.00000000000E+00 0.  1.
        -13    1    1    2    0    0  0.51338608221E+02  0.14150562509E+03 -0.16949193207E+03  0.22668705483E+03  0.10566000000E+00 0.  1.
         13    1    1    2    0    0 -0.33779769645E+02 -0.15467538814E+03  0.12460737343E+03  0.20147594698E+03  0.10566000000E+00 0. -1.
         -4    1    1    2    0  502 -0.17558838576E+02  0.13169763052E+02 -0.19689335862E+03  0.19811297317E+03  0.00000000000E+00 0. -1.
</event>
<event>
 5    1  0.4866530E-005  0.4818020E+02  0.7818608E-02  0.1315204E+00
         21   -1    0    0  501  502  0.00000000000E+00  0.00000000000E+00  0.22580484474E+03  0.22580484474E+03  0.00000000000E+00 0.  1.
         -4   -1    0    0    0  501 -0.00000000000E+00 -0.00000000000E+00 -0.63700065912E+02  0.63700065912E+02  0.00000000000E+00 0. -1.
        -13    1    1    2    0    0  0.30380008584E+02 -0.18496132457E+02  0.11492309049E+03  0.12030120419E+03  0.10566000000E+00 0.  1.
         13    1    1    2    0    0  0.20906635182E+02  0.18002609403E+02 -0.51253772208E+02  0.58207745786E+02  0.10566000000E+00 0. -1.
         -4    1    1    2    0  502 -0.51286643766E+02  0.49352305411E+00  0.98435460548E+02  0.11099596068E+03  0.00000000000E+00 0. -1.
</event>
<event>
 5    1  0.4866530E-005  0.5663691E+02  0.7818608E-02  0.1266898E+00
         -4   -1    0    0    0  501 -0.00000000000E+00  0.00000000000E+00  0.32747206132E+03  0.32747206132E+03  0.00000000000E+00 0. -1.
         21   -1    0    0  501  502  0.00000000000E+00 -0.00000000000E+00 -0.27020734588E+02  0.27020734588E+02  0.00000000000E+00 0.  1.
        -13    1    1    2    0    0  0.48575433539E+02  0.41266071642E+02  0.53794670651E+02  0.83404671133E+02  0.10566000000E+00 0.  1.
         13    1    1    2    0    0 -0.25830727189E+02 -0.49591559823E+02  0.23934249586E+03  0.24578728763E+03  0.10566000000E+00 0. -1.
         -4    1    1    2    0  502 -0.22744706349E+02  0.83254881809E+01  0.73141602192E+01  0.25300837142E+02  0.00000000000E+00 0. -1.
</event>
<event>
 5    1  0.4866530E-005  0.5093760E+03  0.7818608E-02  0.1024830E+00
         21   -1    0    0  501  502  0.00000000000E+00  0.00000000000E+00  0.35964862649E+03  0.35964862649E+03  0.00000000000E+00 0. -1.
         -4   -1    0    0    0  501 -0.00000000000E+00 -0.00000000000E+00 -0.84603311387E+03  0.84603311387E+03  0.00000000000E+00 0. -1.
        -13    1    1    2    0    0 -0.34080873692E+02 -0.85130171828E+01 -0.11586113251E+03  0.12106936278E+03  0.10566000000E+00 0.  1.
         13    1    1    2    0    0 -0.45301215797E+03 -0.19187726824E+03 -0.19882724562E+03  0.53063093210E+03  0.10566000000E+00 0. -1.
         -4    1    1    2    0  502  0.48709303167E+03  0.20039028543E+03 -0.17169610925E+03  0.55398144547E+03  0.00000000000E+00 0. -1.
</event>
<event>
 5    1  0.4866530E-005  0.2085688E+03  0.7818608E-02  0.1054415E+00
         21   -1    0    0  501  502  0.00000000000E+00  0.00000000000E+00  0.58428627266E+03  0.58428627266E+03  0.00000000000E+00 0.  1.
         -4   -1    0    0    0  501 -0.00000000000E+00 -0.00000000000E+00 -0.11631971630E+03  0.11631971630E+03  0.00000000000E+00 0. -1.
        -13    1    1    2    0    0 -0.22632346428E+03 -0.44363760107E+02  0.33620287695E+03  0.40770435285E+03  0.10566000000E+00 0.  1.
         13    1    1    2    0    0  0.19752395007E+03  0.36611349697E+02  0.51657857905E+02  0.20742383476E+03  0.10566000000E+00 0. -1.
         -4    1    1    2    0  502  0.28799514215E+02  0.77524104103E+01  0.80105821505E+02  0.85477801359E+02  0.00000000000E+00 0. -1.
</event>
<event>
 5    1  0.4866530E-005  0.2652142E+03  0.7818608E-02  0.1022797E+00
         -4   -1    0    0    0  501 -0.00000000000E+00  0.00000000000E+00  0.14515790013E+04  0.14515790013E+04  0.00000000000E+00 0. -1.
         21   -1    0    0  501  502  0.00000000000E+00 -0.00000000000E+00 -0.58445000773E+02  0.58445000773E+02  0.00000000000E+00 0.  1.
        -13    1    1    2    0    0 -0.50023633312E+02 -0.26453827007E+03  0.83530552950E+03  0.87762076035E+03  0.10566000000E+00 0.  1.
         13    1    1    2    0    0  0.54470760000E+02  0.25407302637E+03  0.56287829924E+03  0.61996141601E+03  0.10566000000E+00 0. -1.
         -4    1    1    2    0  502 -0.44471266874E+01  0.10465243703E+02 -0.50498282263E+01  0.12441825696E+02  0.00000000000E+00 0. -1.
</event>
<event>
 5    1  0.4866530E-005  0.1059235E+03  0.7818608E-02  0.1167557E+00
         21   -1    0    0  501  502  0.00000000000E+00  0.00000000000E+00  0.26211795083E+03  0.26211795083E+03  0.00000000000E+00 0.  1.
          4   -1    0    0  502    0 -0.00000000000E+00 -0.00000000000E+00 -0.17419441769E+03  0.17419441769E+03  0.00000000000E+00 0.  1.
        -13    1    1    2    0    0  0.58850161472E+02  0.78715820327E+02 -0.11417088365E+03  0.15064701694E+03  0.10566000000E+00 0.  1.
         13    1    1    2    0    0 -0.72104333864E+02  0.30448440216E+02  0.35249335073E+02  0.85840953284E+02  0.10566000000E+00 0. -1.
          4    1    1    2  501    0  0.13254172392E+02 -0.10916426054E+03  0.16684508171E+03  0.19982439830E+03  0.00000000000E+00 0.  1.
</event>
<event>
 5    1  0.4866530E-005  0.4533114E+02  0.7818608E-02  0.1312061E+00
          4   -1    0    0  502    0 -0.00000000000E+00  0.00000000000E+00  0.14080848097E+03  0.14080848097E+03  0.00000000000E+00 0.  1.
         21   -1    0    0  501  502  0.00000000000E+00 -0.00000000000E+00 -0.25911342821E+02  0.25911342821E+02  0.00000000000E+00 0. -1.
        -13    1    1    2    0    0  0.37836882935E+02 -0.28079917184E+02  0.81090847216E+02  0.93786183020E+02  0.10566000000E+00 0.  1.
         13    1    1    2    0    0 -0.40117325754E+02  0.16733378790E+02  0.40628859353E+02  0.59498917366E+02  0.10566000000E+00 0. -1.
          4    1    1    2  501    0  0.22804428191E+01  0.11346538394E+02 -0.68225684236E+01  0.13434723402E+02  0.00000000000E+00 0.  1.
</event>
<event>
 5    1  0.4866530E-005  0.2967399E+03  0.7818608E-02  0.1046435E+00
          4   -1    0    0  502    0 -0.00000000000E+00  0.00000000000E+00  0.48887138515E+03  0.48887138515E+03  0.00000000000E+00 0.  1.
         21   -1    0    0  501  502  0.00000000000E+00 -0.00000000000E+00 -0.64691758686E+03  0.64691758686E+03  0.00000000000E+00 0.  1.
        -13    1    1    2    0    0 -0.29843401262E+03  0.61958340180E+02 -0.48934408939E+03  0.57650615330E+03  0.10566000000E+00 0.  1.
         13    1    1    2    0    0  0.90718902535E+02  0.14059253187E+02 -0.60088686035E+02  0.10971892832E+03  0.10566000000E+00 0. -1.
          4    1    1    2  501    0  0.20771511009E+03 -0.76017593368E+02  0.39138657372E+03  0.44956389040E+03  0.00000000000E+00 0.  1.
</event>
<event>
 5    1  0.4866530E-005  0.5353996E+02  0.7818608E-02  0.1278011E+00
         -4   -1    0    0    0  501 -0.00000000000E+00  0.00000000000E+00  0.39215742525E+02  0.39215742525E+02  0.00000000000E+00 0. -1.
         21   -1    0    0  501  502  0.00000000000E+00 -0.00000000000E+00 -0.38142730830E+03  0.38142730830E+03  0.00000000000E+00 0. -1.
        -13    1    1    2    0    0  0.43430897610E+02 -0.14787039125E+02 -0.41720629739E+02  0.62012268973E+02  0.10566000000E+00 0.  1.
         13    1    1    2    0    0 -0.54420598626E+02  0.19484482987E+02  0.98642536605E-01  0.57803698208E+02  0.10566000000E+00 0. -1.
         -4    1    1    2    0  502  0.10989701017E+02 -0.46974438615E+01 -0.30058957857E+03  0.30082708364E+03  0.00000000000E+00 0. -1.
</event>
<event>
 5    1  0.4866530E-005  0.4575161E+03  0.7818608E-02  0.9612066E-01
         21   -1    0    0  501  502  0.00000000000E+00  0.00000000000E+00  0.41382071071E+03  0.41382071071E+03  0.00000000000E+00 0. -1.
          4   -1    0    0  502    0 -0.00000000000E+00 -0.00000000000E+00 -0.22719842722E+04  0.22719842722E+04  0.00000000000E+00 0.  1.
        -13    1    1    2    0    0  0.43360966632E+03 -0.18682107735E+03 -0.37370064964E+03  0.60213922342E+03  0.10566000000E+00 0.  1.
         13    1    1    2    0    0 -0.38244561801E+03 -0.30249586904E+03  0.32715690817E+02  0.48871129423E+03  0.10566000000E+00 0. -1.
          4    1    1    2  501    0 -0.51164048315E+02  0.48931694639E+03 -0.15171786026E+04  0.15949544652E+04  0.00000000000E+00 0.  1.
</event>
<event>
 5    1  0.4866530E-005  0.1512978E+03  0.7818608E-02  0.1099839E+00
         21   -1    0    0  501  502  0.00000000000E+00  0.00000000000E+00  0.45603957076E+02  0.45603957076E+02  0.00000000000E+00 0. -1.
          4   -1    0    0  502    0 -0.00000000000E+00 -0.00000000000E+00 -0.73807555621E+03  0.73807555621E+03  0.00000000000E+00 0.  1.
        -13    1    1    2    0    0  0.13608154113E+03 -0.47336421778E+02 -0.42224825650E+03  0.44615302749E+03  0.10566000000E+00 0.  1.
         13    1    1    2    0    0 -0.16114262276E+03  0.40955656543E+02 -0.26215860184E+03  0.31043752085E+03  0.10566000000E+00 0. -1.
          4    1    1    2  501    0  0.25061081628E+02  0.63807652347E+01 -0.80647408025E+01  0.27088964941E+02  0.00000000000E+00 0.  1.
</event>
<event>
 5    1  0.4866530E-005  0.4764679E+03  0.7818608E-02  0.9531096E-01
         21   -1    0    0  501  502  0.00000000000E+00  0.00000000000E+00  0.38730829084E+03  0.38730829084E+03  0.00000000000E+00 0. -1.
         -4   -1    0    0    0  501 -0.00000000000E+00 -0.00000000000E+00 -0.13695316758E+04  0.13695316758E+04  0.00000000000E+00 0. -1.
        -13    1    1    2    0    0 -0.30714504006E+03 -0.18919240123E+03 -0.30261575345E+03  0.47085894461E+03  0.10566000000E+00 0.  1.
         13    1    1    2    0    0  0.63522810891E+03  0.32712406189E+03 -0.56868892282E+03  0.91319877591E+03  0.10566000000E+00 0. -1.
         -4    1    1    2    0  502 -0.32808306885E+03 -0.13793166066E+03 -0.11091870869E+03  0.37278224611E+03  0.00000000000E+00 0. -1.
</event>
<event>
 5    1  0.4866530E-005  0.3758877E+03  0.7818608E-02  0.9801387E-01
         21   -1    0    0  501  502  0.00000000000E+00  0.00000000000E+00  0.35659172991E+03  0.35659172991E+03  0.00000000000E+00 0.  1.
          4   -1    0    0  502    0 -0.00000000000E+00 -0.00000000000E+00 -0.14605061804E+04  0.14605061804E+04  0.00000000000E+00 0.  1.
        -13    1    1    2    0    0  0.60858333018E+03 -0.77418380091E+02 -0.11060846080E+03  0.62337911267E+03  0.10566000000E+00 0.  1.
         13    1    1    2    0    0 -0.29171536005E+03  0.16159851181E+03 -0.47334201029E+03  0.57902037976E+03  0.10566000000E+00 0. -1.
          4    1    1    2  501    0 -0.31686797013E+03 -0.84180131720E+02 -0.51996397941E+03  0.61469841789E+03  0.00000000000E+00 0.  1.
</event>
<event>
 5    1  0.4866530E-005  0.4487182E+03  0.7818608E-02  0.9598063E-01
         -4   -1    0    0    0  501 -0.00000000000E+00  0.00000000000E+00  0.23662765125E+04  0.23662765125E+04  0.00000000000E+00 0. -1.
         21   -1    0    0  501  502  0.00000000000E+00 -0.00000000000E+00 -0.23388353401E+03  0.23388353401E+03  0.00000000000E+00 0. -1.
        -13    1    1    2    0    0  0.40515629205E+03 -0.49397981510E+02  0.67582803092E+03  0.78951587704E+03  0.10566000000E+00 0.  1.
         13    1    1    2    0    0 -0.45134084812E+03 -0.30167927754E+03  0.13267070429E+04  0.14334819624E+04  0.10566000000E+00 0. -1.
         -4    1    1    2    0  502  0.46184556070E+02  0.35107725905E+03  0.12985790469E+03  0.37716220708E+03  0.00000000000E+00 0. -1.
</event>
<event>
 5    1  0.4866530E-005  0.4717442E+03  0.7818608E-02  0.9565106E-01
         21   -1    0    0  501  502  0.00000000000E+00  0.00000000000E+00  0.27040173119E+03  0.27040173119E+03  0.00000000000E+00 0. -1.
         -4   -1    0    0    0  501 -0.00000000000E+00 -0.00000000000E+00 -0.23724094884E+04  0.23724094884E+04  0.00000000000E+00 0. -1.
        -13    1    1    2    0    0 -0.40950820670E+03 -0.27198580694E+03 -0.58884016491E+03  0.76707626837E+03  0.10566000000E+00 0.  1.
         13    1    1    2    0    0  0.77745842017E+02 -0.37066908502E+03 -0.42644062573E+03  0.57034340969E+03  0.10566000000E+00 0. -1.
         -4    1    1    2    0  502  0.33176236468E+03  0.64265489196E+03 -0.10867269666E+04  0.13053915415E+04  0.00000000000E+00 0. -1.
</event>
<event>
 5    1  0.4866530E-005  0.1909277E+03  0.7818608E-02  0.1066540E+00
         21   -1    0    0  501  502  0.00000000000E+00  0.00000000000E+00  0.13415059135E+03  0.13415059135E+03  0.00000000000E+00 0. -1.
          4   -1    0    0  502    0 -0.00000000000E+00 -0.00000000000E+00 -0.68347531895E+03  0.68347531895E+03  0.00000000000E+00 0.  1.
        -13    1    1    2    0    0  0.10768001568E+03  0.14975665005E+03 -0.42080665979E+03  0.45945652253E+03  0.10566000000E+00 0.  1.
         13    1    1    2    0    0 -0.11747493410E+03 -0.16872665001E+03 -0.19802823251E+03  0.28545443524E+03  0.10566000000E+00 0. -1.
          4    1    1    2  501    0  0.97949184173E+01  0.18969999958E+02  0.69510164694E+02  0.72714952527E+02  0.00000000000E+00 0.  1.
</event>
<event>
 5    1  0.4866530E-005  0.1825236E+03  0.7818608E-02  0.1072826E+00
          4   -1    0    0  502    0 -0.00000000000E+00  0.00000000000E+00  0.34618742904E+03  0.34618742904E+03  0.00000000000E+00 0.  1.
         21   -1    0    0  501  502  0.00000000000E+00 -0.00000000000E+00 -0.14438324305E+03  0.14438324305E+03  0.00000000000E+00 0. -1.
        -13    1    1    2    0    0 -0.54218933507E+02 -0.17371745082E+03  0.24847673644E+00  0.18198219247E+03  0.10566000000E+00 0.  1.
         13    1    1    2    0    0  0.43512683384E+02  0.17755999627E+03  0.22053885852E+03  0.28645820842E+03  0.10566000000E+00 0. -1.
          4    1    1    2  501    0  0.10706250123E+02 -0.38425454535E+01 -0.18983149272E+02  0.22130271204E+02  0.00000000000E+00 0.  1.
</event>
<event>
 5    1  0.4866530E-005  0.5011670E+03  0.7818608E-02  0.9526385E-01
         -4   -1    0    0    0  501 -0.00000000000E+00  0.00000000000E+00  0.34619597758E+04  0.34619597758E+04  0.00000000000E+00 0. -1.
         21   -1    0    0  501  502  0.00000000000E+00 -0.00000000000E+00 -0.16743996037E+03  0.16743996037E+03  0.00000000000E+00 0. -1.
        -13    1    1    2    0    0 -0.26221227693E+03 -0.32355337715E+03  0.11863907440E+04  0.12573643365E+04  0.10566000000E+00 0.  1.
         13    1    1    2    0    0  0.30920253671E+03 -0.31383651568E+03  0.10011995038E+04  0.10938464357E+04  0.10566000000E+00 0. -1.
         -4    1    1    2    0  502 -0.46990259774E+02  0.63738989283E+03  0.11069295676E+04  0.12781889640E+04  0.00000000000E+00 0. -1.
</event>
<event>
 5    1  0.4866530E-005  0.5714262E+03  0.7818608E-02  0.9333816E-01
         21   -1    0    0  501  502  0.00000000000E+00  0.00000000000E+00  0.34308135165E+03  0.34308135165E+03  0.00000000000E+00 0. -1.
         -4   -1    0    0    0  501 -0.00000000000E+00 -0.00000000000E+00 -0.22011343872E+04  0.22011343872E+04  0.00000000000E+00 0. -1.
        -13    1    1    2    0    0  0.48315561209E+03 -0.31021457766E+03 -0.65574807317E+03  0.87159507589E+03  0.10566000000E+00 0.  1.
         13    1    1    2    0    0 -0.14280256336E+03  0.65074925695E+03 -0.82812956147E+03  0.10628573513E+04  0.10566000000E+00 0. -1.
         -4    1    1    2    0  502 -0.34035304872E+03 -0.34053467928E+03 -0.37417540091E+03  0.60976331163E+03  0.00000000000E+00 0. -1.
</event>
<event>
 5    1  0.4866530E-005  0.4060078E+03  0.7818608E-02  0.9839579E-01
         21   -1    0    0  501  502  0.00000000000E+00  0.00000000000E+00  0.14005852110E+03  0.14005852110E+03  0.00000000000E+00 0. -1.
         -4   -1    0    0    0  501 -0.00000000000E+00 -0.00000000000E+00 -0.32286991815E+04  0.32286991815E+04  0.00000000000E+00 0. -1.
        -13    1    1    2    0    0 -0.21247209597E+03 -0.15322973532E+03 -0.11554074604E+04  0.11847321022E+04  0.10566000000E+00 0.  1.
         13    1    1    2    0    0  0.28977448671E+03  0.50634724844E+03 -0.15549892863E+04  0.16608276494E+04  0.10566000000E+00 0. -1.
         -4    1    1    2    0  502 -0.77302390739E+02 -0.35311751312E+03 -0.37824391361E+03  0.52319795094E+03  0.00000000000E+00 0. -1.
</event>
<event>
 5    1  0.4866530E-005  0.8666235E+02  0.7818608E-02  0.1208000E+00
         21   -1    0    0  501  502  0.00000000000E+00  0.00000000000E+00  0.13738239831E+03  0.13738239831E+03  0.00000000000E+00 0.  1.
         -4   -1    0    0    0  501 -0.00000000000E+00 -0.00000000000E+00 -0.19624380921E+03  0.19624380921E+03  0.00000000000E+00 0. -1.
        -13    1    1    2    0    0  0.28155282125E+02  0.48204816149E+02  0.80219533237E+02  0.97732332871E+02  0.10566000000E+00 0.  1.
         13    1    1    2    0    0  0.61905286671E+02  0.10302941805E+01 -0.11478355150E+03  0.13041702681E+03  0.10566000000E+00 0. -1.
         -4    1    1    2    0  502 -0.90060568795E+02 -0.49235110330E+02 -0.24297392640E+02  0.10547684784E+03  0.00000000000E+00 0. -1.
</event>
<event>
 5    1  0.4866530E-005  0.4937615E+03  0.7818608E-02  0.9743029E-01
         -4   -1    0    0    0  501 -0.00000000000E+00  0.00000000000E+00  0.48568079053E+03  0.48568079053E+03  0.00000000000E+00 0. -1.
         21   -1    0    0  501  502  0.00000000000E+00 -0.00000000000E+00 -0.79756507650E+03  0.79756507650E+03  0.00000000000E+00 0. -1.
        -13    1    1    2    0    0 -0.20260558912E+03 -0.27102633176E+01 -0.14120779019E+02  0.20311518366E+03  0.10566000000E+00 0.  1.
         13    1    1    2    0    0 -0.31862836597E+03 -0.21298410159E+03  0.92410492621E+02  0.39424100934E+03  0.10566000000E+00 0. -1.
         -4    1    1    2    0  502  0.52123395509E+03  0.21569436491E+03 -0.39017399957E+03  0.68588967403E+03  0.00000000000E+00 0. -1.
</event>
<event>
 5    1  0.4866530E-005  0.1532842E+03  0.7818608E-02  0.1097917E+00
         -4   -1    0    0    0  501 -0.00000000000E+00  0.00000000000E+00  0.10532768892E+04  0.10532768892E+04  0.00000000000E+00 0. -1.
         21   -1    0    0  501  502  0.00000000000E+00 -0.00000000000E+00 -0.38977928121E+02  0.38977928121E+02  0.00000000000E+00 0.  1.
        -13    1    1    2    0    0  0.10165380424E+02 -0.16057192306E+03  0.46511172051E+03  0.49215404210E+03  0.10566000000E+00 0.  1.
         13    1    1    2    0    0 -0.76088452835E+02  0.13391077903E+03  0.46530561817E+03  0.49013353167E+03  0.10566000000E+00 0. -1.
         -4    1    1    2    0  502  0.65923072411E+02  0.26661144033E+02  0.83881622349E+02  0.10996724351E+03  0.00000000000E+00 0. -1.
</event>
<event>
 5    1  0.4866530E-005  0.1358558E+03  0.7818608E-02  0.1115965E+00
         -4   -1    0    0    0  501 -0.00000000000E+00  0.00000000000E+00  0.19521476689E+03  0.19521476689E+03  0.00000000000E+00 0. -1.
         21   -1    0    0  501  502  0.00000000000E+00 -0.00000000000E+00 -0.29963499597E+03  0.29963499597E+03  0.00000000000E+00 0.  1.
        -13    1    1    2    0    0 -0.16533699714E+03 -0.22230302082E+02 -0.78034470572E+02  0.18417355596E+03  0.10566000000E+00 0.  1.
         13    1    1    2    0    0  0.12837864167E+03 -0.18792421094E+02  0.10580410713E+03  0.16741789324E+03  0.10566000000E+00 0. -1.
         -4    1    1    2    0  502  0.36958355475E+02  0.41022723176E+02 -0.13218986563E+03  0.14325831366E+03  0.00000000000E+00 0. -1.
</event>
<event>
 5    1  0.4866530E-005  0.1968727E+03  0.7818608E-02  0.1062301E+00
          4   -1    0    0  502    0 -0.00000000000E+00  0.00000000000E+00  0.38630214146E+02  0.38630214146E+02  0.00000000000E+00 0.  1.
         21   -1    0    0  501  502  0.00000000000E+00 -0.00000000000E+00 -0.11210801467E+04  0.11210801467E+04  0.00000000000E+00 0. -1.
        -13    1    1    2    0    0  0.11043328091E+03 -0.16470216441E+03 -0.46349399463E+03  0.50413193383E+03  0.10566000000E+00 0.  1.
         13    1    1    2    0    0 -0.11982112464E+03  0.15452628653E+03 -0.51801011089E+03  0.55368760261E+03  0.10566000000E+00 0. -1.
          4    1    1    2  501    0  0.93878437348E+01  0.10175877876E+02 -0.10094582702E+03  0.10189082438E+03  0.00000000000E+00 0.  1.
</event>
<event>
 5    1  0.4866530E-005  0.3794440E+03  0.7818608E-02  0.1000939E+00
         -4   -1    0    0    0  501 -0.00000000000E+00  0.00000000000E+00  0.29971167389E+04  0.29971167389E+04  0.00000000000E+00 0. -1.
         21   -1    0    0  501  502  0.00000000000E+00 -0.00000000000E+00 -0.12229293975E+03  0.12229293975E+03  0.00000000000E+00 0. -1.
        -13    1    1    2    0    0 -0.17198600233E+03 -0.60598594771E+02  0.63054199049E+03  0.65637991104E+03  0.10566000000E+00 0.  1.
         13    1    1    2    0    0  0.46565844804E+03  0.24779932935E+03  0.19055232470E+04  0.19771851592E+04  0.10566000000E+00 0. -1.
         -4    1    1    2    0  502 -0.29367244570E+03 -0.18720073458E+03  0.33875856167E+03  0.48584460838E+03  0.00000000000E+00 0. -1.
</event>
<event>
 5    1  0.4866530E-005  0.3062575E+03  0.7818608E-02  0.1024367E+00
         21   -1    0    0  501  502  0.00000000000E+00  0.00000000000E+00  0.44002389471E+03  0.44002389471E+03  0.00000000000E+00 0. -1.
         -4   -1    0    0    0  501 -0.00000000000E+00 -0.00000000000E+00 -0.47607806024E+03  0.47607806024E+03  0.00000000000E+00 0. -1.
        -13    1    1    2    0    0  0.35020304142E+02 -0.16019308626E+03 -0.30675952132E+02  0.16682107717E+03  0.10566000000E+00 0.  1.
         13    1    1    2    0    0  0.27701423391E+03  0.87409323353E+02 -0.21934881421E+03  0.36399339150E+03  0.10566000000E+00 0. -1.
         -4    1    1    2    0  502 -0.31203453805E+03  0.72783762902E+02  0.21397060080E+03  0.38528748628E+03  0.00000000000E+00 0. -1.
</event>
<event>
 5    1  0.4866530E-005  0.4335361E+03  0.7818608E-02  0.9785055E-01
          4   -1    0    0  502    0 -0.00000000000E+00  0.00000000000E+00  0.45144311857E+03  0.45144311857E+03  0.00000000000E+00 0.  1.
         21   -1    0    0  501  502  0.00000000000E+00 -0.00000000000E+00 -0.92407525908E+03  0.92407525908E+03  0.00000000000E+00 0. -1.
        -13    1    1    2    0    0 -0.40128956129E+03  0.20958516036E+03 -0.38102564940E+03  0.59172612593E+03  0.10566000000E+00 0.  1.
         13    1    1    2    0    0 -0.33273700614E+02 -0.25691686699E+03 -0.20708973267E+03  0.33166185225E+03  0.10566000000E+00 0. -1.
          4    1    1    2  501    0  0.43456326190E+03  0.47331706630E+02  0.11548324155E+03  0.45213039947E+03  0.00000000000E+00 0.  1.
</event>
<event>
 5    1  0.4866530E-005  0.3224398E+02  0.7818608E-02  0.1387747E+00
         21   -1    0    0  501  502  0.00000000000E+00  0.00000000000E+00  0.16457699576E+03  0.16457699576E+03  0.00000000000E+00 0. -1.
          4   -1    0    0  502    0 -0.00000000000E+00 -0.00000000000E+00 -0.11622865605E+03  0.11622865605E+03  0.00000000000E+00 0.  1.
        -13    1    1    2    0    0 -0.24908311154E+02 -0.20495644629E+02 -0.11036334592E+03  0.11498075795E+03  0.10566000000E+00 0.  1.
         13    1    1    2    0    0  0.15896174614E+02  0.30227190389E+02  0.12546405091E+03  0.13002926840E+03  0.10566000000E+00 0. -1.
          4    1    1    2  501    0  0.90121365393E+01 -0.97315457604E+01  0.33247634711E+02  0.35795625456E+02  0.00000000000E+00 0.  1.
</event>
<event>
 5    1  0.4866530E-005  0.1406355E+03  0.7818608E-02  0.1110733E+00
         -4   -1    0    0    0  501 -0.00000000000E+00  0.00000000000E+00  0.63813151286E+03  0.63813151286E+03  0.00000000000E+00 0. -1.
         21   -1    0    0  501  502  0.00000000000E+00 -0.00000000000E+00 -0.70797080727E+02  0.70797080727E+02  0.00000000000E+00 0. -1.
        -13    1    1    2    0    0 -0.12874005150E+03  0.29317938110E+02  0.12676622048E+03  0.18303887067E+03  0.10566000000E+00 0.  1.
         13    1    1    2    0    0  0.14198259801E+03 -0.23929548598E+02  0.47086578293E+03  0.49238834078E+03  0.10566000000E+00 0. -1.
         -4    1    1    2    0  502 -0.13242546506E+02 -0.53883895119E+01 -0.30297571284E+02  0.33501382139E+02  0.00000000000E+00 0. -1.
</event>
<event>
 5    1  0.4866530E-005  0.2852739E+03  0.7818608E-02  0.1027025E+00
         21   -1    0    0  501  502  0.00000000000E+00  0.00000000000E+00  0.28257127359E+03  0.28257127359E+03  0.00000000000E+00 0.  1.
          4   -1    0    0  502    0 -0.00000000000E+00 -0.00000000000E+00 -0.10114560340E+04  0.10114560340E+04  0.00000000000E+00 0.  1.
        -13    1    1    2    0    0  0.38008510801E+03 -0.62834974452E+02 -0.10101386944E+03  0.39826716702E+03  0.10566000000E+00 0.  1.
         13    1    1    2    0    0 -0.17389970208E+03 -0.68111832317E+02 -0.62413467358E+03  0.65147864893E+03  0.10566000000E+00 0. -1.
          4    1    1    2  501    0 -0.20618540593E+03  0.13094680677E+03 -0.37362173648E+01  0.24428149161E+03  0.00000000000E+00 0.  1.
</event>
<event>
 5    1  0.4866530E-005  0.5151887E+02  0.7818608E-02  0.1285725E+00
          4   -1    0    0  502    0 -0.00000000000E+00  0.00000000000E+00  0.15487559427E+03  0.15487559427E+03  0.00000000000E+00 0.  1.
         21   -1    0    0  501  502  0.00000000000E+00 -0.00000000000E+00 -0.29249244367E+02  0.29249244367E+02  0.00000000000E+00 0. -1.
        -13    1    1    2    0    0  0.37928623904E+02 -0.44258640959E+02  0.20181958578E+02  0.61682496925E+02  0.10566000000E+00 0.  1.
         13    1    1    2    0    0 -0.34801418092E+02  0.34532777885E+02  0.69349303904E+02  0.84929315114E+02  0.10566000000E+00 0. -1.
          4    1    1    2  501    0 -0.31272058118E+01  0.97258630739E+01  0.36095087415E+02  0.37513026594E+02  0.00000000000E+00 0.  1.
</event>
<event>
 5    1  0.4866530E-005  0.8709791E+02  0.7818608E-02  0.1187871E+00
         21   -1    0    0  501  502  0.00000000000E+00  0.00000000000E+00  0.91212132536E+02  0.91212132536E+02  0.00000000000E+00 0.  1.
         -4   -1    0    0    0  501 -0.00000000000E+00 -0.00000000000E+00 -0.13671986343E+03  0.13671986343E+03  0.00000000000E+00 0. -1.
        -13    1    1    2    0    0  0.80154717791E+01  0.80513847029E+02  0.35015677716E+02  0.88163689812E+02  0.10566000000E+00 0.  1.
         13    1    1    2    0    0  0.52541907009E+01 -0.89107932281E+02 -0.85080798310E+02  0.12331497687E+03  0.10566000000E+00 0. -1.
         -4    1    1    2    0  502 -0.13269662480E+02  0.85940852516E+01  0.45573896998E+01  0.16453329284E+02  0.00000000000E+00 0. -1.
</event>
<event>
 5    1  0.4866530E-005  0.3414148E+03  0.7818608E-02  0.9915430E-01
         21   -1    0    0  501  502  0.00000000000E+00  0.00000000000E+00  0.21139647144E+03  0.21139647144E+03  0.00000000000E+00 0.  1.
         -4   -1    0    0    0  501 -0.00000000000E+00 -0.00000000000E+00 -0.60899998836E+03  0.60899998836E+03  0.00000000000E+00 0. -1.
        -13    1    1    2    0    0 -0.14719242421E+03  0.30206769685E+03 -0.22272397060E+03  0.40313332964E+03  0.10566000000E+00 0.  1.
         13    1    1    2    0    0  0.13881018412E+03 -0.31889621477E+03 -0.18701172208E+03  0.39488790608E+03  0.10566000000E+00 0. -1.
         -4    1    1    2    0  502  0.83822400813E+01  0.16828517920E+02  0.12132175752E+02  0.22375224080E+02  0.00000000000E+00 0. -1.
</event>
<event>
 5    1  0.4866530E-005  0.3488401E+03  0.7818608E-02  0.1015953E+00
         21   -1    0    0  501  502  0.00000000000E+00  0.00000000000E+00  0.11634321443E+04  0.11634321443E+04  0.00000000000E+00 0. -1.
         -4   -1    0    0    0  501 -0.00000000000E+00 -0.00000000000E+00 -0.25794535634E+03  0.25794535634E+03  0.00000000000E+00 0. -1.
        -13    1    1    2    0    0 -0.13294078252E+03  0.56991867262E+02  0.12675503849E+03  0.19232310193E+03  0.10566000000E+00 0.  1.
         13    1    1    2    0    0  0.24007449221E+03 -0.37167205693E+03  0.72319285144E+02  0.44833689329E+03  0.10566000000E+00 0. -1.
         -4    1    1    2    0  502 -0.10713370969E+03  0.31468018967E+03  0.70641246433E+03  0.78071750543E+03  0.00000000000E+00 0. -1.
</event>
<event>
 5    1  0.4866530E-005  0.6768924E+02  0.7818608E-02  0.1241751E+00
          4   -1    0    0  502    0 -0.00000000000E+00  0.00000000000E+00  0.21979075105E+03  0.21979075105E+03  0.00000000000E+00 0.  1.
         21   -1    0    0  501  502  0.00000000000E+00 -0.00000000000E+00 -0.11366282074E+03  0.11366282074E+03  0.00000000000E+00 0.  1.
        -13    1    1    2    0    0 -0.93298182476E+02  0.74436975679E+02  0.13645319242E+03  0.18128678685E+03  0.10566000000E+00 0.  1.
         13    1    1    2    0    0  0.44121792682E+02 -0.34538446472E+02  0.30980688092E+02  0.64026955830E+02  0.10566000000E+00 0. -1.
          4    1    1    2  501    0  0.49176389794E+02 -0.39898529207E+02 -0.61305950199E+02  0.88139829112E+02  0.00000000000E+00 0.  1.
</event>
<event>
 5    1  0.4866530E-005  0.3358596E+03  0.7818608E-02  0.1002523E+00
         21   -1    0    0  501  502  0.00000000000E+00  0.00000000000E+00  0.17144179684E+03  0.17144179684E+03  0.00000000000E+00 0.  1.
          4   -1    0    0  502    0 -0.00000000000E+00 -0.00000000000E+00 -0.23576199263E+04  0.23576199263E+04  0.00000000000E+00 0.  1.
        -13    1    1    2    0    0 -0.35411590792E+03  0.23089016955E+03 -0.15876284979E+04  0.16429463184E+04  0.10566000000E+00 0.  1.
         13    1    1    2    0    0  0.21441348934E+02 -0.24877229293E+03 -0.46379771432E+03  0.52674065359E+03  0.10566000000E+00 0. -1.
          4    1    1    2  501    0  0.33267455899E+03  0.17882123377E+02 -0.13475191719E+03  0.35937475109E+03  0.00000000000E+00 0.  1.
</event>
<event>
 5    1  0.4866530E-005  0.4406204E+03  0.7818608E-02  0.9878009E-01
         21   -1    0    0  501  502  0.00000000000E+00  0.00000000000E+00  0.17190555139E+03  0.17190555139E+03  0.00000000000E+00 0.  1.
          4   -1    0    0  502    0 -0.00000000000E+00 -0.00000000000E+00 -0.20699497914E+04  0.20699497914E+04  0.00000000000E+00 0.  1.
        -13    1    1    2    0    0 -0.49250220565E+03 -0.25140420011E+02 -0.87931202519E+03  0.10081567894E+04  0.10566000000E+00 0.  1.
         13    1    1    2    0    0  0.88716281902E+02  0.15665144963E+03 -0.63948299041E+03  0.66434084740E+03  0.10566000000E+00 0. -1.
          4    1    1    2  501    0  0.40378592374E+03 -0.13151102962E+03 -0.37924922446E+03  0.56935770600E+03  0.00000000000E+00 0.  1.
</event>
<event>
 5    1  0.4866530E-005  0.4434236E+03  0.7818608E-02  0.9890126E-01
          4   -1    0    0  502    0 -0.00000000000E+00  0.00000000000E+00  0.25546976364E+04  0.25546976364E+04  0.00000000000E+00 0.  1.
         21   -1    0    0  501  502  0.00000000000E+00 -0.00000000000E+00 -0.14140937111E+03  0.14140937111E+03  0.00000000000E+00 0.  1.
        -13    1    1    2    0    0  0.30907988227E+03 -0.74756451051E+02  0.16186816203E+04  0.16496208958E+04  0.10566000000E+00 0.  1.
         13    1    1    2    0    0  0.16899741508E+03 -0.14242575253E+02  0.34392806873E+03  0.38347034419E+03  0.10566000000E+00 0. -1.
          4    1    1    2  501    0 -0.47807729735E+03  0.88999026304E+02  0.45067857620E+03  0.66301576751E+03  0.00000000000E+00 0.  1.
</event>
<event>
 5    1  0.4866530E-005  0.4738786E+03  0.7818608E-02  0.9816504E-01
         21   -1    0    0  501  502  0.00000000000E+00  0.00000000000E+00  0.10264074932E+03  0.10264074932E+03  0.00000000000E+00 0. -1.
         -4   -1    0    0    0  501 -0.00000000000E+00 -0.00000000000E+00 -0.35092412196E+04  0.35092412196E+04  0.00000000000E+00 0. -1.
        -13    1    1    2    0    0  0.64765502224E+02  0.16599220206E+03 -0.46518273978E+03  0.49813951256E+03  0.10566000000E+00 0.  1.
         13    1    1    2    0    0 -0.37987768639E+03 -0.44429819596E+03 -0.19784638090E+04  0.20630140568E+04  0.10566000000E+00 0. -1.
         -4    1    1    2    0  502  0.31511218417E+03  0.27830599391E+03 -0.96295392141E+03  0.10507283996E+04  0.00000000000E+00 0. -1.
</event>
<event>
 5    1  0.4866530E-005  0.4112068E+03  0.7818608E-02  0.9993269E-01
         21   -1    0    0  501  502  0.00000000000E+00  0.00000000000E+00  0.44253981975E+03  0.44253981975E+03  0.00000000000E+00 0.  1.
         -4   -1    0    0    0  501 -0.00000000000E+00 -0.00000000000E+00 -0.13251093294E+04  0.13251093294E+04  0.00000000000E+00 0. -1.
        -13    1    1    2    0    0  0.42450114821E+03 -0.55140701143E+02 -0.25691392820E+03  0.49924593080E+03  0.10566000000E+00 0.  1.
         13    1    1    2    0    0 -0.61409918150E+02 -0.13787688444E+03 -0.80554987624E+03  0.81956807380E+03  0.10566000000E+00 0. -1.
         -4    1    1    2    0  502 -0.36309123006E+03  0.19301758558E+03  0.17989429479E+03  0.44883514456E+03  0.00000000000E+00 0. -1.
</event>
<event>
 5    1  0.4866530E-005  0.4947313E+03  0.7818608E-02  0.9558533E-01
          4   -1    0    0  502    0 -0.00000000000E+00  0.00000000000E+00  0.21152724696E+04  0.21152724696E+04  0.00000000000E+00 0.  1.
         21   -1    0    0  501  502  0.00000000000E+00 -0.00000000000E+00 -0.27140729836E+03  0.27140729836E+03  0.00000000000E+00 0.  1.
        -13    1    1    2    0    0  0.26072006128E+03  0.26110863571E+03  0.75551407009E+03  0.84080567985E+03  0.10566000000E+00 0.  1.
         13    1    1    2    0    0 -0.17652363217E+03  0.34282417131E+03  0.76259614186E+03  0.85454191933E+03  0.10566000000E+00 0. -1.
          4    1    1    2  501    0 -0.84196429112E+02 -0.60393280702E+03  0.32575495925E+03  0.69133216875E+03  0.00000000000E+00 0.  1.
</event>
<event>
 5    1  0.4866530E-005  0.5293508E+02  0.7818608E-02  0.1280279E+00
         21   -1    0    0  501  502  0.00000000000E+00  0.00000000000E+00  0.25091181265E+02  0.25091181265E+02  0.00000000000E+00 0. -1.
         -4   -1    0    0    0  501 -0.00000000000E+00 -0.00000000000E+00 -0.33780641368E+03  0.33780641368E+03  0.00000000000E+00 0. -1.
        -13    1    1    2    0    0 -0.28689572331E+01  0.48840269054E+02 -0.92044901123E+02  0.10423952122E+03  0.10566000000E+00 0.  1.
         13    1    1    2    0    0 -0.11025614594E+02 -0.54586995654E+02 -0.23278194767E+03  0.23935068539E+03  0.10566000000E+00 0. -1.
         -4    1    1    2    0  502  0.13894571827E+02  0.57467265996E+01  0.12111616381E+02  0.19307388333E+02  0.00000000000E+00 0. -1.
</event>
<event>
 5    1  0.4866530E-005  0.6368646E+03  0.7818608E-02  0.9219970E-01
         21   -1    0    0  501  502  0.00000000000E+00  0.00000000000E+00  0.31608722534E+03  0.31608722534E+03  0.00000000000E+00 0.  1.
         -4   -1    0    0    0  501 -0.00000000000E+00 -0.00000000000E+00 -0.28532686645E+04  0.28532686645E+04  0.00000000000E+00 0. -1.
        -13    1    1    2    0    0  0.59367511910E+03 -0.27563467838E+03 -0.11801883567E+04  0.13495440680E+04  0.10566000000E+00 0.  1.
         13    1    1    2    0    0 -0.61567221031E+03  0.13458821095E+03 -0.14942908998E+04  0.16217495372E+04  0.10566000000E+00 0. -1.
         -4    1    1    2    0  502  0.21997091215E+02  0.14104646743E+03  0.13729781727E+03  0.19806228471E+03  0.00000000000E+00 0. -1.
</event>
<event>
 5    1  0.4866530E-005  0.2538048E+03  0.7818608E-02  0.1028440E+00
         21   -1    0    0  501  502  0.00000000000E+00  0.00000000000E+00  0.50280187085E+03  0.50280187085E+03  0.00000000000E+00 0. -1.
         -4   -1    0    0    0  501 -0.00000000000E+00 -0.00000000000E+00 -0.40208246711E+03  0.40208246711E+03  0.00000000000E+00 0. -1.
        -13    1    1    2    0    0 -0.22108514815E+03  0.26596150021E+02 -0.11792885880E+03  0.25197861979E+03  0.10566000000E+00 0.  1.
         13    1    1    2    0    0  0.29785562440E+03 -0.74627729275E+02 -0.98979439162E+02  0.32262084791E+03  0.10566000000E+00 0. -1.
         -4    1    1    2    0  502 -0.76770476247E+02  0.48031579253E+02  0.31762770171E+03  0.33028487026E+03  0.00000000000E+00 0. -1.
</event>
<event>
 5    1  0.5128679E-005  0.3213445E+03  0.7818608E-02  0.1036983E+00
         -4   -1    0    0    0  501 -0.00000000000E+00  0.00000000000E+00  0.19525856432E+04  0.19525856432E+04  0.00000000000E+00 0. -1.
         21   -1    0    0  501  502  0.00000000000E+00 -0.00000000000E+00 -0.16276983772E+03  0.16276983772E+03  0.00000000000E+00 0. -1.
        -13    1    1    2    0    0  0.56750870780E+01 -0.96004818175E+02  0.35273044833E+03  0.36560622543E+03  0.10566000000E+00 0.  1.
         13    1    1    2    0    0  0.80542700704E+02  0.39435866571E+03  0.13754474484E+04  0.14331299935E+04  0.10566000000E+00 0. -1.
         -4    1    1    2    0  502 -0.86217787782E+02 -0.29835384753E+03  0.61637908758E+02  0.31661926199E+03  0.00000000000E+00 0. -1.
</event>
<event>
 5    1  0.4866530E-005  0.1095891E+03  0.7818608E-02  0.1187434E+00
         -4   -1    0    0    0  501 -0.00000000000E+00  0.00000000000E+00  0.28173768224E+03  0.28173768224E+03  0.00000000000E+00 0. -1.
         21   -1    0    0  501  502  0.00000000000E+00 -0.00000000000E+00 -0.14608028495E+04  0.14608028495E+04  0.00000000000E+00 0. -1.
        -13    1    1    2    0    0  0.13047819717E+03 -0.20012691534E+03 -0.20648830702E+03  0.31577329571E+03  0.10566000000E+00 0.  1.
         13    1    1    2    0    0 -0.34232503219E+02  0.56833129345E+02  0.21587736450E+03  0.22584268095E+03  0.10566000000E+00 0. -1.
         -4    1    1    2    0  502 -0.96245693956E+02  0.14329378600E+03 -0.11884542247E+04  0.12009245551E+04  0.00000000000E+00 0. -1.
</event>
<event>
 5    1  0.4866530E-005  0.4734998E+03  0.7818608E-02  0.9903560E-01
         21   -1    0    0  501  502  0.00000000000E+00  0.00000000000E+00  0.14328600648E+03  0.14328600648E+03  0.00000000000E+00 0.  1.
          4   -1    0    0  502    0 -0.00000000000E+00 -0.00000000000E+00 -0.22891248915E+04  0.22891248915E+04  0.00000000000E+00 0.  1.
        -13    1    1    2    0    0  0.43645478111E+03  0.16272805977E+02 -0.63635676264E+03  0.77182091232E+03  0.10566000000E+00 0.  1.
         13    1    1    2    0    0  0.10883935374E+03 -0.76722378884E+02 -0.19419670051E+03  0.23546697857E+03  0.10566000000E+00 0. -1.
          4    1    1    2  501    0 -0.54529413485E+03  0.60449572907E+02 -0.13152854219E+04  0.14251230071E+04  0.00000000000E+00 0.  1.
</event>
<event>
 5    1  0.4950000E-005  0.3593523E+03  0.7818608E-02  0.1039901E+00
         21   -1    0    0  501  502  0.00000000000E+00  0.00000000000E+00  0.26343601780E+03  0.26343601780E+03  0.00000000000E+00 0. -1.
         -4   -1    0    0    0  501 -0.00000000000E+00 -0.00000000000E+00 -0.12855792542E+04  0.12855792542E+04  0.00000000000E+00 0. -1.
        -13    1    1    2    0    0  0.61470152406E+02  0.13498031218E+02 -0.29146761074E+03  0.29818476782E+03  0.10566000000E+00 0.  1.
         13    1    1    2    0    0  0.18460830148E+02  0.34078981885E+03 -0.81009852420E+03  0.87905525023E+03  0.10566000000E+00 0. -1.
         -4    1    1    2    0  502 -0.79930982554E+02 -0.35428785007E+03  0.79422898495E+02  0.37177525400E+03  0.00000000000E+00 0. -1.
</event>
<event>
 5    1  0.4866530E-005  0.2155780E+03  0.7818608E-02  0.1049951E+00
         21   -1    0    0  501  502  0.00000000000E+00  0.00000000000E+00  0.15617456242E+03  0.15617456242E+03  0.00000000000E+00 0.  1.
         -4   -1    0    0    0  501 -0.00000000000E+00 -0.00000000000E+00 -0.41396267607E+03  0.41396267607E+03  0.00000000000E+00 0. -1.
        -13    1    1    2    0    0 -0.19237335560E+03  0.70243863393E+02  0.16495489883E+02  0.20546002200E+03  0.10566000000E+00 0.  1.
         13    1    1    2    0    0  0.20103628003E+03 -0.88420289155E+02 -0.25771680344E+03  0.33860256254E+03  0.10566000000E+00 0. -1.
         -4    1    1    2    0  502 -0.86629244267E+01  0.18176425762E+02 -0.16566800092E+02  0.26074653945E+02  0.00000000000E+00 0. -1.
</event>
<event>
 5    1  0.4866530E-005  0.1423413E+03  0.7818608E-02  0.1108920E+00
         -4   -1    0    0    0  501 -0.00000000000E+00  0.00000000000E+00  0.40640660305E+03  0.40640660305E+03  0.00000000000E+00 0. -1.
         21   -1    0    0  501  502  0.00000000000E+00 -0.00000000000E+00 -0.81372985011E+03  0.81372985011E+03  0.00000000000E+00 0. -1.
        -13    1    1    2    0    0 -0.38859136523E+02  0.10767154972E+03  0.30421247877E+02  0.11844263842E+03  0.10566000000E+00 0.  1.
         13    1    1    2    0    0  0.99941292483E+02 -0.12009171345E+03  0.31222722220E+03  0.34913626427E+03  0.10566000000E+00 0. -1.
         -4    1    1    2    0  502 -0.61082155960E+02  0.12420163736E+02 -0.74997171714E+03  0.75255755046E+03  0.00000000000E+00 0. -1.
</event>
<event>
 5    1  0.4866530E-005  0.4957658E+03  0.7818608E-02  0.9754312E-01
         21   -1    0    0  501  502  0.00000000000E+00  0.00000000000E+00  0.22242398924E+03  0.22242398924E+03  0.00000000000E+00 0. -1.
         -4   -1    0    0    0  501 -0.00000000000E+00 -0.00000000000E+00 -0.19942314669E+04  0.19942314669E+04  0.00000000000E+00 0. -1.
        -13    1    1    2    0    0 -0.15817528418E+03 -0.10977417248E+03 -0.76504136053E+03  0.78889675114E+03  0.10566000000E+00 0.  1.
         13    1    1    2    0    0  0.16763620045E+03  0.54743191457E+03 -0.52472692997E+03  0.77660927048E+03  0.10566000000E+00 0. -1.
         -4    1    1    2    0  502 -0.94609162681E+01 -0.43765774209E+03 -0.48203918720E+03  0.65114943457E+03  0.00000000000E+00 0. -1.
</event>
