<event>
 5    1  0.1196676E-004  0.7276827E+02  0.7818608E-02  0.1219646E+00
         21   -1    0    0  501  502  0.00000000000E+00  0.00000000000E+00  0.44335246469E+02  0.44335246469E+02  0.00000000000E+00 0. -1.
          4   -1    0    0  502    0 -0.00000000000E+00 -0.00000000000E+00 -0.33901923618E+03  0.33901923618E+03  0.00000000000E+00 0.  1.
        -13    1    1    2    0    0  0.51189490526E+02 -0.55511049283E+02 -0.29318044798E+03  0.30274845462E+03  0.10566000000E+00 0.  1.
         13    1    1    2    0    0 -0.47508348253E+02  0.33305166678E+02 -0.25169665257E+01  0.58074293502E+02  0.10566000000E+00 0. -1.
          4    1    1    2  501    0 -0.36811422729E+01  0.22205882606E+02  0.10134248010E+01  0.22531734522E+02  0.00000000000E+00 0.  1.
</event>
<event>
 5    1  0.1196676E-004  0.3226670E+03  0.7818608E-02  0.1010586E+00
         21   -1    0    0  501  502  0.00000000000E+00  0.00000000000E+00  0.24075434710E+03  0.24075434710E+03  0.00000000000E+00 0.  1.
          4   -1    0    0  502    0 -0.00000000000E+00 -0.00000000000E+00 -0.16515306722E+04  0.16515306722E+04  0.00000000000E+00 0.  1.
        -13    1    1    2    0    0  0.24405926227E+02 -0.50286732908E+03 -0.97628132718E+03  0.10984518382E+04  0.10566000000E+00 0.  1.
         13    1    1    2    0    0 -0.64675173109E+02  0.20708072049E+03 -0.44507195659E+03  0.49513064995E+03  0.10566000000E+00 0. -1.
          4    1    1    2  501    0  0.40269246882E+02  0.29578660859E+03  0.10576958652E+02  0.29870253116E+03  0.00000000000E+00 0.  1.
</event>
<event>
 5    1  0.1196676E-004  0.1477139E+03  0.7818608E-02  0.1103388E+00
         -4   -1    0    0    0  501 -0.00000000000E+00  0.00000000000E+00  0.16034861430E+03  0.16034861430E+03  0.00000000000E+00 0. -1.
         21   -1    0    0  501  502  0.00000000000E+00 -0.00000000000E+00 -0.28245924081E+03  0.28245924081E+03  0.00000000000E+00 0.  1.
        -13    1    1    2    0    0 -0.11335021153E+03  0.51707534141E+02 -0.19896038510E+03  0.23474919711E+03  0.10566000000E+00 0.  1.
         13    1    1    2    0    0  0.14037228975E+03 -0.59227454885E+02  0.90136160828E+02  0.17702206019E+03  0.10566000000E+00 0. -1.
         -4    1    1    2    0  502 -0.27022078214E+02  0.75199207437E+01 -0.13286402243E+02  0.31036597809E+02  0.00000000000E+00 0. -1.
</event>
<event>
 5    1  0.2027768E-004  0.3120284E+03  0.7818608E-02  0.1014412E+00
         21   -1    0    0  501  502  0.00000000000E+00  0.00000000000E+00  0.30167026083E+03  0.30167026083E+03  0.00000000000E+00 0. -1.
         -4   -1    0    0    0  501 -0.00000000000E+00 -0.00000000000E+00 -0.19749439356E+04  0.19749439356E+04  0.00000000000E+00 0. -1.
        -13    1    1    2    0    0  0.18063875111E+03 -0.11148185307E+03 -0.10599646040E+04  0.10810104231E+04  0.10566000000E+00 0.  1.
         13    1    1    2    0    0  0.10877244090E+03  0.25607099148E+03 -0.78251872029E+03  0.83050548183E+03  0.10566000000E+00 0. -1.
         -4    1    1    2    0  502 -0.28941119201E+03 -0.14458913841E+03  0.16920964948E+03  0.36509829154E+03  0.00000000000E+00 0. -1.
</event>
<event>
 5    1  0.1196676E-004  0.4542969E+03  0.7818608E-02  0.9670971E-01
          4   -1    0    0  502    0 -0.00000000000E+00  0.00000000000E+00  0.52961303597E+03  0.52961303597E+03  0.00000000000E+00 0.  1.
         21   -1    0    0  501  502  0.00000000000E+00 -0.00000000000E+00 -0.14235386992E+04  0.14235386992E+04  0.00000000000E+00 0.  1.
        -13    1    1    2    0    0  0.93700489446E+00 -0.48970691419E+03 -0.22020416024E+03  0.53693912424E+03  0.10566000000E+00 0.  1.
         13    1    1    2    0    0  0.30767231129E+03  0.13059826234E+03  0.22324480607E+03  0.40194080642E+03  0.10566000000E+00 0. -1.
          4    1    1    2  501    0 -0.30860931618E+03  0.35910865185E+03 -0.89696630905E+03  0.10142718045E+04  0.00000000000E+00 0.  1.
</event>
<event>
 5    1  0.1196676E-004  0.4384635E+03  0.7818608E-02  0.9769203E-01
          4   -1    0    0  502    0 -0.00000000000E+00  0.00000000000E+00  0.17124774156E+04  0.17124774156E+04  0.00000000000E+00 0.  1.
         21   -1    0    0  501  502  0.00000000000E+00 -0.00000000000E+00 -0.25005552367E+03  0.25005552367E+03  0.00000000000E+00 0.  1.
        -13    1    1    2    0    0 -0.64948584866E+02  0.26102695357E+03  0.95040027396E+03  0.98773178600E+03  0.10566000000E+00 0.  1.
         13    1    1    2    0    0 -0.21378182538E+03  0.15561033142E+03  0.36818709023E+03  0.45329790280E+03  0.10566000000E+00 0. -1.
          4    1    1    2  501    0  0.27873041025E+03 -0.41663728499E+03  0.14383452770E+03  0.52150325042E+03  0.00000000000E+00 0.  1.
</event>
<event>
 5    1  0.1196676E-004  0.2142280E+03  0.7818608E-02  0.1072144E+00
         -4   -1    0    0    0  501 -0.00000000000E+00  0.00000000000E+00  0.85828165148E+03  0.85828165148E+03  0.00000000000E+00 0. -1.
         21   -1    0    0  501  502  0.00000000000E+00 -0.00000000000E+00 -0.93650181661E+02  0.93650181661E+02  0.00000000000E+00 0. -1.
        -13    1    1    2    0    0 -0.22382850965E+02 -0.11290476670E+03  0.11845061395E+03  0.16516366874E+03  0.10566000000E+00 0.  1.
         13    1    1    2    0    0 -0.19968753157E+03  0.91387776560E+02  0.38534261088E+03  0.44352652107E+03  0.10566000000E+00 0. -1.
         -4    1    1    2    0  502  0.22207038254E+03  0.21516990144E+02  0.26083824499E+03  0.34324164333E+03  0.00000000000E+00 0. -1.
</event>
<event>
 5    1  0.1196676E-004  0.1465315E+03  0.7818608E-02  0.1104583E+00
         -4   -1    0    0    0  501 -0.00000000000E+00  0.00000000000E+00  0.50940076984E+03  0.50940076984E+03  0.00000000000E+00 0. -1.
         21   -1    0    0  501  502  0.00000000000E+00 -0.00000000000E+00 -0.23808252195E+03  0.23808252195E+03  0.00000000000E+00 0.  1.
        -13    1    1    2    0    0 -0.70039590606E+02  0.13841604788E+03  0.15578543516E+03  0.21984917451E+03  0.10566000000E+00 0.  1.
         13    1    1    2    0    0  0.66854646954E+02 -0.12563286824E+03  0.30559940715E+03  0.33711151006E+03  0.10566000000E+00 0. -1.
         -4    1    1    2    0  502  0.31849436520E+01 -0.12783179635E+02 -0.19006659442E+03  0.19052260722E+03  0.00000000000E+00 0. -1.
</event>
<event>
 5    1  0.1196676E-004  0.1599784E+02  0.7818608E-02  0.1574625E+00
         21   -1    0    0  501  502  0.00000000000E+00  0.00000000000E+00  0.90944407313E+01  0.90944407313E+01  0.00000000000E+00 0. -1.
          4   -1    0    0  502    0 -0.00000000000E+00 -0.00000000000E+00 -0.77903767692E+02  0.77903767692E+02  0.00000000000E+00 0.  1.
        -13    1    1    2    0    0  0.11216887566E+02  0.13184411355E+02 -0.47033238029E+02  0.50117700595E+02  0.10566000000E+00 0.  1.
         13    1    1    2    0    0  0.98384007881E+00 -0.14601628351E+02 -0.38201840110E+01  0.15125490462E+02  0.10566000000E+00 0. -1.
          4    1    1    2  501    0 -0.12200727645E+02  0.14172169960E+01 -0.17955904921E+02  0.21755017366E+02  0.00000000000E+00 0.  1.
</event>
<event>
 5    1  0.1196676E-004  0.5308817E+03  0.7818608E-02  0.9454175E-01
         21   -1    0    0  501  502  0.00000000000E+00  0.00000000000E+00  0.62247485150E+03  0.62247485150E+03  0.00000000000E+00 0.  1.
          4   -1    0    0  502    0 -0.00000000000E+00 -0.00000000000E+00 -0.25034125553E+04  0.25034125553E+04  0.00000000000E+00 0.  1.
        -13    1    1    2    0    0 -0.20505053481E+03 -0.14045401301E+03 -0.34417719293E+03  0.42453622094E+03  0.10566000000E+00 0.  1.
         13    1    1    2    0    0  0.20081583234E+03 -0.53664502279E+03 -0.18634461502E+04  0.19495503186E+04  0.10566000000E+00 0. -1.
          4    1    1    2  501    0  0.42347024697E+01  0.67709903580E+03  0.32668563935E+03  0.75180086721E+03  0.00000000000E+00 0.  1.
</event>
<event>
 5    1  0.1196676E-004  0.5956723E+02  0.7818608E-02  0.1257095E+00
          4   -1    0    0  502    0 -0.00000000000E+00  0.00000000000E+00  0.25271011372E+02  0.25271011372E+02  0.00000000000E+00 0.  1.
         21   -1    0    0  501  502  0.00000000000E+00 -0.00000000000E+00 -0.19441404890E+03  0.19441404890E+03  0.00000000000E+00 0. -1.
        -13    1    1    2    0    0 -0.25437119571E+02 -0.53136670701E+02 -0.58843854591E+02  0.83265618430E+02  0.10566000000E+00 0.  1.
         13    1    1    2    0    0  0.35987881497E+02  0.48993035814E+02 -0.62085196883E+02  0.86890897158E+02  0.10566000000E+00 0. -1.
          4    1    1    2  501    0 -0.10550761926E+02  0.41436348874E+01 -0.48213986051E+02  0.49528544681E+02  0.00000000000E+00 0.  1.
</event>
<event>
 5    1  0.1196676E-004  0.4680477E+03  0.7818608E-02  0.9589646E-01
          4   -1    0    0  502    0 -0.00000000000E+00  0.00000000000E+00  0.75248587711E+03  0.75248587711E+03  0.00000000000E+00 0.  1.
         21   -1    0    0  501  502  0.00000000000E+00 -0.00000000000E+00 -0.75266659890E+03  0.75266659890E+03  0.00000000000E+00 0.  1.
        -13    1    1    2    0    0 -0.62852660006E+03 -0.96760442361E+02  0.21498851682E+02  0.63629433597E+03  0.10566000000E+00 0.  1.
         13    1    1    2    0    0  0.34187963509E+03 -0.22161127666E+03  0.10757109076E+03  0.42138437745E+03  0.10566000000E+00 0. -1.
          4    1    1    2  501    0  0.28664696498E+03  0.31837171902E+03 -0.12925066424E+03  0.44747376259E+03  0.00000000000E+00 0.  1.
</event>
<event>
 5    1  0.1196676E-004  0.1336697E+03  0.7818608E-02  0.1118435E+00
         -4   -1    0    0    0  501 -0.00000000000E+00  0.00000000000E+00  0.13027153607E+03  0.13027153607E+03  0.00000000000E+00 0. -1.
         21   -1    0    0  501  502  0.00000000000E+00 -0.00000000000E+00 -0.38573041497E+03  0.38573041497E+03  0.00000000000E+00 0.  1.
        -13    1    1    2    0    0 -0.91788350273E+02  0.88349544612E+02 -0.16772088140E+03  0.21062062696E+03  0.10566000000E+00 0.  1.
         13    1    1    2    0    0  0.86263474695E+02 -0.10412528750E+03  0.66190552111E+02  0.15054787583E+03  0.10566000000E+00 0. -1.
         -4    1    1    2    0  502  0.55248755781E+01  0.15775742887E+02 -0.15392854960E+03  0.15483344825E+03  0.00000000000E+00 0. -1.
</event>
<event>
 5    1  0.1196676E-004  0.1800602E+03  0.7818608E-02  0.1089793E+00
         21   -1    0    0  501  502  0.00000000000E+00  0.00000000000E+00  0.62958544320E+03  0.62958544320E+03  0.00000000000E+00 0. -1.
         -4   -1    0    0    0  501 -0.00000000000E+00 -0.00000000000E+00 -0.15290388851E+03  0.15290388851E+03  0.00000000000E+00 0. -1.
        -13    1    1    2    0    0  0.11799663552E+03 -0.59615655070E+01  0.85648315149E+02  0.14592597887E+03  0.10566000000E+00 0.  1.
         13    1    1    2    0    0 -0.14407658743E+02  0.18096547326E+03  0.39331190394E+03  0.43318627412E+03  0.10566000000E+00 0. -1.
         -4    1    1    2    0  502 -0.10358897678E+03 -0.17500390775E+03 -0.22786644011E+01  0.20337707872E+03  0.00000000000E+00 0. -1.
</event>
<event>
 5    1  0.1196676E-004  0.4382390E+03  0.7818608E-02  0.9975540E-01
         21   -1    0    0  501  502  0.00000000000E+00  0.00000000000E+00  0.10253645667E+04  0.10253645667E+04  0.00000000000E+00 0.  1.
          4   -1    0    0  502    0 -0.00000000000E+00 -0.00000000000E+00 -0.36099007369E+03  0.36099007369E+03  0.00000000000E+00 0.  1.
        -13    1    1    2    0    0  0.19442284172E+03 -0.35540892894E+03  0.54968888582E+03  0.68284231745E+03  0.10566000000E+00 0.  1.
         13    1    1    2    0    0  0.52678820526E+02 -0.12133113157E+03 -0.50684039536E+02  0.14165163129E+03  0.10566000000E+00 0. -1.
          4    1    1    2  501    0 -0.24710166224E+03  0.47674006051E+03  0.16536964675E+03  0.56186069167E+03  0.00000000000E+00 0.  1.
</event>
<event>
 5    1  0.1196676E-004  0.2366511E+03  0.7818608E-02  0.1037552E+00
         21   -1    0    0  501  502  0.00000000000E+00  0.00000000000E+00  0.41922038554E+03  0.41922038554E+03  0.00000000000E+00 0. -1.
          4   -1    0    0  502    0 -0.00000000000E+00 -0.00000000000E+00 -0.35933415266E+03  0.35933415266E+03  0.00000000000E+00 0.  1.
        -13    1    1    2    0    0 -0.22163108868E+03 -0.17054744705E+02 -0.86872522199E+02  0.23865885708E+03  0.10566000000E+00 0.  1.
         13    1    1    2    0    0  0.25148023599E+03  0.16401070877E+02 -0.11459271770E+03  0.27684437204E+03  0.10566000000E+00 0. -1.
          4    1    1    2  501    0 -0.29849147308E+02  0.65367382869E+00  0.26135147277E+03  0.26305130907E+03  0.00000000000E+00 0.  1.
</event>
<event>
 5    1  0.1196676E-004  0.3780762E+03  0.7818608E-02  0.9892532E-01
         21   -1    0    0  501  502  0.00000000000E+00  0.00000000000E+00  0.31920185351E+03  0.31920185351E+03  0.00000000000E+00 0. -1.
         -4   -1    0    0    0  501 -0.00000000000E+00 -0.00000000000E+00 -0.14667717831E+04  0.14667717831E+04  0.00000000000E+00 0. -1.
        -13    1    1    2    0    0 -0.77559614916E+02 -0.26009725084E+03 -0.47804076888E+03  0.54971725609E+03  0.10566000000E+00 0.  1.
         13    1    1    2    0    0 -0.20122470732E+03  0.35590923840E+03  0.92505721448E+02  0.41918980007E+03  0.10566000000E+00 0. -1.
         -4    1    1    2    0  502  0.27878432224E+03 -0.95811987560E+02 -0.76203488212E+03  0.81706658043E+03  0.00000000000E+00 0. -1.
</event>
<event>
 5    1  0.1196676E-004  0.6459365E+02  0.7818608E-02  0.1247021E+00
         21   -1    0    0  501  502  0.00000000000E+00  0.00000000000E+00  0.93789620488E+02  0.93789620488E+02  0.00000000000E+00 0.  1.
          4   -1    0    0  502    0 -0.00000000000E+00 -0.00000000000E+00 -0.48303860264E+03  0.48303860264E+03  0.00000000000E+00 0.  1.
        -13    1    1    2    0    0 -0.40793112694E+02 -0.88028033962E+02 -0.37674612040E+03  0.38903812565E+03  0.10566000000E+00 0.  1.
         13    1    1    2    0    0 -0.14564230076E+02  0.55803390357E+02 -0.77454223460E+02  0.96567608798E+02  0.10566000000E+00 0. -1.
          4    1    1    2  501    0  0.55357342770E+02  0.32224643604E+02  0.64951361707E+02  0.91222488683E+02  0.00000000000E+00 0.  1.
</event>
<event>
 5    1  0.1196676E-004  0.1347449E+03  0.7818608E-02  0.1117214E+00
         21   -1    0    0  501  502  0.00000000000E+00  0.00000000000E+00  0.24918527146E+03  0.24918527146E+03  0.00000000000E+00 0. -1.
          4   -1    0    0  502    0 -0.00000000000E+00 -0.00000000000E+00 -0.10914703008E+03  0.10914703008E+03  0.00000000000E+00 0.  1.
        -13    1    1    2    0    0  0.76128316693E+02  0.11682316659E+03 -0.12326799416E+00  0.13943887268E+03  0.10566000000E+00 0.  1.
         13    1    1    2    0    0 -0.96362669261E+02 -0.86058062379E+02  0.93640901843E+02  0.15956310285E+03  0.10566000000E+00 0. -1.
          4    1    1    2  501    0  0.20234352568E+02 -0.30765104209E+02  0.46520607532E+02  0.59330326023E+02  0.00000000000E+00 0.  1.
</event>
<event>
 5    1  0.1196676E-004  0.1045268E+03  0.7818608E-02  0.1157276E+00
         21   -1    0    0  501  502  0.00000000000E+00  0.00000000000E+00  0.80316563806E+02  0.80316563806E+02  0.00000000000E+00 0.  1.
         -4   -1    0    0    0  501 -0.00000000000E+00 -0.00000000000E+00 -0.37064387496E+03  0.37064387496E+03  0.00000000000E+00 0. -1.
        -13    1    1    2    0    0 -0.13546896622E+03 -0.16512395225E+02 -0.87439173507E+02  0.16208059795E+03  0.10566000000E+00 0.  1.
         13    1    1    2    0    0  0.93686289546E+02 -0.26795972854E+02 -0.20676614546E+03  0.22857689096E+03  0.10566000000E+00 0. -1.
         -4    1    1    2    0  502  0.41782676676E+02  0.43308368079E+02  0.38780078138E+01  0.60302949849E+02  0.00000000000E+00 0. -1.
</event>
<event>
 5    1  0.1196676E-004  0.4638884E+03  0.7818608E-02  0.9560840E-01
         -4   -1    0    0    0  501 -0.00000000000E+00  0.00000000000E+00  0.29691899024E+04  0.29691899024E+04  0.00000000000E+00 0. -1.
         21   -1    0    0  501  502  0.00000000000E+00 -0.00000000000E+00 -0.25402698224E+03  0.25402698224E+03  0.00000000000E+00 0. -1.
        -13    1    1    2    0    0 -0.43312249194E+03 -0.14449466639E+03  0.65537736925E+03  0.79874483343E+03  0.10566000000E+00 0.  1.
         13    1    1    2    0    0  0.44539430352E+03  0.13833743732E+03  0.22175744730E+04  0.22660869106E+04  0.10566000000E+00 0. -1.
         -4    1    1    2    0  502 -0.12271811582E+02  0.61572290716E+01 -0.15778892207E+03  0.15838514058E+03  0.00000000000E+00 0. -1.
</event>
<event>
 5    1  0.1196676E-004  0.4666629E+03  0.7818608E-02  0.1008782E+00
         -4   -1    0    0    0  501 -0.00000000000E+00  0.00000000000E+00  0.74328492990E+03  0.74328492990E+03  0.00000000000E+00 0. -1.
         21   -1    0    0  501  502  0.00000000000E+00 -0.00000000000E+00 -0.38370130983E+03  0.38370130983E+03  0.00000000000E+00 0. -1.
        -13    1    1    2    0    0 -0.29106610465E+02  0.70202507536E+02  0.50621547293E+02  0.91313411126E+02  0.10566000000E+00 0.  1.
         13    1    1    2    0    0 -0.40570514405E+03  0.14650586151E+03  0.33944740008E+03  0.54889450713E+03  0.10566000000E+00 0. -1.
         -4    1    1    2    0  502  0.43481175452E+03 -0.21670836905E+03 -0.30485327296E+02  0.48677832148E+03  0.00000000000E+00 0. -1.
</event>
<event>
 5    1  0.1196676E-004  0.4215393E+03  0.7818608E-02  0.9888995E-01
          4   -1    0    0  502    0 -0.00000000000E+00  0.00000000000E+00  0.97324404936E+03  0.97324404936E+03  0.00000000000E+00 0.  1.
         21   -1    0    0  501  502  0.00000000000E+00 -0.00000000000E+00 -0.39223456563E+03  0.39223456563E+03  0.00000000000E+00 0.  1.
        -13    1    1    2    0    0 -0.26416218900E+03  0.64545046091E+02  0.51139960275E+03  0.57920401408E+03  0.10566000000E+00 0.  1.
         13    1    1    2    0    0 -0.19737468083E+03  0.17568213218E+02  0.21796581982E+03  0.29457514579E+03  0.10566000000E+00 0. -1.
          4    1    1    2  501    0  0.46153686983E+03 -0.82113259309E+02 -0.14835593884E+03  0.49169945511E+03  0.00000000000E+00 0.  1.
</event>
<event>
 5    1  0.1196676E-004  0.1390863E+03  0.7818608E-02  0.1112404E+00
          4   -1    0    0  502    0 -0.00000000000E+00  0.00000000000E+00  0.26712801156E+03  0.26712801156E+03  0.00000000000E+00 0.  1.
         21   -1    0    0  501  502  0.00000000000E+00 -0.00000000000E+00 -0.39325038442E+03  0.39325038442E+03  0.00000000000E+00 0.  1.
        -13    1    1    2    0    0  0.27461560354E+02 -0.16639395036E+03  0.10471336936E+03  0.19850940758E+03  0.10566000000E+00 0.  1.
         13    1    1    2    0    0 -0.32467666205E+02  0.11508754477E+03  0.81884180731E+02  0.14492868083E+03  0.10566000000E+00 0. -1.
          4    1    1    2  501    0  0.50061058512E+01  0.51306405588E+02 -0.31271992294E+03  0.31694030756E+03  0.00000000000E+00 0.  1.
</event>
<event>
 5    1  0.1196676E-004  0.1076383E+03  0.7818608E-02  0.1152501E+00
         21   -1    0    0  501  502  0.00000000000E+00  0.00000000000E+00  0.43824421847E+02  0.43824421847E+02  0.00000000000E+00 0. -1.
          4   -1    0    0  502    0 -0.00000000000E+00 -0.00000000000E+00 -0.76138466870E+03  0.76138466870E+03  0.00000000000E+00 0.  1.
        -13    1    1    2    0    0  0.23937138291E+02 -0.90461808882E+02 -0.32748792994E+03  0.34059459902E+03  0.10566000000E+00 0.  1.
         13    1    1    2    0    0  0.42277656377E+01  0.13519292460E+03 -0.38889102839E+03  0.41174172000E+03  0.10566000000E+00 0. -1.
          4    1    1    2  501    0 -0.28164903929E+02 -0.44731115714E+02 -0.11812885156E+01  0.52872771526E+02  0.00000000000E+00 0.  1.
</event>
<event>
 5    1  0.1196676E-004  0.5920119E+03  0.7818608E-02  0.9315509E-01
         21   -1    0    0  501  502  0.00000000000E+00  0.00000000000E+00  0.10629829798E+04  0.10629829798E+04  0.00000000000E+00 0.  1.
         -4   -1    0    0    0  501 -0.00000000000E+00 -0.00000000000E+00 -0.86887998972E+03  0.86887998972E+03  0.00000000000E+00 0. -1.
        -13    1    1    2    0    0  0.65000775998E+03  0.20176204064E+03 -0.62567264788E+02  0.68347105488E+03  0.10566000000E+00 0.  1.
         13    1    1    2    0    0 -0.16249329193E+03 -0.57483536234E+03  0.20817442762E+03  0.63259494718E+03  0.10566000000E+00 0. -1.
         -4    1    1    2    0  502 -0.48751446805E+03  0.37307332170E+03  0.48495827273E+02  0.61579696750E+03  0.00000000000E+00 0. -1.
</event>
<event>
 5    1  0.1196676E-004  0.3045595E+03  0.7818608E-02  0.1041887E+00
         21   -1    0    0  501  502  0.00000000000E+00  0.00000000000E+00  0.39480553074E+03  0.39480553074E+03  0.00000000000E+00 0. -1.
         -4   -1    0    0    0  501 -0.00000000000E+00 -0.00000000000E+00 -0.11119899909E+04  0.11119899909E+04  0.00000000000E+00 0. -1.
        -13    1    1    2    0    0  0.79479047449E+02 -0.56222623864E+02 -0.48983419109E+03  0.49941510625E+03  0.10566000000E+00 0.  1.
         13    1    1    2    0    0 -0.30301672581E+03  0.84376312872E+02  0.29953191234E+03  0.43434764414E+03  0.10566000000E+00 0. -1.
         -4    1    1    2    0  502  0.22353767836E+03 -0.28153689008E+02 -0.52688218139E+03  0.57303277124E+03  0.00000000000E+00 0. -1.
</event>
<event>
 5    1  0.1196676E-004  0.4977343E+03  0.7818608E-02  0.9836574E-01
         21   -1    0    0  501  502  0.00000000000E+00  0.00000000000E+00  0.43893402322E+03  0.43893402322E+03  0.00000000000E+00 0.  1.
          4   -1    0    0  502    0 -0.00000000000E+00 -0.00000000000E+00 -0.12186759831E+04  0.12186759831E+04  0.00000000000E+00 0.  1.
        -13    1    1    2    0    0  0.46744437844E+03  0.16527027665E+03 -0.34279803111E+02  0.49698453431E+03  0.10566000000E+00 0.  1.
         13    1    1    2    0    0  0.43154384387E+02 -0.13700186933E+03 -0.61680479979E+03  0.63330875984E+03  0.10566000000E+00 0. -1.
          4    1    1    2  501    0 -0.51059876283E+03 -0.28268407315E+02 -0.12865735703E+03  0.52731671221E+03  0.00000000000E+00 0.  1.
</event>
<event>
 5    1  0.1284233E-004  0.4742825E+03  0.7818608E-02  0.9770138E-01
         21   -1    0    0  501  502  0.00000000000E+00  0.00000000000E+00  0.49409578282E+03  0.49409578282E+03  0.00000000000E+00 0. -1.
         -4   -1    0    0    0  501 -0.00000000000E+00 -0.00000000000E+00 -0.78830200685E+03  0.78830200685E+03  0.00000000000E+00 0. -1.
        -13    1    1    2    0    0  0.87546178169E+02 -0.18895499952E+03 -0.13072330299E+03  0.24587988585E+03  0.10566000000E+00 0.  1.
         13    1    1    2    0    0  0.37338893960E+03 -0.72377791006E+02 -0.30562591281E+03  0.48791910661E+03  0.10566000000E+00 0. -1.
         -4    1    1    2    0  502 -0.46093511777E+03  0.26133279053E+03  0.14214299176E+03  0.54859879722E+03  0.00000000000E+00 0. -1.
</event>
<event>
 5    1  0.1196676E-004  0.2975458E+03  0.7818608E-02  0.1008324E+00
         21   -1    0    0  501  502  0.00000000000E+00  0.00000000000E+00  0.11759210926E+04  0.11759210926E+04  0.00000000000E+00 0. -1.
         -4   -1    0    0    0  501 -0.00000000000E+00 -0.00000000000E+00 -0.45213037475E+03  0.45213037475E+03  0.00000000000E+00 0. -1.
        -13    1    1    2    0    0  0.14386945231E+03  0.21681350671E+03 -0.12437382455E+03  0.28840141365E+03  0.10566000000E+00 0.  1.
         13    1    1    2    0    0 -0.12295569287E+03 -0.34591357174E+03 -0.10160597501E+03  0.38091742786E+03  0.10566000000E+00 0. -1.
         -4    1    1    2    0  502 -0.20913759440E+02  0.12910006503E+03  0.94977051741E+03  0.95873262585E+03  0.00000000000E+00 0. -1.
</event>
<event>
 5    1  0.1196676E-004  0.4954594E+03  0.7818608E-02  0.9584411E-01
         21   -1    0    0  501  502  0.00000000000E+00  0.00000000000E+00  0.11375183061E+03  0.11375183061E+03  0.00000000000E+00 0. -1.
         -4   -1    0    0    0  501 -0.00000000000E+00 -0.00000000000E+00 -0.43602532679E+04  0.43602532679E+04  0.00000000000E+00 0. -1.
        -13    1    1    2    0    0  0.33729679235E+03  0.93236946419E+02 -0.93684491987E+03  0.10000703322E+04  0.10566000000E+00 0.  1.
         13    1    1    2    0    0 -0.39176352915E+03  0.39148289430E+03 -0.14752218043E+04  0.15757591511E+04  0.10566000000E+00 0. -1.
         -4    1    1    2    0  502  0.54466736801E+02 -0.48471984072E+03 -0.18344347131E+04  0.18981756152E+04  0.00000000000E+00 0. -1.
</event>
<event>
 5    1  0.1196676E-004  0.3998367E+03  0.7818608E-02  0.9806531E-01
         -4   -1    0    0    0  501 -0.00000000000E+00  0.00000000000E+00  0.24864687147E+04  0.24864687147E+04  0.00000000000E+00 0. -1.
         21   -1    0    0  501  502  0.00000000000E+00 -0.00000000000E+00 -0.27849925860E+03  0.27849925860E+03  0.00000000000E+00 0. -1.
        -13    1    1    2    0    0 -0.33566216816E+03  0.30923756390E+03  0.11571591490E+04  0.12439108768E+04  0.10566000000E+00 0.  1.
         13    1    1    2    0    0 -0.10288352900E+02  0.30117541560E+03  0.60466593037E+02  0.30735761127E+03  0.10566000000E+00 0. -1.
         -4    1    1    2    0  502  0.34595052105E+03 -0.61041297950E+03  0.99034371402E+03  0.12136994852E+04  0.00000000000E+00 0. -1.
</event>
<event>
 5    1  0.1196676E-004  0.3051700E+03  0.7818608E-02  0.1016347E+00
         21   -1    0    0  501  502  0.00000000000E+00  0.00000000000E+00  0.39806018866E+03  0.39806018866E+03  0.00000000000E+00 0. -1.
         -4   -1    0    0    0  501 -0.00000000000E+00 -0.00000000000E+00 -0.94423165459E+03  0.94423165459E+03  0.00000000000E+00 0. -1.
        -13    1    1    2    0    0 -0.16698735987E+03 -0.13280674538E+03 -0.15662143577E+03  0.26467469709E+03  0.10566000000E+00 0.  1.
         13    1    1    2    0    0  0.35182768823E+03  0.34633633383E+03 -0.56094703286E+03  0.74725709309E+03  0.10566000000E+00 0. -1.
         -4    1    1    2    0  502 -0.18484032836E+03 -0.21352958845E+03  0.17139700270E+03  0.33036005307E+03  0.00000000000E+00 0. -1.
</event>
<event>
 5    1  0.1196676E-004  0.2787147E+03  0.7818608E-02  0.1034449E+00
         21   -1    0    0  501  502  0.00000000000E+00  0.00000000000E+00  0.16324360203E+03  0.16324360203E+03  0.00000000000E+00 0.  1.
          4   -1    0    0  502    0 -0.00000000000E+00 -0.00000000000E+00 -0.11236927857E+04  0.11236927857E+04  0.00000000000E+00 0.  1.
        -13    1    1    2    0    0 -0.19344062404E+03 -0.21969176096E+03 -0.65809514057E+03  0.72025896042E+03  0.10566000000E+00 0.  1.
         13    1    1    2    0    0  0.14709496026E+03 -0.61051489533E+02 -0.21783933047E+03  0.26984847002E+03  0.10566000000E+00 0. -1.
          4    1    1    2  501    0  0.46345663779E+02  0.28074325049E+03 -0.84514712666E+02  0.29682895732E+03  0.00000000000E+00 0.  1.
</event>
<event>
 5    1  0.1196676E-004  0.8800039E+02  0.7818608E-02  0.1186098E+00
         21   -1    0    0  501  502  0.00000000000E+00  0.00000000000E+00  0.66439857112E+03  0.66439857112E+03  0.00000000000E+00 0.  1.
         -4   -1    0    0    0  501 -0.00000000000E+00 -0.00000000000E+00 -0.90840029968E+02  0.90840029968E+02  0.00000000000E+00 0. -1.
        -13    1    1    2    0    0  0.30319003250E+02  0.75115902544E+02  0.34597619374E+03  0.35533249017E+03  0.10566000000E+00 0.  1.
         13    1    1    2    0    0 -0.22601292514E+02 -0.85558526132E+02 -0.63256723236E+02  0.10877731388E+03  0.10566000000E+00 0. -1.
         -4    1    1    2    0  502 -0.77177107360E+01  0.10442623588E+02  0.29083907065E+03  0.29112879704E+03  0.00000000000E+00 0. -1.
</event>
<event>
 5    1  0.1196676E-004  0.1052781E+03  0.7818608E-02  0.1156106E+00
         21   -1    0    0  501  502  0.00000000000E+00  0.00000000000E+00  0.12131549052E+04  0.12131549052E+04  0.00000000000E+00 0. -1.
         -4   -1    0    0    0  501 -0.00000000000E+00 -0.00000000000E+00 -0.22042451163E+02  0.22042451163E+02  0.00000000000E+00 0. -1.
        -13    1    1    2    0    0  0.84634554120E+02 -0.47435007003E+02  0.34399666289E+03  0.35741684751E+03  0.10566000000E+00 0.  1.
         13    1    1    2    0    0 -0.10340021683E+03  0.38789274589E+02  0.18580803573E+03  0.21615006355E+03  0.10566000000E+00 0. -1.
         -4    1    1    2    0  502  0.18765662712E+02  0.86457324148E+01  0.66130775541E+03  0.66163044530E+03  0.00000000000E+00 0. -1.
</event>
<event>
 5    1  0.1196676E-004  0.6279044E+02  0.7818608E-02  0.1247017E+00
         21   -1    0    0  501  502  0.00000000000E+00  0.00000000000E+00  0.10686695556E+03  0.10686695556E+03  0.00000000000E+00 0. -1.
         -4   -1    0    0    0  501 -0.00000000000E+00 -0.00000000000E+00 -0.13113929520E+03  0.13113929520E+03  0.00000000000E+00 0. -1.
        -13    1    1    2    0    0 -0.27733337000E+02  0.45653964285E+02  0.55972334507E+02  0.77371414813E+02  0.10566000000E+00 0.  1.
         13    1    1    2    0    0  0.31639039611E+02 -0.55629158878E+02 -0.11096673930E+03  0.12809863598E+03  0.10566000000E+00 0. -1.
         -4    1    1    2    0  502 -0.39057026111E+01  0.99751945935E+01  0.30722065161E+02  0.32536199960E+02  0.00000000000E+00 0. -1.
</event>
<event>
 5    1  0.1196676E-004  0.3681744E+03  0.7818608E-02  0.9825747E-01
          4   -1    0    0  502    0 -0.00000000000E+00  0.00000000000E+00  0.22272336205E+04  0.22272336205E+04  0.00000000000E+00 0.  1.
         21   -1    0    0  501  502  0.00000000000E+00 -0.00000000000E+00 -0.99280864188E+02  0.99280864188E+02  0.00000000000E+00 0.  1.
        -13    1    1    2    0    0 -0.36550139270E+03  0.25010971719E+03  0.12979761924E+04  0.13714548283E+04  0.10566000000E+00 0.  1.
         13    1    1    2    0    0  0.23127925658E+03 -0.19739596902E+03  0.69030389778E+03  0.75430414659E+03  0.10566000000E+00 0. -1.
          4    1    1    2  501    0  0.13422213613E+03 -0.52713748165E+02  0.13967266610E+03  0.20075550983E+03  0.00000000000E+00 0.  1.
</event>
<event>
 5    1  0.1196676E-004  0.1086816E+03  0.7818608E-02  0.1150939E+00
         -4   -1    0    0    0  501 -0.00000000000E+00  0.00000000000E+00  0.67263740201E+02  0.67263740201E+02  0.00000000000E+00 0. -1.
         21   -1    0    0  501  502  0.00000000000E+00 -0.00000000000E+00 -0.39656747791E+03  0.39656747791E+03  0.00000000000E+00 0.  1.
        -13    1    1    2    0    0 -0.94386823762E+02  0.43667125487E+02 -0.25130563402E+03  0.27197467382E+03  0.10566000000E+00 0.  1.
         13    1    1    2    0    0  0.91408027540E+02 -0.60941891162E+02  0.20819113390E+01  0.10988033089E+03  0.10566000000E+00 0. -1.
         -4    1    1    2    0  502  0.29787962216E+01  0.17274765675E+02 -0.80080015033E+02  0.81976213402E+02  0.00000000000E+00 0. -1.
</event>
<event>
 5    1  0.1196676E-004  0.4762931E+03  0.7818608E-02  0.9804912E-01
         -4   -1    0    0    0  501 -0.00000000000E+00  0.00000000000E+00  0.15991222764E+04  0.15991222764E+04  0.00000000000E+00 0. -1.
         21   -1    0    0  501  502  0.00000000000E+00 -0.00000000000E+00 -0.27931907761E+03  0.27931907761E+03  0.00000000000E+00 0. -1.
        -13    1    1    2    0    0 -0.10842122292E+03  0.14686773893E+03  0.61998426469E+03  0.64630162768E+03  0.10566000000E+00 0.  1.
         13    1    1    2    0    0  0.53297469159E+03 -0.20831995119E+03  0.49565516469E+03  0.75705566333E+03  0.10566000000E+00 0. -1.
         -4    1    1    2    0  502 -0.42455346867E+03  0.61452212262E+02  0.20416376936E+03  0.47508406295E+03  0.00000000000E+00 0. -1.
</event>
<event>
 5    1  0.1196676E-004  0.4767049E+03  0.7818608E-02  0.9692627E-01
          4   -1    0    0  502    0 -0.00000000000E+00  0.00000000000E+00  0.17055160217E+04  0.17055160217E+04  0.00000000000E+00 0.  1.
         21   -1    0    0  501  502  0.00000000000E+00 -0.00000000000E+00 -0.40739661871E+03  0.40739661871E+03  0.00000000000E+00 0.  1.
        -13    1    1    2    0    0 -0.51919954740E+03  0.16291684661E+03 -0.54343666334E+02  0.54686681575E+03  0.10566000000E+00 0.  1.
         13    1    1    2    0    0  0.13409162336E+03 -0.23227013427E+03  0.10133706118E+04  0.10482604575E+04  0.10566000000E+00 0. -1.
          4    1    1    2  501    0  0.38510792404E+03  0.69353287666E+02  0.33909245746E+03  0.51778536709E+03  0.00000000000E+00 0.  1.
</event>
<event>
 5    1  0.1196676E-004  0.2520083E+03  0.7818608E-02  0.1029357E+00
         -4   -1    0    0    0  501 -0.00000000000E+00  0.00000000000E+00  0.18967819760E+04  0.18967819760E+04  0.00000000000E+00 0. -1.
         21   -1    0    0  501  502  0.00000000000E+00 -0.00000000000E+00 -0.64236994815E+02  0.64236994815E+02  0.00000000000E+00 0.  1.
        -13    1    1    2    0    0 -0.25759886350E+03  0.27047239098E+02  0.11358506509E+04  0.11650087725E+04  0.10566000000E+00 0.  1.
         13    1    1    2    0    0  0.23786183055E+03 -0.50581339815E+02  0.71837188111E+03  0.75841604222E+03  0.10566000000E+00 0. -1.
         -4    1    1    2    0  502  0.19737032948E+02  0.23534100717E+02 -0.21677550811E+02  0.37594156132E+02  0.00000000000E+00 0. -1.
</event>
<event>
 5    1  0.1196676E-004  0.4690661E+03  0.7818608E-02  0.9744998E-01
         21   -1    0    0  501  502  0.00000000000E+00  0.00000000000E+00  0.43038962085E+03  0.43038962085E+03  0.00000000000E+00 0.  1.
          4   -1    0    0  502    0 -0.00000000000E+00 -0.00000000000E+00 -0.96680841589E+03  0.96680841589E+03  0.00000000000E+00 0.  1.
        -13    1    1    2    0    0  0.46426859376E+03  0.21350716528E+03 -0.30251643485E+03  0.59384075416E+03  0.10566000000E+00 0.  1.
         13    1    1    2    0    0  0.17610399757E+01 -0.23473365313E+03 -0.24149451129E+03  0.33678271826E+03  0.10566000000E+00 0. -1.
          4    1    1    2  501    0 -0.46602963374E+03  0.21226487856E+02  0.75921510949E+01  0.46657456432E+03  0.00000000000E+00 0.  1.
</event>
<event>
 5    1  0.1196676E-004  0.3383296E+03  0.7818608E-02  0.1042527E+00
          4   -1    0    0  502    0 -0.00000000000E+00  0.00000000000E+00  0.47413125036E+03  0.47413125036E+03  0.00000000000E+00 0.  1.
         21   -1    0    0  501  502  0.00000000000E+00 -0.00000000000E+00 -0.65038027497E+03  0.65038027497E+03  0.00000000000E+00 0.  1.
        -13    1    1    2    0    0 -0.31396280097E+03 -0.10533609074E+03 -0.47181503348E+03  0.57643539914E+03  0.10566000000E+00 0.  1.
         13    1    1    2    0    0 -0.41858315927E+02 -0.55675464199E+02  0.30340039674E+02  0.75976345645E+02  0.10566000000E+00 0. -1.
          4    1    1    2  501    0  0.35582111689E+03  0.16101155494E+03  0.26522596920E+03  0.47209978055E+03  0.00000000000E+00 0.  1.
</event>
<event>
 5    1  0.1196676E-004  0.4313951E+03  0.7818608E-02  0.1004641E+00
         21   -1    0    0  501  502  0.00000000000E+00  0.00000000000E+00  0.31256341968E+03  0.31256341968E+03  0.00000000000E+00 0. -1.
         -4   -1    0    0    0  501 -0.00000000000E+00 -0.00000000000E+00 -0.11625693564E+04  0.11625693564E+04  0.00000000000E+00 0. -1.
        -13    1    1    2    0    0 -0.92280281066E+02 -0.59842860356E+02 -0.32554956640E+03  0.34362675908E+03  0.10566000000E+00 0.  1.
         13    1    1    2    0    0 -0.78883622018E+02 -0.40423250426E+03 -0.17463998927E+01  0.41186114699E+03  0.10566000000E+00 0. -1.
         -4    1    1    2    0  502  0.17116390308E+03  0.46407536462E+03 -0.52270997044E+03  0.71964487003E+03  0.00000000000E+00 0. -1.
</event>
<event>
 5    1  0.1196676E-004  0.4103053E+03  0.7818608E-02  0.9862005E-01
         21   -1    0    0  501  502  0.00000000000E+00  0.00000000000E+00  0.36699503682E+03  0.36699503682E+03  0.00000000000E+00 0. -1.
         -4   -1    0    0    0  501 -0.00000000000E+00 -0.00000000000E+00 -0.11042396132E+04  0.11042396132E+04  0.00000000000E+00 0. -1.
        -13    1    1    2    0    0 -0.19181911161E+03  0.13626423246E+03 -0.20856410011E+03  0.31442249863E+03  0.10566000000E+00 0.  1.
         13    1    1    2    0    0  0.64810922875E+02 -0.43867002600E+03  0.93764575258E+02  0.45323686321E+03  0.10566000000E+00 0. -1.
         -4    1    1    2    0  502  0.12700818873E+03  0.30240579354E+03 -0.62244505148E+03  0.70357528814E+03  0.00000000000E+00 0. -1.
</event>
<event>
 5    1  0.1426384E-004  0.4623070E+03  0.7818608E-02  0.9852051E-01
          4   -1    0    0  502    0 -0.00000000000E+00  0.00000000000E+00  0.11806217129E+04  0.11806217129E+04  0.00000000000E+00 0.  1.
         21   -1    0    0  501  502  0.00000000000E+00 -0.00000000000E+00 -0.37707735271E+03  0.37707735271E+03  0.00000000000E+00 0.  1.
        -13    1    1    2    0    0 -0.16779708062E+03 -0.35504377932E+03  0.40096473784E+03  0.56123495761E+03  0.10566000000E+00 0.  1.
         13    1    1    2    0    0 -0.16948806256E+03 -0.14525895231E+02  0.46226777185E+03  0.49257355699E+03  0.10566000000E+00 0. -1.
          4    1    1    2  501    0  0.33728514318E+03  0.36956967455E+03 -0.59688149550E+02  0.50389055096E+03  0.00000000000E+00 0.  1.
</event>
<event>
 5    1  0.1196676E-004  0.4937382E+03  0.7818608E-02  0.9784216E-01
         21   -1    0    0  501  502  0.00000000000E+00  0.00000000000E+00  0.85803701073E+03  0.85803701073E+03  0.00000000000E+00 0. -1.
         -4   -1    0    0    0  501 -0.00000000000E+00 -0.00000000000E+00 -0.47034505790E+03  0.47034505790E+03  0.00000000000E+00 0. -1.
        -13    1    1    2    0    0  0.16618652397E+03  0.57610286302E+02 -0.99158649597E+02  0.20191422632E+03  0.10566000000E+00 0.  1.
         13    1    1    2    0    0 -0.58774718920E+03 -0.82460368337E+02  0.28884873790E+03  0.66006066033E+03  0.10566000000E+00 0. -1.
         -4    1    1    2    0  502  0.42156066523E+03  0.24850082035E+02  0.19800186452E+03  0.46640718198E+03  0.00000000000E+00 0. -1.
</event>
<event>
 5    1  0.1196676E-004  0.1972760E+03  0.7818608E-02  0.1062019E+00
         -4   -1    0    0    0  501 -0.00000000000E+00  0.00000000000E+00  0.33237364829E+03  0.33237364829E+03  0.00000000000E+00 0. -1.
         21   -1    0    0  501  502  0.00000000000E+00 -0.00000000000E+00 -0.26795082054E+03  0.26795082054E+03  0.00000000000E+00 0.  1.
        -13    1    1    2    0    0 -0.17398288810E+03 -0.16938954337E+03 -0.58355975118E+02  0.24973644858E+03  0.10566000000E+00 0.  1.
         13    1    1    2    0    0  0.13503360157E+03  0.12786650416E+03  0.18770981901E+03  0.26423266974E+03  0.10566000000E+00 0. -1.
         -4    1    1    2    0  502  0.38949286530E+02  0.41523039201E+02 -0.64931016141E+02  0.86355350516E+02  0.00000000000E+00 0. -1.
</event>
<event>
 5    1  0.1196676E-004  0.4247778E+03  0.7818608E-02  0.9798680E-01
          4   -1    0    0  502    0 -0.00000000000E+00  0.00000000000E+00  0.21510515173E+04  0.21510515173E+04  0.00000000000E+00 0.  1.
         21   -1    0    0  501  502  0.00000000000E+00 -0.00000000000E+00 -0.21685772384E+03  0.21685772384E+03  0.00000000000E+00 0.  1.
        -13    1    1    2    0    0  0.17347556411E+03  0.28907714793E+03  0.10246150619E+04  0.10786544419E+04  0.10566000000E+00 0.  1.
         13    1    1    2    0    0  0.24744992871E+03 -0.88744510840E+02  0.75288092475E+03  0.79745642730E+03  0.10566000000E+00 0. -1.
          4    1    1    2  501    0 -0.42092549282E+03 -0.20033263709E+03  0.15669780682E+03  0.49179837195E+03  0.00000000000E+00 0.  1.
</event>
<event>
 5    1  0.1196676E-004  0.6088227E+02  0.7818608E-02  0.1257879E+00
         21   -1    0    0  501  502  0.00000000000E+00  0.00000000000E+00  0.51597157096E+03  0.51597157096E+03  0.00000000000E+00 0. -1.
          4   -1    0    0  502    0 -0.00000000000E+00 -0.00000000000E+00 -0.19720728074E+02  0.19720728074E+02  0.00000000000E+00 0.  1.
        -13    1    1    2    0    0 -0.15349658844E+02  0.87768291105E+01 -0.69838617798E+00  0.17695865708E+02  0.10566000000E+00 0.  1.
         13    1    1    2    0    0 -0.40927191179E+02  0.49358049435E+02  0.18827721210E+03  0.19889588176E+03  0.10566000000E+00 0. -1.
          4    1    1    2  501    0  0.56276850023E+02 -0.58134878545E+02  0.30867201696E+03  0.31910055156E+03  0.00000000000E+00 0.  1.
</event>
<event>
 5    1  0.1196676E-004  0.4687468E+03  0.7818608E-02  0.9695542E-01
          4   -1    0    0  502    0 -0.00000000000E+00  0.00000000000E+00  0.12041833750E+04  0.12041833750E+04  0.00000000000E+00 0.  1.
         21   -1    0    0  501  502  0.00000000000E+00 -0.00000000000E+00 -0.62969380020E+03  0.62969380020E+03  0.00000000000E+00 0.  1.
        -13    1    1    2    0    0  0.87419123444E+02  0.24688266295E+03  0.34684731703E+03  0.43462193330E+03  0.10566000000E+00 0.  1.
         13    1    1    2    0    0  0.34131681129E+02  0.27714483341E+03  0.65511910521E+03  0.71214835780E+03  0.10566000000E+00 0. -1.
          4    1    1    2  501    0 -0.12155080457E+03 -0.52402749636E+03 -0.42747684746E+03  0.68710688408E+03  0.00000000000E+00 0.  1.
</event>
<event>
 5    1  0.1196676E-004  0.2816257E+03  0.7818608E-02  0.1015192E+00
         -4   -1    0    0    0  501 -0.00000000000E+00  0.00000000000E+00  0.15265941383E+04  0.15265941383E+04  0.00000000000E+00 0. -1.
         21   -1    0    0  501  502  0.00000000000E+00 -0.00000000000E+00 -0.10409959483E+03  0.10409959483E+03  0.00000000000E+00 0.  1.
        -13    1    1    2    0    0  0.27004554032E+03 -0.18388873661E+03  0.53122766701E+03  0.62365255284E+03  0.10566000000E+00 0.  1.
         13    1    1    2    0    0 -0.26633156045E+03  0.41069170264E+02  0.78214583801E+03  0.82726736907E+03  0.10566000000E+00 0. -1.
         -4    1    1    2    0  502 -0.37139798695E+01  0.14281956634E+03  0.10912103848E+03  0.17977381126E+03  0.00000000000E+00 0. -1.
</event>
<event>
 5    1  0.1196676E-004  0.5511855E+03  0.7818608E-02  0.9396776E-01
         21   -1    0    0  501  502  0.00000000000E+00  0.00000000000E+00  0.19174029629E+04  0.19174029629E+04  0.00000000000E+00 0.  1.
          4   -1    0    0  502    0 -0.00000000000E+00 -0.00000000000E+00 -0.41201060038E+03  0.41201060038E+03  0.00000000000E+00 0.  1.
        -13    1    1    2    0    0  0.31874685065E+03  0.38214230467E+03  0.88802760362E+03  0.10179515370E+04  0.10566000000E+00 0.  1.
         13    1    1    2    0    0 -0.58156312008E+03  0.10234995328E+03  0.21254600150E+03  0.62758823244E+03  0.10566000000E+00 0. -1.
          4    1    1    2  501    0  0.26281626943E+03 -0.48449225795E+03  0.40481875739E+03  0.68387379379E+03  0.00000000000E+00 0.  1.
</event>
<event>
 5    1  0.1196676E-004  0.3054100E+03  0.7818608E-02  0.1005097E+00
          4   -1    0    0  502    0 -0.00000000000E+00  0.00000000000E+00  0.78208854357E+03  0.78208854357E+03  0.00000000000E+00 0.  1.
         21   -1    0    0  501  502  0.00000000000E+00 -0.00000000000E+00 -0.27717056051E+03  0.27717056051E+03  0.00000000000E+00 0.  1.
        -13    1    1    2    0    0  0.29753174042E+03 -0.10435713156E+03  0.34851686860E+03  0.46997826155E+03  0.10566000000E+00 0.  1.
         13    1    1    2    0    0 -0.27985417323E+03  0.95928787251E+02  0.31345192031E+03  0.43101369817E+03  0.10566000000E+00 0. -1.
          4    1    1    2  501    0 -0.17677567194E+02  0.84283443042E+01 -0.15705080585E+03  0.15826714437E+03  0.00000000000E+00 0.  1.
</event>
<event>
 5    1  0.1196676E-004  0.9529988E+02  0.7818608E-02  0.1172575E+00
         -4   -1    0    0    0  501 -0.00000000000E+00  0.00000000000E+00  0.46066263915E+02  0.46066263915E+02  0.00000000000E+00 0. -1.
         21   -1    0    0  501  502  0.00000000000E+00 -0.00000000000E+00 -0.63698503543E+03  0.63698503543E+03  0.00000000000E+00 0.  1.
        -13    1    1    2    0    0 -0.87185276709E+02 -0.72175948341E+02 -0.46425893552E+03  0.47785668392E+03  0.10566000000E+00 0.  1.
         13    1    1    2    0    0  0.74755256494E+02  0.55598466609E+02 -0.18392297430E+02  0.94962232659E+02  0.10566000000E+00 0. -1.
         -4    1    1    2    0  502  0.12430020215E+02  0.16577481731E+02 -0.10826753857E+03  0.11023238277E+03  0.00000000000E+00 0. -1.
</event>
<event>
 5    1  0.1196676E-004  0.1822007E+03  0.7818608E-02  0.1073074E+00
         21   -1    0    0  501  502  0.00000000000E+00  0.00000000000E+00  0.12264326549E+04  0.12264326549E+04  0.00000000000E+00 0.  1.
         -4   -1    0    0    0  501 -0.00000000000E+00 -0.00000000000E+00 -0.51186708262E+02  0.51186708262E+02  0.00000000000E+00 0. -1.
        -13    1    1    2    0    0  0.17663169786E+03  0.45198221053E+02  0.35546929624E+03  0.39949977172E+03  0.10566000000E+00 0.  1.
         13    1    1    2    0    0 -0.18213102507E+03 -0.18032035278E+02  0.26166599755E+03  0.31932110802E+03  0.10566000000E+00 0. -1.
         -4    1    1    2    0  502  0.54993272093E+01 -0.27166185775E+02  0.55811065287E+03  0.55879848344E+03  0.00000000000E+00 0. -1.
</event>
<event>
 5    1  0.1196676E-004  0.3559237E+03  0.7818608E-02  0.9865765E-01
          4   -1    0    0  502    0 -0.00000000000E+00  0.00000000000E+00  0.22056571141E+04  0.22056571141E+04  0.00000000000E+00 0.  1.
         21   -1    0    0  501  502  0.00000000000E+00 -0.00000000000E+00 -0.40821814483E+03  0.40821814483E+03  0.00000000000E+00 0. -1.
        -13    1    1    2    0    0 -0.20087517174E+03  0.29762512450E+03  0.21034954077E+04  0.21339223253E+04  0.10566000000E+00 0.  1.
         13    1    1    2    0    0  0.18612288318E+03 -0.23099851245E+03 -0.21597887615E+03  0.36694539990E+03  0.10566000000E+00 0. -1.
          4    1    1    2  501    0  0.14752288566E+02 -0.66626612047E+02 -0.90077562244E+02  0.11300753369E+03  0.00000000000E+00 0.  1.
</event>
<event>
 5    1  0.1196676E-004  0.4350308E+03  0.7818608E-02  0.9846579E-01
         21   -1    0    0  501  502  0.00000000000E+00  0.00000000000E+00  0.82277278396E+03  0.82277278396E+03  0.00000000000E+00 0. -1.
         -4   -1    0    0    0  501 -0.00000000000E+00 -0.00000000000E+00 -0.45355218900E+03  0.45355218900E+03  0.00000000000E+00 0. -1.
        -13    1    1    2    0    0  0.17363682823E+03  0.11445544645E+03 -0.15406891358E+02  0.20853580221E+03  0.10566000000E+00 0.  1.
         13    1    1    2    0    0 -0.27829270979E+03  0.32448597639E+03 -0.63104504967E+02  0.43211129458E+03  0.10566000000E+00 0. -1.
         -4    1    1    2    0  502  0.10465588155E+03 -0.43894142283E+03  0.44773199128E+03  0.63567787616E+03  0.00000000000E+00 0. -1.
</event>
<event>
 5    1  0.1196676E-004  0.4702136E+03  0.7818608E-02  0.1057236E+00
         -4   -1    0    0    0  501 -0.00000000000E+00  0.00000000000E+00  0.53474243204E+03  0.53474243204E+03  0.00000000000E+00 0. -1.
         21   -1    0    0  501  502  0.00000000000E+00 -0.00000000000E+00 -0.50879108186E+03  0.50879108186E+03  0.00000000000E+00 0. -1.
        -13    1    1    2    0    0 -0.16216896311E+02 -0.42007744993E+01 -0.90751147198E+01  0.19052640330E+02  0.10566000000E+00 0.  1.
         13    1    1    2    0    0  0.54253828581E+02 -0.46531836734E+03  0.22107411430E+03  0.51801393425E+03  0.10566000000E+00 0. -1.
         -4    1    1    2    0  502 -0.38036932270E+02  0.46951914184E+03 -0.18604764940E+03  0.50646693932E+03  0.00000000000E+00 0. -1.
</event>
<event>
 5    1  0.1196676E-004  0.4938733E+03  0.7818608E-02  0.9911865E-01
         21   -1    0    0  501  502  0.00000000000E+00  0.00000000000E+00  0.30685185484E+03  0.30685185484E+03  0.00000000000E+00 0.  1.
          4   -1    0    0  502    0 -0.00000000000E+00 -0.00000000000E+00 -0.11854389365E+04  0.11854389365E+04  0.00000000000E+00 0.  1.
        -13    1    1    2    0    0  0.20835429330E+03  0.51036250485E+03 -0.30749963964E+03  0.63121900909E+03  0.10566000000E+00 0.  1.
         13    1    1    2    0    0  0.37974301946E+01 -0.11407935635E+03 -0.33382152682E+03  0.35279646108E+03  0.10566000000E+00 0. -1.
          4    1    1    2  501    0 -0.21215172350E+03 -0.39628314851E+03 -0.23726591517E+03  0.50827532113E+03  0.00000000000E+00 0.  1.
</event>
<event>
 5    1  0.1196676E-004  0.1930856E+03  0.7818608E-02  0.1064982E+00
         21   -1    0    0  501  502  0.00000000000E+00  0.00000000000E+00  0.11972792001E+03  0.11972792001E+03  0.00000000000E+00 0. -1.
          4   -1    0    0  502    0 -0.00000000000E+00 -0.00000000000E+00 -0.78709142281E+03  0.78709142281E+03  0.00000000000E+00 0.  1.
        -13    1    1    2    0    0  0.59068508776E+02 -0.18727090039E+03 -0.66371474929E+03  0.69215371013E+03  0.10566000000E+00 0.  1.
         13    1    1    2    0    0 -0.22219922701E+02  0.17399480527E+03 -0.10295914491E+01  0.17541091314E+03  0.10566000000E+00 0. -1.
          4    1    1    2  501    0 -0.36848586075E+02  0.13276095120E+02 -0.26191620555E+01  0.39254719553E+02  0.00000000000E+00 0.  1.
</event>
<event>
 5    1  0.1196676E-004  0.2086668E+03  0.7818608E-02  0.1054351E+00
         -4   -1    0    0    0  501 -0.00000000000E+00  0.00000000000E+00  0.27624404117E+03  0.27624404117E+03  0.00000000000E+00 0. -1.
         21   -1    0    0  501  502  0.00000000000E+00 -0.00000000000E+00 -0.11059509123E+04  0.11059509123E+04  0.00000000000E+00 0. -1.
        -13    1    1    2    0    0 -0.66061819337E+02  0.17373932874E+03  0.93424412967E+02  0.20803281094E+03  0.10566000000E+00 0.  1.
         13    1    1    2    0    0  0.24418122110E+03 -0.21749343405E+03 -0.11679786602E+03  0.34723135697E+03  0.10566000000E+00 0. -1.
         -4    1    1    2    0  502 -0.17811940176E+03  0.43754105304E+02 -0.80633341806E+03  0.82693078555E+03  0.00000000000E+00 0. -1.
</event>
<event>
 5    1  0.1196676E-004  0.4808557E+03  0.7818608E-02  0.9726443E-01
          4   -1    0    0  502    0 -0.00000000000E+00  0.00000000000E+00  0.28874598870E+04  0.28874598870E+04  0.00000000000E+00 0.  1.
         21   -1    0    0  501  502  0.00000000000E+00 -0.00000000000E+00 -0.15599340779E+03  0.15599340779E+03  0.00000000000E+00 0.  1.
        -13    1    1    2    0    0  0.74330331174E+02 -0.55282396421E+03  0.55128034745E+03  0.78425083116E+03  0.10566000000E+00 0.  1.
         13    1    1    2    0    0 -0.11535323864E+03  0.20167354695E+03  0.10315142067E+04  0.10573552663E+04  0.10566000000E+00 0. -1.
          4    1    1    2  501    0  0.41022907470E+02  0.35115041726E+03  0.11486719250E+04  0.12018471973E+04  0.00000000000E+00 0.  1.
</event>
<event>
 5    1  0.1196676E-004  0.5394413E+03  0.7818608E-02  0.9544915E-01
         21   -1    0    0  501  502  0.00000000000E+00  0.00000000000E+00  0.41824432969E+03  0.41824432969E+03  0.00000000000E+00 0. -1.
         -4   -1    0    0    0  501 -0.00000000000E+00 -0.00000000000E+00 -0.22563231254E+04  0.22563231254E+04  0.00000000000E+00 0. -1.
        -13    1    1    2    0    0 -0.27331855706E+03  0.15123837145E+03 -0.14539025235E+04  0.14870805754E+04  0.10566000000E+00 0.  1.
         13    1    1    2    0    0  0.34685064159E+03  0.42065496681E+03 -0.22042498956E+03  0.58808431016E+03  0.10566000000E+00 0. -1.
         -4    1    1    2    0  502 -0.73532084532E+02 -0.57189333825E+03 -0.16375128260E+03  0.59940256952E+03  0.00000000000E+00 0. -1.
</event>
<event>
 5    1  0.1196676E-004  0.1581769E+03  0.7818608E-02  0.1093316E+00
         21   -1    0    0  501  502  0.00000000000E+00  0.00000000000E+00  0.67795251726E+02  0.67795251726E+02  0.00000000000E+00 0.  1.
         -4   -1    0    0    0  501 -0.00000000000E+00 -0.00000000000E+00 -0.50039364407E+03  0.50039364407E+03  0.00000000000E+00 0. -1.
        -13    1    1    2    0    0  0.14257700608E+03  0.29059566833E+02 -0.10425313814E+03  0.17900108677E+03  0.10566000000E+00 0.  1.
         13    1    1    2    0    0 -0.15339040547E+03 -0.65575226440E+02 -0.29336038037E+03  0.33747451867E+03  0.10566000000E+00 0. -1.
         -4    1    1    2    0  502  0.10813399386E+02  0.36515659606E+02 -0.34984873837E+02  0.51713290363E+02  0.00000000000E+00 0. -1.
</event>
<event>
 5    1  0.1196676E-004  0.2046384E+03  0.7818608E-02  0.1057002E+00
         21   -1    0    0  501  502  0.00000000000E+00  0.00000000000E+00  0.12436043739E+04  0.12436043739E+04  0.00000000000E+00 0.  1.
         -4   -1    0    0    0  501 -0.00000000000E+00 -0.00000000000E+00 -0.60715377490E+02  0.60715377490E+02  0.00000000000E+00 0. -1.
        -13    1    1    2    0    0  0.64759193092E+02  0.17554661042E+03  0.22968901659E+03  0.29625566835E+03  0.10566000000E+00 0.  1.
         13    1    1    2    0    0 -0.74902674155E+02 -0.23210511165E+03  0.56162483143E+03  0.61229539921E+03  0.10566000000E+00 0. -1.
         -4    1    1    2    0  502  0.10143481063E+02  0.56558501232E+02  0.39157514838E+03  0.39576868382E+03  0.00000000000E+00 0. -1.
</event>
<event>
 5    1  0.1196676E-004  0.2724456E+03  0.7818608E-02  0.1029322E+00
         21   -1    0    0  501  502  0.00000000000E+00  0.00000000000E+00  0.12468895845E+03  0.12468895845E+03  0.00000000000E+00 0. -1.
         -4   -1    0    0    0  501 -0.00000000000E+00 -0.00000000000E+00 -0.17461358191E+04  0.17461358191E+04  0.00000000000E+00 0. -1.
        -13    1    1    2    0    0 -0.19862463718E+03  0.20331542530E+02 -0.10363260821E+03  0.22495521058E+03  0.10566000000E+00 0.  1.
         13    1    1    2    0    0  0.25882737479E+03  0.23169259575E+03 -0.11064453827E+04  0.11596958502E+04  0.10566000000E+00 0. -1.
         -4    1    1    2    0  502 -0.60202737607E+02 -0.25202413828E+03 -0.41136886971E+03  0.48617371675E+03  0.00000000000E+00 0. -1.
</event>
<event>
 5    1  0.1196676E-004  0.5042491E+03  0.7818608E-02  0.1021604E+00
          4   -1    0    0  502    0 -0.00000000000E+00  0.00000000000E+00  0.13231882564E+04  0.13231882564E+04  0.00000000000E+00 0.  1.
         21   -1    0    0  501  502  0.00000000000E+00 -0.00000000000E+00 -0.21938075661E+03  0.21938075661E+03  0.00000000000E+00 0.  1.
        -13    1    1    2    0    0 -0.49511250225E+03  0.97496935142E+00  0.66499703880E+03  0.82907081315E+03  0.10566000000E+00 0.  1.
         13    1    1    2    0    0 -0.14241582129E+02  0.37442370142E+02  0.79369744969E+02  0.88906250196E+02  0.10566000000E+00 0. -1.
          4    1    1    2  501    0  0.50935408438E+03 -0.38417339493E+02  0.35944071602E+03  0.62459194966E+03  0.00000000000E+00 0.  1.
</event>
<event>
 5    1  0.1196676E-004  0.4586622E+03  0.7818608E-02  0.9607238E-01
          4   -1    0    0  502    0 -0.00000000000E+00  0.00000000000E+00  0.75367118258E+03  0.75367118258E+03  0.00000000000E+00 0.  1.
         21   -1    0    0  501  502  0.00000000000E+00 -0.00000000000E+00 -0.80652173655E+03  0.80652173655E+03  0.00000000000E+00 0.  1.
        -13    1    1    2    0    0  0.34656863133E+03  0.37991605966E+02  0.21635031204E+03  0.41031773912E+03  0.10566000000E+00 0.  1.
         13    1    1    2    0    0  0.54801388060E+02 -0.40296752913E+03  0.18077572316E+03  0.44504594697E+03  0.10566000000E+00 0. -1.
          4    1    1    2  501    0 -0.40137001939E+03  0.36497592316E+03 -0.44997658918E+03  0.70482923305E+03  0.00000000000E+00 0.  1.
</event>
<event>
 5    1  0.1196676E-004  0.5542299E+02  0.7818608E-02  0.1271157E+00
         -4   -1    0    0    0  501 -0.00000000000E+00  0.00000000000E+00  0.33598198159E+03  0.33598198159E+03  0.00000000000E+00 0. -1.
         21   -1    0    0  501  502  0.00000000000E+00 -0.00000000000E+00 -0.50073274392E+02  0.50073274392E+02  0.00000000000E+00 0. -1.
        -13    1    1    2    0    0  0.54464295501E+02 -0.70120731271E+01  0.67190864970E+02  0.86776449301E+02  0.10566000000E+00 0.  1.
         13    1    1    2    0    0 -0.55640808081E+02 -0.55493016995E+01  0.25489947621E+03  0.26096062617E+03  0.10566000000E+00 0. -1.
         -4    1    1    2    0  502  0.11765125804E+01  0.12561374827E+02 -0.36181633987E+02  0.38318180507E+02  0.00000000000E+00 0. -1.
</event>
<event>
 5    1  0.1196676E-004  0.4415305E+03  0.7818608E-02  0.9847975E-01
         21   -1    0    0  501  502  0.00000000000E+00  0.00000000000E+00  0.96692182433E+03  0.96692182433E+03  0.00000000000E+00 0.  1.
          4   -1    0    0  502    0 -0.00000000000E+00 -0.00000000000E+00 -0.70099179789E+03  0.70099179789E+03  0.00000000000E+00 0.  1.
        -13    1    1    2    0    0  0.37444165990E+03 -0.78696526459E+02  0.38737762069E+03  0.54448244427E+03  0.10566000000E+00 0.  1.
         13    1    1    2    0    0  0.16682637609E+03 -0.10660571095E+03 -0.43002449784E+03  0.47340986182E+03  0.10566000000E+00 0. -1.
          4    1    1    2  501    0 -0.54126803599E+03  0.18530223741E+03  0.30857690359E+03  0.65002131612E+03  0.00000000000E+00 0.  1.
</event>
<event>
 5    1  0.1196676E-004  0.4201961E+03  0.7818608E-02  0.9709934E-01
         -4   -1    0    0    0  501 -0.00000000000E+00  0.00000000000E+00  0.23177803278E+04  0.23177803278E+04  0.00000000000E+00 0. -1.
         21   -1    0    0  501  502  0.00000000000E+00 -0.00000000000E+00 -0.22048536174E+03  0.22048536174E+03  0.00000000000E+00 0. -1.
        -13    1    1    2    0    0  0.33745194399E+03  0.14855936574E+03  0.56322954610E+03  0.67317994059E+03  0.10566000000E+00 0.  1.
         13    1    1    2    0    0 -0.38174586443E+03  0.28785076540E+03  0.12604805920E+04  0.13481095290E+04  0.10566000000E+00 0. -1.
         -4    1    1    2    0  502  0.44293920438E+02 -0.43641013113E+03  0.27358482799E+03  0.51697622001E+03  0.00000000000E+00 0. -1.
</event>
<event>
 5    1  0.1196676E-004  0.8683215E+03  0.7818608E-02  0.8909250E-01
         21   -1    0    0  501  502  0.00000000000E+00  0.00000000000E+00  0.49066467583E+03  0.49066467583E+03  0.00000000000E+00 0. -1.
          4   -1    0    0  502    0 -0.00000000000E+00 -0.00000000000E+00 -0.24456110646E+04  0.24456110646E+04  0.00000000000E+00 0.  1.
        -13    1    1    2    0    0 -0.87045025761E+03  0.37862320197E+03 -0.91292163165E+03  0.13169909251E+04  0.10566000000E+00 0.  1.
         13    1    1    2    0    0  0.71844237582E+03 -0.39093673831E+03 -0.11649461722E+04  0.14234080848E+04  0.10566000000E+00 0. -1.
          4    1    1    2  501    0  0.15200788179E+03  0.12313536338E+02  0.12292141501E+03  0.19587673055E+03  0.00000000000E+00 0.  1.
</event>
<event>
 5    1  0.1196676E-004  0.4757902E+03  0.7818608E-02  0.9667168E-01
          4   -1    0    0  502    0 -0.00000000000E+00  0.00000000000E+00  0.93891234732E+03  0.93891234732E+03  0.00000000000E+00 0.  1.
         21   -1    0    0  501  502  0.00000000000E+00 -0.00000000000E+00 -0.10894873462E+04  0.10894873462E+04  0.00000000000E+00 0. -1.
        -13    1    1    2    0    0  0.49555781205E+03 -0.44644836215E+03 -0.48240557282E+03  0.82316999034E+03  0.10566000000E+00 0.  1.
         13    1    1    2    0    0 -0.24600699916E+03  0.16256132450E+03  0.64833346908E+03  0.71223726815E+03  0.10566000000E+00 0. -1.
          4    1    1    2  501    0 -0.24955081288E+03  0.28388703764E+03 -0.31650289514E+03  0.49299243502E+03  0.00000000000E+00 0.  1.
</event>
<event>
 5    1  0.1196676E-004  0.4602585E+03  0.7818608E-02  0.9673469E-01
         21   -1    0    0  501  502  0.00000000000E+00  0.00000000000E+00  0.21611369771E+03  0.21611369771E+03  0.00000000000E+00 0.  1.
          4   -1    0    0  502    0 -0.00000000000E+00 -0.00000000000E+00 -0.21565919093E+04  0.21565919093E+04  0.00000000000E+00 0.  1.
        -13    1    1    2    0    0  0.64969034698E+01  0.24134465435E+03 -0.11243576251E+04  0.11499867531E+04  0.10566000000E+00 0.  1.
         13    1    1    2    0    0  0.62577165502E+02  0.31241636376E+03 -0.46399221056E+03  0.56285759177E+03  0.10566000000E+00 0. -1.
          4    1    1    2  501    0 -0.69074068972E+02 -0.55376101811E+03 -0.35212837591E+03  0.65986126216E+03  0.00000000000E+00 0.  1.
</event>
<event>
 5    1  0.1196676E-004  0.4008986E+03  0.7818608E-02  0.9726454E-01
          4   -1    0    0  502    0 -0.00000000000E+00  0.00000000000E+00  0.29705532118E+04  0.29705532118E+04  0.00000000000E+00 0.  1.
         21   -1    0    0  501  502  0.00000000000E+00 -0.00000000000E+00 -0.12437790292E+03  0.12437790292E+03  0.00000000000E+00 0.  1.
        -13    1    1    2    0    0 -0.85291770068E+02 -0.38363656212E+03  0.20201989945E+04  0.20580708652E+04  0.10566000000E+00 0.  1.
         13    1    1    2    0    0  0.45896544591E+01  0.42901545102E+03  0.83999296430E+03  0.94321975879E+03  0.10566000000E+00 0. -1.
          4    1    1    2  501    0  0.80702115608E+02 -0.45378888899E+02 -0.14016649918E+02  0.93640490688E+02  0.00000000000E+00 0.  1.
</event>
<event>
 5    1  0.1196676E-004  0.7036527E+03  0.7818608E-02  0.9117696E-01
         -4   -1    0    0    0  501 -0.00000000000E+00  0.00000000000E+00  0.18829552355E+04  0.18829552355E+04  0.00000000000E+00 0. -1.
         21   -1    0    0  501  502  0.00000000000E+00 -0.00000000000E+00 -0.47330668522E+03  0.47330668522E+03  0.00000000000E+00 0. -1.
        -13    1    1    2    0    0 -0.12026297927E+02 -0.66620427922E+03  0.60808816898E+03  0.90207760526E+03  0.10566000000E+00 0.  1.
         13    1    1    2    0    0 -0.29733019416E+03  0.75578864756E+03  0.31591177482E+03  0.87144821119E+03  0.10566000000E+00 0. -1.
         -4    1    1    2    0  502  0.30935649209E+03 -0.89584368342E+02  0.48564860646E+03  0.58273610426E+03  0.00000000000E+00 0. -1.
</event>
<event>
 5    1  0.1196676E-004  0.1508117E+03  0.7818608E-02  0.1100314E+00
          4   -1    0    0  502    0 -0.00000000000E+00  0.00000000000E+00  0.11558477445E+03  0.11558477445E+03  0.00000000000E+00 0.  1.
         21   -1    0    0  501  502  0.00000000000E+00 -0.00000000000E+00 -0.24750990868E+03  0.24750990868E+03  0.00000000000E+00 0. -1.
        -13    1    1    2    0    0 -0.14833651013E+03  0.58043005799E+01 -0.31101814441E+02  0.15167314913E+03  0.10566000000E+00 0.  1.
         13    1    1    2    0    0  0.15379573500E+03  0.16539210104E+02 -0.62720731186E+02  0.16691487309E+03  0.10566000000E+00 0. -1.
          4    1    1    2  501    0 -0.54592248678E+01 -0.22343510684E+02 -0.38102588612E+02  0.44506660904E+02  0.00000000000E+00 0.  1.
</event>
<event>
 5    1  0.1196676E-004  0.5043122E+03  0.7818608E-02  0.9468570E-01
         -4   -1    0    0    0  501 -0.00000000000E+00  0.00000000000E+00  0.26251813124E+04  0.26251813124E+04  0.00000000000E+00 0. -1.
         21   -1    0    0  501  502  0.00000000000E+00 -0.00000000000E+00 -0.22961166415E+03  0.22961166415E+03  0.00000000000E+00 0. -1.
        -13    1    1    2    0    0 -0.42755899756E+03  0.81794779072E+02  0.10110535724E+04  0.11007844565E+04  0.10566000000E+00 0.  1.
         13    1    1    2    0    0  0.73478271655E+03  0.19263188875E+02  0.80307407677E+03  0.10886710683E+04  0.10566000000E+00 0. -1.
         -4    1    1    2    0  502 -0.30722371899E+03 -0.10105796795E+03  0.58144199910E+03  0.66533745176E+03  0.00000000000E+00 0. -1.
</event>
<event>
 5    1  0.1196676E-004  0.1265302E+03  0.7818608E-02  0.1126876E+00
         21   -1    0    0  501  502  0.00000000000E+00  0.00000000000E+00  0.19351753420E+03  0.19351753420E+03  0.00000000000E+00 0.  1.
          4   -1    0    0  502    0 -0.00000000000E+00 -0.00000000000E+00 -0.24410893870E+03  0.24410893870E+03  0.00000000000E+00 0.  1.
        -13    1    1    2    0    0 -0.77545546652E+02  0.14958263146E+03  0.69570373701E+02  0.18228637771E+03  0.10566000000E+00 0.  1.
         13    1    1    2    0    0  0.66517969610E+02 -0.99624364867E+02 -0.15317403042E+03  0.19445294833E+03  0.10566000000E+00 0. -1.
          4    1    1    2  501    0  0.11027577041E+02 -0.49958266589E+02  0.33012252221E+02  0.60887146859E+02  0.00000000000E+00 0.  1.
</event>
<event>
 5    1  0.1196676E-004  0.4488684E+03  0.7818608E-02  0.9813273E-01
         -4   -1    0    0    0  501 -0.00000000000E+00  0.00000000000E+00  0.70354097366E+03  0.70354097366E+03  0.00000000000E+00 0. -1.
         21   -1    0    0  501  502  0.00000000000E+00 -0.00000000000E+00 -0.53870981891E+03  0.53870981891E+03  0.00000000000E+00 0. -1.
        -13    1    1    2    0    0 -0.15117766233E+03  0.14858507125E+03  0.45433743375E+02  0.21678663516E+03  0.10566000000E+00 0.  1.
         13    1    1    2    0    0  0.44956416536E+03  0.18515193825E+03  0.26623631370E+03  0.55432027287E+03  0.10566000000E+00 0. -1.
         -4    1    1    2    0  502 -0.29838650303E+03 -0.33373700950E+03 -0.14683890233E+03  0.47114388453E+03  0.00000000000E+00 0. -1.
</event>
<event>
 5    1  0.1196676E-004  0.4947858E+03  0.7818608E-02  0.9751346E-01
         -4   -1    0    0    0  501 -0.00000000000E+00  0.00000000000E+00  0.14633690923E+04  0.14633690923E+04  0.00000000000E+00 0. -1.
         21   -1    0    0  501  502  0.00000000000E+00 -0.00000000000E+00 -0.27455166656E+03  0.27455166656E+03  0.00000000000E+00 0. -1.
        -13    1    1    2    0    0 -0.19563554655E+03  0.37461901093E+01  0.71808813107E+02  0.20843180615E+03  0.10566000000E+00 0.  1.
         13    1    1    2    0    0 -0.10459243911E+03  0.46087025051E+03  0.37130158496E+03  0.60100403017E+03  0.10566000000E+00 0. -1.
         -4    1    1    2    0  502  0.30022798565E+03 -0.46461644062E+03  0.74570702770E+03  0.92848492256E+03  0.00000000000E+00 0. -1.
</event>
<event>
 5    1  0.1196676E-004  0.5209665E+03  0.7818608E-02  0.9626489E-01
         -4   -1    0    0    0  501 -0.00000000000E+00  0.00000000000E+00  0.77868991405E+03  0.77868991405E+03  0.00000000000E+00 0. -1.
         21   -1    0    0  501  502  0.00000000000E+00 -0.00000000000E+00 -0.72791185706E+03  0.72791185706E+03  0.00000000000E+00 0. -1.
        -13    1    1    2    0    0 -0.23498931048E+03 -0.10942239480E+03 -0.22142104790E+03  0.34091132005E+03  0.10566000000E+00 0.  1.
         13    1    1    2    0    0  0.64791772828E+03 -0.99298607340E+02  0.25298896603E+03  0.70261015089E+03  0.10566000000E+00 0. -1.
         -4    1    1    2    0  502 -0.41292841780E+03  0.20872100214E+03  0.19210138864E+02  0.46308030016E+03  0.00000000000E+00 0. -1.
</event>
<event>
 5    1  0.1196676E-004  0.1860747E+03  0.7818608E-02  0.1070126E+00
         21   -1    0    0  501  502  0.00000000000E+00  0.00000000000E+00  0.89663881082E+02  0.89663881082E+02  0.00000000000E+00 0.  1.
          4   -1    0    0  502    0 -0.00000000000E+00 -0.00000000000E+00 -0.14971410603E+04  0.14971410603E+04  0.00000000000E+00 0.  1.
        -13    1    1    2    0    0 -0.14988154650E+03 -0.11591075226E+03 -0.46001172641E+03  0.49750435181E+03  0.10566000000E+00 0.  1.
         13    1    1    2    0    0  0.13034742967E+03  0.13134690642E+03 -0.10074766282E+04  0.10243298442E+04  0.10566000000E+00 0. -1.
          4    1    1    2  501    0  0.19534116830E+02 -0.15436154158E+02  0.60011175405E+02  0.64970745332E+02  0.00000000000E+00 0.  1.
</event>
<event>
 5    1  0.1196676E-004  0.4261816E+03  0.7818608E-02  0.9686071E-01
         -4   -1    0    0    0  501 -0.00000000000E+00  0.00000000000E+00  0.32341581301E+04  0.32341581301E+04  0.00000000000E+00 0. -1.
         21   -1    0    0  501  502  0.00000000000E+00 -0.00000000000E+00 -0.17566381433E+03  0.17566381433E+03  0.00000000000E+00 0. -1.
        -13    1    1    2    0    0  0.35084463293E+03 -0.15614653233E+03  0.11541850880E+04  0.12163950528E+04  0.10566000000E+00 0.  1.
         13    1    1    2    0    0 -0.31785425017E+03  0.54445142169E+03  0.15224529321E+04  0.16478232965E+04  0.10566000000E+00 0. -1.
         -4    1    1    2    0  502 -0.32990382754E+02 -0.38830488936E+03  0.38185629576E+03  0.54560359517E+03  0.00000000000E+00 0. -1.
</event>
<event>
 5    1  0.1196676E-004  0.4624877E+03  0.7818608E-02  0.9928271E-01
         21   -1    0    0  501  502  0.00000000000E+00  0.00000000000E+00  0.21350411416E+03  0.21350411416E+03  0.00000000000E+00 0. -1.
         -4   -1    0    0    0  501 -0.00000000000E+00 -0.00000000000E+00 -0.15862552865E+04  0.15862552865E+04  0.00000000000E+00 0. -1.
        -13    1    1    2    0    0  0.81490747623E+02 -0.10333354191E+03 -0.23591970118E+03  0.27014196157E+03  0.10566000000E+00 0.  1.
         13    1    1    2    0    0  0.80379953204E+02  0.51438183724E+03 -0.86893106454E+03  0.10129614096E+04  0.10566000000E+00 0. -1.
         -4    1    1    2    0  502 -0.16187070083E+03 -0.41104829533E+03 -0.26790040662E+03  0.51665602943E+03  0.00000000000E+00 0. -1.
</event>
<event>
 5    1  0.1196676E-004  0.1026824E+03  0.7818608E-02  0.1187105E+00
         -4   -1    0    0    0  501 -0.00000000000E+00  0.00000000000E+00  0.13877769160E+03  0.13877769160E+03  0.00000000000E+00 0. -1.
         21   -1    0    0  501  502  0.00000000000E+00 -0.00000000000E+00 -0.82639226848E+03  0.82639226848E+03  0.00000000000E+00 0. -1.
        -13    1    1    2    0    0 -0.25251788339E+02 -0.47855647674E+02 -0.55612996523E+02  0.77592734035E+02  0.10566000000E+00 0.  1.
         13    1    1    2    0    0 -0.49868905716E+02  0.11726757810E+03  0.91502175859E+02  0.15687973732E+03  0.10566000000E+00 0. -1.
         -4    1    1    2    0  502  0.75120694056E+02 -0.69411930425E+02 -0.72350375622E+03  0.73069748872E+03  0.00000000000E+00 0. -1.
</event>
<event>
 5    1  0.1196676E-004  0.4038141E+03  0.7818608E-02  0.9871203E-01
          4   -1    0    0  502    0 -0.00000000000E+00  0.00000000000E+00  0.34156809200E+04  0.34156809200E+04  0.00000000000E+00 0.  1.
         21   -1    0    0  501  502  0.00000000000E+00 -0.00000000000E+00 -0.12337288004E+03  0.12337288004E+03  0.00000000000E+00 0.  1.
        -13    1    1    2    0    0 -0.88690426760E+02 -0.38089469372E+03  0.45300875109E+03  0.59846779298E+03  0.10566000000E+00 0.  1.
         13    1    1    2    0    0  0.21450429398E+03 -0.10606246349E+03  0.61000836237E+03  0.65526448983E+03  0.10566000000E+00 0. -1.
          4    1    1    2  501    0 -0.12581386722E+03  0.48695715721E+03  0.22292909265E+04  0.22853215173E+04  0.00000000000E+00 0.  1.
</event>
<event>
 5    1  0.1196676E-004  0.5010670E+03  0.7818608E-02  0.1020865E+00
         -4   -1    0    0    0  501 -0.00000000000E+00  0.00000000000E+00  0.47393058224E+03  0.47393058224E+03  0.00000000000E+00 0. -1.
         21   -1    0    0  501  502  0.00000000000E+00 -0.00000000000E+00 -0.10468792525E+04  0.10468792525E+04  0.00000000000E+00 0. -1.
        -13    1    1    2    0    0  0.10312574735E+02 -0.40495643626E+02  0.22551753347E+03  0.22935652469E+03  0.10566000000E+00 0.  1.
         13    1    1    2    0    0 -0.45711104471E+03  0.23181754311E+03 -0.52528886532E+03  0.73390618180E+03  0.10566000000E+00 0. -1.
         -4    1    1    2    0  502  0.44679846997E+03 -0.19132189949E+03 -0.27317733841E+03  0.55754712824E+03  0.00000000000E+00 0. -1.
</event>
<event>
 5    1  0.1196676E-004  0.5883412E+03  0.7818608E-02  0.9410809E-01
         21   -1    0    0  501  502  0.00000000000E+00  0.00000000000E+00  0.66386202750E+03  0.66386202750E+03  0.00000000000E+00 0. -1.
          4   -1    0    0  502    0 -0.00000000000E+00 -0.00000000000E+00 -0.14788773072E+04  0.14788773072E+04  0.00000000000E+00 0.  1.
        -13    1    1    2    0    0 -0.13772041957E+02  0.14066454210E+03 -0.45408503587E+03  0.47557272158E+03  0.10566000000E+00 0.  1.
         13    1    1    2    0    0 -0.71702785923E+03  0.65524213313E+02 -0.52402410068E+03  0.89051874921E+03  0.10566000000E+00 0. -1.
          4    1    1    2  501    0  0.73079990119E+03 -0.20618875542E+03  0.16309385682E+03  0.77664786394E+03  0.00000000000E+00 0.  1.
</event>
<event>
 5    1  0.1196676E-004  0.4409562E+03  0.7818608E-02  0.1033785E+00
         -4   -1    0    0    0  501 -0.00000000000E+00  0.00000000000E+00  0.12692801908E+04  0.12692801908E+04  0.00000000000E+00 0. -1.
         21   -1    0    0  501  502  0.00000000000E+00 -0.00000000000E+00 -0.22032918003E+03  0.22032918003E+03  0.00000000000E+00 0. -1.
        -13    1    1    2    0    0 -0.40556471147E+02  0.63003114847E+01  0.51092919057E+02  0.65536393084E+02  0.10566000000E+00 0.  1.
         13    1    1    2    0    0 -0.32998339797E+03  0.24949937664E+03  0.85811296715E+03  0.95262629475E+03  0.10566000000E+00 0. -1.
         -4    1    1    2    0  502  0.37053986912E+03 -0.25579968813E+03  0.13974512454E+03  0.47144668298E+03  0.00000000000E+00 0. -1.
</event>
<event>
 5    1  0.1196676E-004  0.1001408E+03  0.7818608E-02  0.1164323E+00
          4   -1    0    0  502    0 -0.00000000000E+00  0.00000000000E+00  0.41897112189E+03  0.41897112189E+03  0.00000000000E+00 0.  1.
         21   -1    0    0  501  502  0.00000000000E+00 -0.00000000000E+00 -0.73674666502E+02  0.73674666502E+02  0.00000000000E+00 0.  1.
        -13    1    1    2    0    0 -0.63846667691E+02 -0.11158985844E+03  0.28854200353E+03  0.31588794287E+03  0.10566000000E+00 0.  1.
         13    1    1    2    0    0  0.51264427491E+02  0.52016602721E+02  0.82910951809E+02  0.11048984378E+03  0.10566000000E+00 0. -1.
          4    1    1    2  501    0  0.12582240201E+02  0.59573255724E+02 -0.26156499949E+02  0.66268001748E+02  0.00000000000E+00 0.  1.
</event>
<event>
 5    1  0.1196676E-004  0.5131467E+02  0.7818608E-02  0.1294764E+00
         -4   -1    0    0    0  501 -0.00000000000E+00  0.00000000000E+00  0.75945864462E+02  0.75945864462E+02  0.00000000000E+00 0. -1.
         21   -1    0    0  501  502  0.00000000000E+00 -0.00000000000E+00 -0.31429190871E+03  0.31429190871E+03  0.00000000000E+00 0.  1.
        -13    1    1    2    0    0  0.12244431305E+02 -0.41880485892E+02 -0.90206392288E+02  0.10020531708E+03  0.10566000000E+00 0.  1.
         13    1    1    2    0    0  0.38054020091E+02  0.27340201725E+02  0.59589923298E+02  0.75806102644E+02  0.10566000000E+00 0. -1.
         -4    1    1    2    0  502 -0.50298451396E+02  0.14540284167E+02 -0.20772957526E+03  0.21422635346E+03  0.00000000000E+00 0. -1.
</event>
<event>
 5    1  0.1196676E-004  0.4907202E+03  0.7818608E-02  0.9836106E-01
         21   -1    0    0  501  502  0.00000000000E+00  0.00000000000E+00  0.43359473032E+03  0.43359473032E+03  0.00000000000E+00 0.  1.
          4   -1    0    0  502    0 -0.00000000000E+00 -0.00000000000E+00 -0.82474826684E+03  0.82474826684E+03  0.00000000000E+00 0.  1.
        -13    1    1    2    0    0 -0.38213008164E+03  0.33154164862E+03  0.13904023900E+02  0.50609939449E+03  0.10566000000E+00 0.  1.
         13    1    1    2    0    0 -0.53562113178E+02 -0.14024307297E+03 -0.48932059733E+02  0.15789672928E+03  0.10566000000E+00 0. -1.
          4    1    1    2  501    0  0.43569219482E+03 -0.19129857565E+03 -0.35612550069E+03  0.59434687339E+03  0.00000000000E+00 0.  1.
</event>
<event>
 5    1  0.1196676E-004  0.2224610E+03  0.7818608E-02  0.1087564E+00
         -4   -1    0    0    0  501 -0.00000000000E+00  0.00000000000E+00  0.11790313668E+03  0.11790313668E+03  0.00000000000E+00 0. -1.
         21   -1    0    0  501  502  0.00000000000E+00 -0.00000000000E+00 -0.25068607528E+04  0.25068607528E+04  0.00000000000E+00 0. -1.
        -13    1    1    2    0    0 -0.15903567201E+02 -0.64709403591E+02 -0.18817052445E+03  0.19962060966E+03  0.10566000000E+00 0.  1.
         13    1    1    2    0    0 -0.14642596579E+03  0.21440920136E+03 -0.51692335377E+02  0.26473378663E+03  0.10566000000E+00 0. -1.
         -4    1    1    2    0  502  0.16232953299E+03 -0.14969979777E+03 -0.21490947563E+04  0.21604094932E+04  0.00000000000E+00 0. -1.
</event>
<event>
 5    1  0.1196676E-004  0.2229925E+03  0.7818608E-02  0.1045422E+00
         21   -1    0    0  501  502  0.00000000000E+00  0.00000000000E+00  0.13434523568E+03  0.13434523568E+03  0.00000000000E+00 0.  1.
         -4   -1    0    0    0  501 -0.00000000000E+00 -0.00000000000E+00 -0.41104441090E+03  0.41104441090E+03  0.00000000000E+00 0. -1.
        -13    1    1    2    0    0 -0.10630877736E+03 -0.18762665152E+03 -0.73299415286E+02  0.22776771489E+03  0.10566000000E+00 0.  1.
         13    1    1    2    0    0  0.12054536457E+03  0.19360303726E+03 -0.19488771064E+03  0.29999091965E+03  0.10566000000E+00 0. -1.
         -4    1    1    2    0  502 -0.14236587205E+02 -0.59763857428E+01 -0.85120493073E+01  0.17631012030E+02  0.00000000000E+00 0. -1.
</event>
<event>
 5    1  0.1196676E-004  0.4395478E+03  0.7818608E-02  0.9758109E-01
          4   -1    0    0  502    0 -0.00000000000E+00  0.00000000000E+00  0.62217031666E+03  0.62217031666E+03  0.00000000000E+00 0.  1.
         21   -1    0    0  501  502  0.00000000000E+00 -0.00000000000E+00 -0.92202300301E+03  0.92202300301E+03  0.00000000000E+00 0.  1.
        -13    1    1    2    0    0 -0.25328999736E+03  0.38510833184E+03 -0.37551499998E+02  0.46246554070E+03  0.10566000000E+00 0.  1.
         13    1    1    2    0    0 -0.16813950667E+03 -0.21466205654E+03  0.26862973647E+03  0.38276969407E+03  0.10566000000E+00 0. -1.
          4    1    1    2  501    0  0.42142950404E+03 -0.17044627530E+03 -0.53093092282E+03  0.69895808490E+03  0.00000000000E+00 0.  1.
</event>
<event>
 5    1  0.1196676E-004  0.4480048E+03  0.7818608E-02  0.9879686E-01
          4   -1    0    0  502    0 -0.00000000000E+00  0.00000000000E+00  0.47238978596E+03  0.47238978596E+03  0.00000000000E+00 0.  1.
         21   -1    0    0  501  502  0.00000000000E+00 -0.00000000000E+00 -0.12735624306E+04  0.12735624306E+04  0.00000000000E+00 0.  1.
        -13    1    1    2    0    0 -0.37208303338E+03  0.16030951204E+03 -0.66209478136E+03  0.77621803254E+03  0.10566000000E+00 0.  1.
         13    1    1    2    0    0 -0.11415938758E+03  0.12638503987E+03  0.23671464352E+03  0.29161511911E+03  0.10566000000E+00 0. -1.
          4    1    1    2  501    0  0.48624242096E+03 -0.28669455191E+03 -0.37579250681E+03  0.67811906492E+03  0.00000000000E+00 0.  1.
</event>
<event>
 5    1  0.1196676E-004  0.1234208E+03  0.7818608E-02  0.1130743E+00
          4   -1    0    0  502    0 -0.00000000000E+00  0.00000000000E+00  0.15880839952E+03  0.15880839952E+03  0.00000000000E+00 0.  1.
         21   -1    0    0  501  502  0.00000000000E+00 -0.00000000000E+00 -0.29280083424E+03  0.29280083424E+03  0.00000000000E+00 0. -1.
        -13    1    1    2    0    0  0.33152868716E+02  0.98555542691E+02  0.28986630783E+02  0.10794694821E+03  0.10566000000E+00 0.  1.
         13    1    1    2    0    0 -0.55835801152E+02 -0.15024983300E+03  0.11085745772E+02  0.16067219402E+03  0.10566000000E+00 0. -1.
          4    1    1    2  501    0  0.22682932436E+02  0.51694290308E+02 -0.17406481128E+03  0.18299009153E+03  0.00000000000E+00 0.  1.
</event>
<event>
 5    1  0.1196676E-004  0.4147978E+02  0.7818608E-02  0.1330982E+00
          4   -1    0    0  502    0 -0.00000000000E+00  0.00000000000E+00  0.11629378821E+03  0.11629378821E+03  0.00000000000E+00 0.  1.
         21   -1    0    0  501  502  0.00000000000E+00 -0.00000000000E+00 -0.33616085190E+02  0.33616085190E+02  0.00000000000E+00 0.  1.
        -13    1    1    2    0    0  0.13128962437E+01 -0.41751251013E+02  0.67641044749E+02  0.79499765764E+02  0.10566000000E+00 0.  1.
         13    1    1    2    0    0 -0.12841160187E+02  0.39988867841E+02  0.29871878343E+02  0.51539744140E+02  0.10566000000E+00 0. -1.
          4    1    1    2  501    0  0.11528263944E+02  0.17623831718E+01 -0.14835220070E+02  0.18870363498E+02  0.00000000000E+00 0.  1.
</event>
<event>
 5    1  0.1196676E-004  0.3817625E+03  0.7818608E-02  0.9783245E-01
          4   -1    0    0  502    0 -0.00000000000E+00  0.00000000000E+00  0.94571312150E+03  0.94571312150E+03  0.00000000000E+00 0.  1.
         21   -1    0    0  501  502  0.00000000000E+00 -0.00000000000E+00 -0.39398103049E+03  0.39398103049E+03  0.00000000000E+00 0.  1.
        -13    1    1    2    0    0  0.40116842731E+03  0.68469877067E+02  0.40072439262E+03  0.57114296034E+03  0.10566000000E+00 0.  1.
         13    1    1    2    0    0 -0.28865061657E+03 -0.25670110650E+03  0.31196483225E+03  0.49652462603E+03  0.10566000000E+00 0. -1.
          4    1    1    2  501    0 -0.11251781074E+03  0.18823122944E+03 -0.16095713386E+03  0.27202656563E+03  0.00000000000E+00 0.  1.
</event>
<event>
 5    1  0.1196676E-004  0.1088358E+03  0.7818608E-02  0.1150710E+00
         -4   -1    0    0    0  501 -0.00000000000E+00  0.00000000000E+00  0.38944145815E+03  0.38944145815E+03  0.00000000000E+00 0. -1.
         21   -1    0    0  501  502  0.00000000000E+00 -0.00000000000E+00 -0.68176115860E+02  0.68176115860E+02  0.00000000000E+00 0.  1.
        -13    1    1    2    0    0  0.70363650899E+02  0.85165696806E+02  0.25516710879E+03  0.27805485763E+03  0.10566000000E+00 0.  1.
         13    1    1    2    0    0 -0.78538755441E+02 -0.71518560449E+02  0.97611892738E+02  0.14426133703E+03  0.10566000000E+00 0. -1.
         -4    1    1    2    0  502  0.81751045417E+01 -0.13647136357E+02 -0.31513659238E+02  0.35301379344E+02  0.00000000000E+00 0. -1.
</event>
<event>
 5    1  0.1196676E-004  0.3306489E+03  0.7818608E-02  0.1011690E+00
         -4   -1    0    0    0  501 -0.00000000000E+00  0.00000000000E+00  0.20947648240E+04  0.20947648240E+04  0.00000000000E+00 0. -1.
         21   -1    0    0  501  502  0.00000000000E+00 -0.00000000000E+00 -0.18715160157E+03  0.18715160157E+03  0.00000000000E+00 0.  1.
        -13    1    1    2    0    0  0.94450800141E+02  0.17013969505E+03  0.54838686116E+03  0.58189056543E+03  0.10566000000E+00 0.  1.
         13    1    1    2    0    0  0.21582301413E+03 -0.29113923980E+03  0.13150523348E+04  0.13640763486E+04  0.10566000000E+00 0. -1.
         -4    1    1    2    0  502 -0.31027381427E+03  0.12099954475E+03  0.44174026402E+02  0.33594951147E+03  0.00000000000E+00 0. -1.
</event>
<event>
 5    1  0.1196676E-004  0.4843419E+03  0.7818608E-02  0.9710134E-01
          4   -1    0    0  502    0 -0.00000000000E+00  0.00000000000E+00  0.24035151217E+04  0.24035151217E+04  0.00000000000E+00 0.  1.
         21   -1    0    0  501  502  0.00000000000E+00 -0.00000000000E+00 -0.17073086667E+03  0.17073086667E+03  0.00000000000E+00 0. -1.
        -13    1    1    2    0    0  0.67333693747E+02  0.57074090536E+03  0.66935685361E+03  0.88222311010E+03  0.10566000000E+00 0.  1.
         13    1    1    2    0    0 -0.18694903981E+02 -0.23986183104E+03  0.29720474827E+03  0.38237922405E+03  0.10566000000E+00 0. -1.
          4    1    1    2  501    0 -0.48638789766E+02 -0.33087907431E+03  0.12662226531E+04  0.13096436542E+04  0.00000000000E+00 0.  1.
</event>
<event>
 5    1  0.1196676E-004  0.2189381E+03  0.7818608E-02  0.1054399E+00
         21   -1    0    0  501  502  0.00000000000E+00  0.00000000000E+00  0.24313988088E+03  0.24313988088E+03  0.00000000000E+00 0. -1.
         -4   -1    0    0    0  501 -0.00000000000E+00 -0.00000000000E+00 -0.83204659913E+03  0.83204659913E+03  0.00000000000E+00 0. -1.
        -13    1    1    2    0    0 -0.17347209874E+03  0.49521306772E+02 -0.25445446871E+03  0.31191668226E+03  0.10566000000E+00 0.  1.
         13    1    1    2    0    0  0.13171202550E+03 -0.26134595950E+03 -0.43565269549E+03  0.52482668612E+03  0.10566000000E+00 0. -1.
         -4    1    1    2    0  502  0.41760073238E+02  0.21182465273E+03  0.10120044595E+03  0.23844311163E+03  0.00000000000E+00 0. -1.
</event>
<event>
 5    1  0.1196676E-004  0.1349932E+03  0.7818608E-02  0.1116933E+00
         -4   -1    0    0    0  501 -0.00000000000E+00  0.00000000000E+00  0.40205612669E+03  0.40205612669E+03  0.00000000000E+00 0. -1.
         21   -1    0    0  501  502  0.00000000000E+00 -0.00000000000E+00 -0.95268857001E+02  0.95268857001E+02  0.00000000000E+00 0. -1.
        -13    1    1    2    0    0  0.10675660946E+03  0.17264968555E+02  0.95750953733E+02  0.14444136910E+03  0.10566000000E+00 0.  1.
         13    1    1    2    0    0 -0.16952801427E+03 -0.85220620931E+02  0.15225790856E+03  0.24327922997E+03  0.10566000000E+00 0. -1.
         -4    1    1    2    0  502  0.62771404808E+02  0.67955652375E+02  0.58778407398E+02  0.10960438462E+03  0.00000000000E+00 0. -1.
</event>
<event>
 5    1  0.1196676E-004  0.4037177E+03  0.7818608E-02  0.1003135E+00
          4   -1    0    0  502    0 -0.00000000000E+00  0.00000000000E+00  0.36506858738E+03  0.36506858738E+03  0.00000000000E+00 0.  1.
         21   -1    0    0  501  502  0.00000000000E+00 -0.00000000000E+00 -0.90531243332E+03  0.90531243332E+03  0.00000000000E+00 0. -1.
        -13    1    1    2    0    0  0.16059433277E+03  0.34441525111E+03 -0.45975385342E+03  0.59647801453E+03  0.10566000000E+00 0.  1.
         13    1    1    2    0    0  0.12468550244E+03  0.65674870058E+02 -0.10186844544E+03  0.17388747631E+03  0.10566000000E+00 0. -1.
          4    1    1    2  501    0 -0.28527983521E+03 -0.41009012117E+03  0.21378452923E+02  0.50001552987E+03  0.00000000000E+00 0.  1.
</event>
<event>
 5    1  0.1196676E-004  0.1224803E+03  0.7818608E-02  0.1131938E+00
         -4   -1    0    0    0  501 -0.00000000000E+00  0.00000000000E+00  0.35360466368E+03  0.35360466368E+03  0.00000000000E+00 0. -1.
         21   -1    0    0  501  502  0.00000000000E+00 -0.00000000000E+00 -0.25061982126E+03  0.25061982126E+03  0.00000000000E+00 0. -1.
        -13    1    1    2    0    0  0.68641637218E+02  0.94284868023E+02  0.12956894509E+03  0.17432565329E+03  0.10566000000E+00 0.  1.
         13    1    1    2    0    0 -0.10302034114E+03 -0.14835050657E+03 -0.18528665421E+03  0.25875126836E+03  0.10566000000E+00 0. -1.
         -4    1    1    2    0  502  0.34378703920E+02  0.54065638547E+02  0.15870255154E+03  0.17114756329E+03  0.00000000000E+00 0. -1.
</event>
<event>
 5    1  0.1196676E-004  0.3041674E+03  0.7818608E-02  0.1005600E+00
         21   -1    0    0  501  502  0.00000000000E+00  0.00000000000E+00  0.39281066883E+03  0.39281066883E+03  0.00000000000E+00 0.  1.
         -4   -1    0    0    0  501 -0.00000000000E+00 -0.00000000000E+00 -0.34873937399E+03  0.34873937399E+03  0.00000000000E+00 0. -1.
        -13    1    1    2    0    0  0.12511146192E+03 -0.30294143312E+03 -0.16443963741E+02  0.32817191365E+03  0.10566000000E+00 0.  1.
         13    1    1    2    0    0 -0.63580632216E+02  0.28026317491E+03 -0.43257201541E+02  0.29062198928E+03  0.10566000000E+00 0. -1.
         -4    1    1    2    0  502 -0.61530829706E+02  0.22678258206E+02  0.10377246012E+03  0.12275613988E+03  0.00000000000E+00 0. -1.
</event>
<event>
 5    1  0.1196676E-004  0.5673094E+03  0.7818608E-02  0.9341511E-01
         -4   -1    0    0    0  501 -0.00000000000E+00  0.00000000000E+00  0.20803986380E+04  0.20803986380E+04  0.00000000000E+00 0. -1.
         21   -1    0    0  501  502  0.00000000000E+00 -0.00000000000E+00 -0.51111155977E+03  0.51111155977E+03  0.00000000000E+00 0.  1.
        -13    1    1    2    0    0  0.48586828589E+03 -0.58391130697E+03  0.85984616634E+03  0.11473255190E+04  0.10566000000E+00 0.  1.
         13    1    1    2    0    0 -0.51599293305E+03  0.77089084601E+02  0.77291294669E+03  0.93251588097E+03  0.10566000000E+00 0. -1.
         -4    1    1    2    0  502  0.30124647163E+02  0.50682222237E+03 -0.63472034788E+02  0.51166879781E+03  0.00000000000E+00 0. -1.
</event>
<event>
 5    1  0.1196676E-004  0.3155332E+03  0.7818608E-02  0.1011329E+00
         21   -1    0    0  501  502  0.00000000000E+00  0.00000000000E+00  0.12588233726E+03  0.12588233726E+03  0.00000000000E+00 0. -1.
         -4   -1    0    0    0  501 -0.00000000000E+00 -0.00000000000E+00 -0.35919393878E+04  0.35919393878E+04  0.00000000000E+00 0. -1.
        -13    1    1    2    0    0  0.21393671155E+03  0.74480081957E+02 -0.13006382135E+04  0.13202181534E+04  0.10566000000E+00 0.  1.
         13    1    1    2    0    0 -0.22858489140E+03  0.23174875827E+03 -0.14896896201E+03  0.35798086868E+03  0.10566000000E+00 0. -1.
         -4    1    1    2    0  502  0.14648179850E+02 -0.30622884022E+03 -0.20164498750E+04  0.20396227029E+04  0.00000000000E+00 0. -1.
</event>
<event>
 5    1  0.1209970E-004  0.2614830E+03  0.7818608E-02  0.1034953E+00
         21   -1    0    0  501  502  0.00000000000E+00  0.00000000000E+00  0.23989829589E+03  0.23989829589E+03  0.00000000000E+00 0.  1.
          4   -1    0    0  502    0 -0.00000000000E+00 -0.00000000000E+00 -0.20500751827E+04  0.20500751827E+04  0.00000000000E+00 0.  1.
        -13    1    1    2    0    0 -0.38907988262E+02 -0.22635568882E+03 -0.12716141691E+04  0.12921893575E+04  0.10566000000E+00 0.  1.
         13    1    1    2    0    0  0.31968618573E+03  0.10265051936E+03 -0.59747702585E+03  0.68535771247E+03  0.10566000000E+00 0. -1.
          4    1    1    2  501    0 -0.28077819746E+03  0.12370516946E+03  0.58914308110E+02  0.31242640865E+03  0.00000000000E+00 0.  1.
</event>
<event>
 5    1  0.1196676E-004  0.3284841E+03  0.7818608E-02  0.1012084E+00
         21   -1    0    0  501  502  0.00000000000E+00  0.00000000000E+00  0.58170128121E+03  0.58170128121E+03  0.00000000000E+00 0. -1.
         -4   -1    0    0    0  501 -0.00000000000E+00 -0.00000000000E+00 -0.77634811432E+03  0.77634811432E+03  0.00000000000E+00 0. -1.
        -13    1    1    2    0    0  0.67128234690E+01 -0.19586519424E+03 -0.22660083166E+03  0.29959336505E+03  0.10566000000E+00 0.  1.
         13    1    1    2    0    0  0.18476682831E+03 -0.93608408685E+02 -0.43197696646E+03  0.47906724553E+03  0.10566000000E+00 0. -1.
         -4    1    1    2    0  502 -0.19147965177E+03  0.28947360292E+03  0.46393096501E+03  0.57938878495E+03  0.00000000000E+00 0. -1.
</event>
<event>
 5    1  0.1196676E-004  0.5044384E+03  0.7818608E-02  0.9468297E-01
         21   -1    0    0  501  502  0.00000000000E+00  0.00000000000E+00  0.93493120707E+03  0.93493120707E+03  0.00000000000E+00 0.  1.
          4   -1    0    0  502    0 -0.00000000000E+00 -0.00000000000E+00 -0.84670785249E+03  0.84670785249E+03  0.00000000000E+00 0.  1.
        -13    1    1    2    0    0  0.64041270894E+03  0.21817025708E+03  0.28600095054E+03  0.73452246645E+03  0.10566000000E+00 0.  1.
         13    1    1    2    0    0 -0.45495065147E+03  0.18855588651E+03 -0.31548694465E+03  0.58486360890E+03  0.10566000000E+00 0. -1.
          4    1    1    2  501    0 -0.18546205746E+03 -0.40672614359E+03  0.11770934869E+03  0.46225298421E+03  0.00000000000E+00 0.  1.
</event>
<event>
 5    1  0.1196676E-004  0.4799318E+03  0.7818608E-02  0.9523076E-01
         -4   -1    0    0    0  501 -0.00000000000E+00  0.00000000000E+00  0.27584738083E+04  0.27584738083E+04  0.00000000000E+00 0. -1.
         21   -1    0    0  501  502  0.00000000000E+00 -0.00000000000E+00 -0.11915823058E+03  0.11915823058E+03  0.00000000000E+00 0.  1.
        -13    1    1    2    0    0 -0.32095660506E+03  0.38273399167E+03  0.14067660700E+04  0.14928125259E+04  0.10566000000E+00 0.  1.
         13    1    1    2    0    0  0.25184615851E+03 -0.38803199443E+03  0.12314786697E+04  0.13154980203E+04  0.10566000000E+00 0. -1.
         -4    1    1    2    0  502  0.69110446555E+02  0.52980027537E+01  0.10708380475E+01  0.69321492701E+02  0.00000000000E+00 0. -1.
</event>
<event>
 5    1  0.1196676E-004  0.1995222E+03  0.7818608E-02  0.1060464E+00
         21   -1    0    0  501  502  0.00000000000E+00  0.00000000000E+00  0.34550532145E+03  0.34550532145E+03  0.00000000000E+00 0. -1.
          4   -1    0    0  502    0 -0.00000000000E+00 -0.00000000000E+00 -0.31043418105E+03  0.31043418105E+03  0.00000000000E+00 0.  1.
        -13    1    1    2    0    0 -0.81900417078E+02 -0.17866310279E+03 -0.20433782620E+03  0.28351744390E+03  0.10566000000E+00 0.  1.
         13    1    1    2    0    0  0.38190793092E+02  0.21869339051E+03  0.16150540022E+03  0.27453477229E+03  0.10566000000E+00 0. -1.
          4    1    1    2  501    0  0.43709623987E+02 -0.40030287729E+02  0.77903566385E+02  0.97887286305E+02  0.00000000000E+00 0.  1.
</event>
<event>
 5    1  0.1196676E-004  0.1129714E+03  0.7818608E-02  0.1144714E+00
         21   -1    0    0  501  502  0.00000000000E+00  0.00000000000E+00  0.10484682065E+03  0.10484682065E+03  0.00000000000E+00 0.  1.
          4   -1    0    0  502    0 -0.00000000000E+00 -0.00000000000E+00 -0.24745066852E+03  0.24745066852E+03  0.00000000000E+00 0.  1.
        -13    1    1    2    0    0 -0.60510284994E+02  0.87840842272E+02 -0.14710613725E+03  0.18170782851E+03  0.10566000000E+00 0.  1.
         13    1    1    2    0    0  0.69487542531E+02 -0.11761923911E+03 -0.85066545759E+01  0.13687650753E+03  0.10566000000E+00 0. -1.
          4    1    1    2  501    0 -0.89772575367E+01  0.29778396841E+02  0.13008943956E+02  0.33713153133E+02  0.00000000000E+00 0.  1.
</event>
<event>
 5    1  0.1196676E-004  0.4327481E+03  0.7818608E-02  0.9638973E-01
          4   -1    0    0  502    0 -0.00000000000E+00  0.00000000000E+00  0.36049011655E+04  0.36049011655E+04  0.00000000000E+00 0.  1.
         21   -1    0    0  501  502  0.00000000000E+00 -0.00000000000E+00 -0.17251527418E+03  0.17251527418E+03  0.00000000000E+00 0. -1.
        -13    1    1    2    0    0 -0.38677585711E+03  0.22709365033E+03  0.21169726852E+04  0.21639640595E+04  0.10566000000E+00 0.  1.
         13    1    1    2    0    0  0.46290879453E+03  0.56082580057E+02  0.12184149509E+04  0.13045937343E+04  0.10566000000E+00 0. -1.
          4    1    1    2  501    0 -0.76132937418E+02 -0.28317623038E+03  0.96998255168E+02  0.30885864585E+03  0.00000000000E+00 0.  1.
</event>
<event>
 5    1  0.1196676E-004  0.4455236E+02  0.7818608E-02  0.1332933E+00
         -4   -1    0    0    0  501 -0.00000000000E+00  0.00000000000E+00  0.73137917421E+02  0.73137917421E+02  0.00000000000E+00 0. -1.
         21   -1    0    0  501  502  0.00000000000E+00 -0.00000000000E+00 -0.77888959765E+02  0.77888959765E+02  0.00000000000E+00 0. -1.
        -13    1    1    2    0    0 -0.28483589593E+02 -0.15210177295E+02 -0.14795006811E+02  0.35518555151E+02  0.10566000000E+00 0.  1.
         13    1    1    2    0    0  0.61987401236E+02 -0.88301298523E+01  0.30306885065E+02  0.69562400416E+02  0.10566000000E+00 0. -1.
         -4    1    1    2    0  502 -0.33503811643E+02  0.24040307147E+02 -0.20262920598E+02  0.45945921619E+02  0.00000000000E+00 0. -1.
</event>
<event>
 5    1  0.1196676E-004  0.4690368E+03  0.7818608E-02  0.9548548E-01
          4   -1    0    0  502    0 -0.00000000000E+00  0.00000000000E+00  0.12604514279E+04  0.12604514279E+04  0.00000000000E+00 0.  1.
         21   -1    0    0  501  502  0.00000000000E+00 -0.00000000000E+00 -0.21700813182E+03  0.21700813182E+03  0.00000000000E+00 0. -1.
        -13    1    1    2    0    0  0.22643225874E+03  0.41823246352E+03  0.34420737905E+03  0.58708491064E+03  0.10566000000E+00 0.  1.
         13    1    1    2    0    0 -0.26769627868E+03 -0.38186527742E+03  0.69260252219E+03  0.83497344426E+03  0.10566000000E+00 0. -1.
          4    1    1    2  501    0  0.41264019947E+02 -0.36367186098E+02  0.66333948162E+01  0.55401204804E+02  0.00000000000E+00 0.  1.
</event>
<event>
 5    1  0.1196676E-004  0.3350816E+03  0.7818608E-02  0.9991790E-01
         -4   -1    0    0    0  501 -0.00000000000E+00  0.00000000000E+00  0.10129977112E+04  0.10129977112E+04  0.00000000000E+00 0. -1.
         21   -1    0    0  501  502  0.00000000000E+00 -0.00000000000E+00 -0.54323664574E+03  0.54323664574E+03  0.00000000000E+00 0. -1.
        -13    1    1    2    0    0 -0.25402046139E+02  0.27935673390E+03 -0.18647153686E+03  0.33683392636E+03  0.10566000000E+00 0.  1.
         13    1    1    2    0    0 -0.20996135954E+03 -0.48415243106E+03  0.72810924928E+03  0.89923881091E+03  0.10566000000E+00 0. -1.
         -4    1    1    2    0  502  0.23536340568E+03  0.20479569716E+03 -0.71876646989E+02  0.32016161964E+03  0.00000000000E+00 0. -1.
</event>
<event>
 5    1  0.1196676E-004  0.8999356E+02  0.7818608E-02  0.1203998E+00
         21   -1    0    0  501  502  0.00000000000E+00  0.00000000000E+00  0.34393626072E+03  0.34393626072E+03  0.00000000000E+00 0. -1.
         -4   -1    0    0    0  501 -0.00000000000E+00 -0.00000000000E+00 -0.24371856578E+03  0.24371856578E+03  0.00000000000E+00 0. -1.
        -13    1    1    2    0    0  0.35193584579E+02  0.41691551302E+02 -0.10708846003E+03  0.12018620254E+03  0.10566000000E+00 0.  1.
         13    1    1    2    0    0 -0.12343722119E+03 -0.38135027666E+02 -0.89915638164E+02  0.15740349762E+03  0.10566000000E+00 0. -1.
         -4    1    1    2    0  502  0.88243636615E+02 -0.35565236360E+01  0.29722179313E+03  0.31006512634E+03  0.00000000000E+00 0. -1.
</event>
<event>
 5    1  0.1196676E-004  0.7584358E+03  0.7818608E-02  0.9042261E-01
          4   -1    0    0  502    0 -0.00000000000E+00  0.00000000000E+00  0.32509005209E+04  0.32509005209E+04  0.00000000000E+00 0.  1.
         21   -1    0    0  501  502  0.00000000000E+00 -0.00000000000E+00 -0.39414001033E+03  0.39414001033E+03  0.00000000000E+00 0.  1.
        -13    1    1    2    0    0  0.38680962382E+03 -0.60145764845E+03  0.12186135149E+04  0.14129373298E+04  0.10566000000E+00 0.  1.
         13    1    1    2    0    0 -0.82575110253E+03  0.35232483368E+03  0.14249984577E+04  0.16842263172E+04  0.10566000000E+00 0. -1.
          4    1    1    2  501    0  0.43894147871E+03  0.24913281477E+03  0.21314853793E+03  0.54787688430E+03  0.00000000000E+00 0.  1.
</event>
<event>
 5    1  0.1196676E-004  0.3764898E+03  0.7818608E-02  0.1012018E+00
         21   -1    0    0  501  502  0.00000000000E+00  0.00000000000E+00  0.15299359269E+03  0.15299359269E+03  0.00000000000E+00 0.  1.
          4   -1    0    0  502    0 -0.00000000000E+00 -0.00000000000E+00 -0.24934386042E+04  0.24934386042E+04  0.00000000000E+00 0.  1.
        -13    1    1    2    0    0  0.89345801955E+02  0.38352117563E+03 -0.16415514138E+03  0.42663577685E+03  0.10566000000E+00 0.  1.
         13    1    1    2    0    0 -0.10292584871E+03 -0.80135766941E+02 -0.78326527749E+03  0.79405288084E+03  0.10566000000E+00 0. -1.
          4    1    1    2  501    0  0.13580046756E+02 -0.30338540869E+03 -0.13930245926E+04  0.14257435392E+04  0.00000000000E+00 0.  1.
</event>
<event>
 5    1  0.1196676E-004  0.4436765E+03  0.7818608E-02  0.9785606E-01
         21   -1    0    0  501  502  0.00000000000E+00  0.00000000000E+00  0.27421475398E+03  0.27421475398E+03  0.00000000000E+00 0. -1.
         -4   -1    0    0    0  501 -0.00000000000E+00 -0.00000000000E+00 -0.15097145030E+04  0.15097145030E+04  0.00000000000E+00 0. -1.
        -13    1    1    2    0    0 -0.10986616912E+03 -0.21477808031E+03 -0.32774143794E+03  0.40695781133E+03  0.10566000000E+00 0.  1.
         13    1    1    2    0    0 -0.24716200740E+03 -0.14057071990E+03 -0.81708760897E+03  0.86514817060E+03  0.10566000000E+00 0. -1.
         -4    1    1    2    0  502  0.35702817652E+03  0.35534880021E+03 -0.90670702093E+02  0.51182327503E+03  0.00000000000E+00 0. -1.
</event>
<event>
 5    1  0.1196676E-004  0.1386151E+03  0.7818608E-02  0.1112916E+00
          4   -1    0    0  502    0 -0.00000000000E+00  0.00000000000E+00  0.29763006078E+03  0.29763006078E+03  0.00000000000E+00 0.  1.
         21   -1    0    0  501  502  0.00000000000E+00 -0.00000000000E+00 -0.13439995300E+03  0.13439995300E+03  0.00000000000E+00 0.  1.
        -13    1    1    2    0    0  0.94690813791E+02  0.10371783093E+03  0.20867588590E+03  0.25153404379E+03  0.10566000000E+00 0.  1.
         13    1    1    2    0    0 -0.83581849823E+02 -0.10365769103E+03  0.56972098316E+00  0.13315847054E+03  0.10566000000E+00 0. -1.
          4    1    1    2  501    0 -0.11108963968E+02 -0.60139900128E-01 -0.46015499100E+02  0.47337499455E+02  0.00000000000E+00 0.  1.
</event>
<event>
 5    1  0.1196676E-004  0.5958713E+03  0.7818608E-02  0.9522347E-01
         -4   -1    0    0    0  501 -0.00000000000E+00  0.00000000000E+00  0.16585749925E+04  0.16585749925E+04  0.00000000000E+00 0. -1.
         21   -1    0    0  501  502  0.00000000000E+00 -0.00000000000E+00 -0.59915376060E+03  0.59915376060E+03  0.00000000000E+00 0. -1.
        -13    1    1    2    0    0  0.37299737992E+03 -0.63784975243E+03  0.49888030344E+03  0.89154972964E+03  0.10566000000E+00 0.  1.
         13    1    1    2    0    0  0.49347021558E+02  0.21750721214E+03  0.71635501421E+03  0.75027263939E+03  0.10566000000E+00 0. -1.
         -4    1    1    2    0  502 -0.42234440148E+03  0.42034254029E+03 -0.15581408574E+03  0.61590638408E+03  0.00000000000E+00 0. -1.
</event>
<event>
 5    1  0.1196676E-004  0.3212485E+03  0.7818608E-02  0.1034378E+00
         21   -1    0    0  501  502  0.00000000000E+00  0.00000000000E+00  0.12781885796E+03  0.12781885796E+03  0.00000000000E+00 0. -1.
         -4   -1    0    0    0  501 -0.00000000000E+00 -0.00000000000E+00 -0.24085193424E+04  0.24085193424E+04  0.00000000000E+00 0. -1.
        -13    1    1    2    0    0  0.86473159373E+01  0.10387468555E+03 -0.25087796456E+03  0.27166981915E+03  0.10566000000E+00 0.  1.
         13    1    1    2    0    0  0.15656360741E+03  0.26777553194E+03 -0.15598362842E+03  0.34719850543E+03  0.10566000000E+00 0. -1.
         -4    1    1    2    0  502 -0.16521092335E+03 -0.37165021749E+03 -0.18738388915E+04  0.19174698758E+04  0.00000000000E+00 0. -1.
</event>
<event>
 5    1  0.1196676E-004  0.2114488E+03  0.7818608E-02  0.1052559E+00
         21   -1    0    0  501  502  0.00000000000E+00  0.00000000000E+00  0.20529875229E+03  0.20529875229E+03  0.00000000000E+00 0.  1.
         -4   -1    0    0    0  501 -0.00000000000E+00 -0.00000000000E+00 -0.11694631609E+04  0.11694631609E+04  0.00000000000E+00 0. -1.
        -13    1    1    2    0    0  0.19000752038E+03 -0.10704745031E+03 -0.10497928764E+03  0.24203858456E+03  0.10566000000E+00 0.  1.
         13    1    1    2    0    0 -0.13451139189E+03  0.16448341312E+03 -0.97174669940E+03  0.99470586944E+03  0.10566000000E+00 0. -1.
         -4    1    1    2    0  502 -0.55496128481E+02 -0.57435962811E+02  0.11256157843E+03  0.13801745918E+03  0.00000000000E+00 0. -1.
</event>
<event>
 5    1  0.1196676E-004  0.3763450E+03  0.7818608E-02  0.9973799E-01
         -4   -1    0    0    0  501 -0.00000000000E+00  0.00000000000E+00  0.15827700144E+04  0.15827700144E+04  0.00000000000E+00 0. -1.
         21   -1    0    0  501  502  0.00000000000E+00 -0.00000000000E+00 -0.27569355358E+03  0.27569355358E+03  0.00000000000E+00 0.  1.
        -13    1    1    2    0    0  0.20067152655E+03 -0.62090670050E+02  0.77927186712E+02  0.22404680419E+03  0.10566000000E+00 0.  1.
         13    1    1    2    0    0 -0.20054288987E+03 -0.32618716474E+03  0.41782267709E+02  0.38517695437E+03  0.10566000000E+00 0. -1.
         -4    1    1    2    0  502 -0.12863668640E+00  0.38827783479E+03  0.11873670064E+04  0.12492398095E+04  0.00000000000E+00 0. -1.
</event>
<event>
 5    1  0.1196676E-004  0.3632443E+03  0.7818608E-02  0.9841650E-01
         -4   -1    0    0    0  501 -0.00000000000E+00  0.00000000000E+00  0.27165522731E+04  0.27165522731E+04  0.00000000000E+00 0. -1.
         21   -1    0    0  501  502  0.00000000000E+00 -0.00000000000E+00 -0.10064894715E+03  0.10064894715E+03  0.00000000000E+00 0.  1.
        -13    1    1    2    0    0 -0.16418111779E+03  0.32767794553E+03  0.39585360326E+03  0.53947044572E+03  0.10566000000E+00 0.  1.
         13    1    1    2    0    0  0.59340857220E+02 -0.36076635982E+03  0.19830684730E+04  0.20164905860E+04  0.10566000000E+00 0. -1.
         -4    1    1    2    0  502  0.10484026057E+03  0.33088414286E+02  0.23698124973E+03  0.26124018856E+03  0.00000000000E+00 0. -1.
</event>
<event>
 5    1  0.2997814E-004  0.6055614E+03  0.7818608E-02  0.9272537E-01
         21   -1    0    0  501  502  0.00000000000E+00  0.00000000000E+00  0.11914469394E+04  0.11914469394E+04  0.00000000000E+00 0.  1.
         -4   -1    0    0    0  501 -0.00000000000E+00 -0.00000000000E+00 -0.12570984879E+04  0.12570984879E+04  0.00000000000E+00 0. -1.
        -13    1    1    2    0    0  0.22912512162E+03 -0.82748548600E+03  0.52059629566E+03  0.10041170575E+04  0.10566000000E+00 0.  1.
         13    1    1    2    0    0 -0.49204980155E+03  0.33161150323E+03 -0.64935427946E+03  0.87962502676E+03  0.10566000000E+00 0. -1.
         -4    1    1    2    0  502  0.26292467993E+03  0.49587398277E+03  0.63106435295E+02  0.56480334301E+03  0.00000000000E+00 0. -1.
</event>
<event>
 5    1  0.1196676E-004  0.4306794E+03  0.7818608E-02  0.1036368E+00
         21   -1    0    0  501  502  0.00000000000E+00  0.00000000000E+00  0.14689038944E+03  0.14689038944E+03  0.00000000000E+00 0.  1.
          4   -1    0    0  502    0 -0.00000000000E+00 -0.00000000000E+00 -0.15789247267E+04  0.15789247267E+04  0.00000000000E+00 0.  1.
        -13    1    1    2    0    0 -0.34438648369E+03  0.26322828882E+03 -0.38663702545E+03  0.58084368190E+03  0.10566000000E+00 0.  1.
         13    1    1    2    0    0 -0.16861765626E+02 -0.37048214659E+02 -0.97930233060E+02  0.10605296347E+03  0.10566000000E+00 0. -1.
          4    1    1    2  501    0  0.36124824932E+03 -0.22618007416E+03 -0.94746707873E+03  0.10389184707E+04  0.00000000000E+00 0.  1.
</event>
<event>
 5    1  0.1196676E-004  0.4884916E+03  0.7818608E-02  0.9806511E-01
          4   -1    0    0  502    0 -0.00000000000E+00  0.00000000000E+00  0.12253255394E+04  0.12253255394E+04  0.00000000000E+00 0.  1.
         21   -1    0    0  501  502  0.00000000000E+00 -0.00000000000E+00 -0.30504620248E+03  0.30504620248E+03  0.00000000000E+00 0.  1.
        -13    1    1    2    0    0 -0.46572908116E+03 -0.32001436211E+03  0.35881295669E+03  0.66937248079E+03  0.10566000000E+00 0.  1.
         13    1    1    2    0    0  0.58649046275E+02  0.15774492353E+03  0.31772835245E+03  0.35954761665E+03  0.10566000000E+00 0. -1.
          4    1    1    2  501    0  0.40708003488E+03  0.16226943858E+03  0.24373802774E+03  0.50145164439E+03  0.00000000000E+00 0.  1.
</event>
<event>
 5    1  0.1196676E-004  0.4258750E+03  0.7818608E-02  0.9889640E-01
         21   -1    0    0  501  502  0.00000000000E+00  0.00000000000E+00  0.22873373703E+03  0.22873373703E+03  0.00000000000E+00 0. -1.
         -4   -1    0    0    0  501 -0.00000000000E+00 -0.00000000000E+00 -0.17592306471E+04  0.17592306471E+04  0.00000000000E+00 0. -1.
        -13    1    1    2    0    0  0.14133281144E+03  0.12958722894E+03 -0.47002856563E+03  0.50763636313E+03  0.10566000000E+00 0.  1.
         13    1    1    2    0    0  0.29512309834E+03  0.34066500487E+02 -0.95808445698E+03  0.10030872382E+04  0.10566000000E+00 0. -1.
         -4    1    1    2    0  502 -0.43645590978E+03 -0.16365372943E+03 -0.10238388746E+03  0.47724078277E+03  0.00000000000E+00 0. -1.
</event>
<event>
 5    1  0.1196676E-004  0.3460831E+03  0.7818608E-02  0.9899168E-01
         21   -1    0    0  501  502  0.00000000000E+00  0.00000000000E+00  0.78089752256E+03  0.78089752256E+03  0.00000000000E+00 0. -1.
          4   -1    0    0  502    0 -0.00000000000E+00 -0.00000000000E+00 -0.55642939826E+03  0.55642939826E+03  0.00000000000E+00 0.  1.
        -13    1    1    2    0    0  0.23960788082E+03  0.28579997614E+03 -0.37110197986E+03  0.52612760195E+03  0.10566000000E+00 0.  1.
         13    1    1    2    0    0 -0.18387269098E+03 -0.21166379239E+03  0.86017499566E+02  0.29327418723E+03  0.10566000000E+00 0. -1.
          4    1    1    2  501    0 -0.55735189838E+02 -0.74136183750E+02  0.50955260460E+03  0.51792513163E+03  0.00000000000E+00 0.  1.
</event>
<event>
 5    1  0.1196676E-004  0.3768192E+03  0.7818608E-02  0.9798488E-01
         21   -1    0    0  501  502  0.00000000000E+00  0.00000000000E+00  0.21507743260E+03  0.21507743260E+03  0.00000000000E+00 0. -1.
          4   -1    0    0  502    0 -0.00000000000E+00 -0.00000000000E+00 -0.90924382556E+03  0.90924382556E+03  0.00000000000E+00 0.  1.
        -13    1    1    2    0    0  0.98969298503E+01  0.37846363935E+03 -0.62163928006E+03  0.72785168902E+03  0.10566000000E+00 0.  1.
         13    1    1    2    0    0  0.66750546213E+01 -0.37185495678E+03 -0.68295964083E+02  0.37813359426E+03  0.10566000000E+00 0. -1.
          4    1    1    2  501    0 -0.16571984472E+02 -0.66086825711E+01 -0.42311488084E+01  0.18335974882E+02  0.00000000000E+00 0.  1.
</event>
<event>
 5    1  0.1196676E-004  0.3031504E+03  0.7818608E-02  0.1006014E+00
          4   -1    0    0  502    0 -0.00000000000E+00  0.00000000000E+00  0.19798285732E+04  0.19798285732E+04  0.00000000000E+00 0.  1.
         21   -1    0    0  501  502  0.00000000000E+00 -0.00000000000E+00 -0.15226632415E+03  0.15226632415E+03  0.00000000000E+00 0.  1.
        -13    1    1    2    0    0 -0.17889276067E+03 -0.25888333445E+03  0.11641513798E+04  0.12059318583E+04  0.10566000000E+00 0.  1.
         13    1    1    2    0    0  0.13652203272E+03  0.25539938099E+03  0.76395330676E+03  0.81700169847E+03  0.10566000000E+00 0. -1.
          4    1    1    2  501    0  0.42370727956E+02  0.34839534534E+01 -0.10054243754E+03  0.10916134053E+03  0.00000000000E+00 0.  1.
</event>
<event>
 5    1  0.1196676E-004  0.1509647E+03  0.7818608E-02  0.1100164E+00
          4   -1    0    0  502    0 -0.00000000000E+00  0.00000000000E+00  0.11436084062E+04  0.11436084062E+04  0.00000000000E+00 0.  1.
         21   -1    0    0  501  502  0.00000000000E+00 -0.00000000000E+00 -0.40534728198E+02  0.40534728198E+02  0.00000000000E+00 0.  1.
        -13    1    1    2    0    0  0.17670680743E+03 -0.42378660499E+02  0.79421498942E+03  0.81473842873E+03  0.10566000000E+00 0.  1.
         13    1    1    2    0    0 -0.11492294219E+03  0.66151602580E+01  0.25564172722E+03  0.28036359758E+03  0.10566000000E+00 0. -1.
          4    1    1    2  501    0 -0.61783865239E+02  0.35763500241E+02  0.53216961343E+02  0.89041108079E+02  0.00000000000E+00 0.  1.
</event>
<event>
 5    1  0.1196676E-004  0.4991125E+03  0.7818608E-02  0.9691163E-01
         21   -1    0    0  501  502  0.00000000000E+00  0.00000000000E+00  0.46581038901E+03  0.46581038901E+03  0.00000000000E+00 0.  1.
          4   -1    0    0  502    0 -0.00000000000E+00 -0.00000000000E+00 -0.14710993599E+04  0.14710993599E+04  0.00000000000E+00 0.  1.
        -13    1    1    2    0    0  0.35333186214E+03  0.44899553276E+03  0.13096965137E+02  0.57149972432E+03  0.10566000000E+00 0.  1.
         13    1    1    2    0    0  0.29536853308E+02 -0.23300490737E+03 -0.87047105158E+03  0.90160056309E+03  0.10566000000E+00 0. -1.
          4    1    1    2  501    0 -0.38286871545E+03 -0.21599062539E+03 -0.14791488442E+03  0.46380946148E+03  0.00000000000E+00 0.  1.
</event>
<event>
 5    1  0.1196676E-004  0.3953599E+03  0.7818608E-02  0.9861069E-01
         21   -1    0    0  501  502  0.00000000000E+00  0.00000000000E+00  0.31139800874E+04  0.31139800874E+04  0.00000000000E+00 0. -1.
         -4   -1    0    0    0  501 -0.00000000000E+00 -0.00000000000E+00 -0.15961893708E+03  0.15961893708E+03  0.00000000000E+00 0. -1.
        -13    1    1    2    0    0  0.22501549540E+03  0.13774579201E+03  0.19102755004E+03  0.32572597751E+03  0.10566000000E+00 0.  1.
         13    1    1    2    0    0 -0.25804014941E+03  0.30549131486E+03  0.21699381886E+04  0.22064771505E+04  0.10566000000E+00 0. -1.
         -4    1    1    2    0  502  0.33024654006E+02 -0.44323710687E+03  0.59339541165E+03  0.74139589643E+03  0.00000000000E+00 0. -1.
</event>
<event>
 5    1  0.1196676E-004  0.2403270E+03  0.7818608E-02  0.1044174E+00
          4   -1    0    0  502    0 -0.00000000000E+00  0.00000000000E+00  0.11777385812E+04  0.11777385812E+04  0.00000000000E+00 0.  1.
         21   -1    0    0  501  502  0.00000000000E+00 -0.00000000000E+00 -0.30403915080E+03  0.30403915080E+03  0.00000000000E+00 0.  1.
        -13    1    1    2    0    0  0.16075735849E+03 -0.23160908064E+03  0.92703736790E+03  0.96896026089E+03  0.10566000000E+00 0.  1.
         13    1    1    2    0    0 -0.18472284073E+03 -0.89535964152E+01  0.11540876609E+03  0.21799515873E+03  0.10566000000E+00 0. -1.
          4    1    1    2  501    0  0.23965482239E+02  0.24056267705E+03 -0.16874670356E+03  0.29482231240E+03  0.00000000000E+00 0.  1.
</event>
<event>
 5    1  0.1196676E-004  0.6214901E+02  0.7818608E-02  0.1248968E+00
         -4   -1    0    0    0  501 -0.00000000000E+00  0.00000000000E+00  0.52621998581E+03  0.52621998581E+03  0.00000000000E+00 0. -1.
         21   -1    0    0  501  502  0.00000000000E+00 -0.00000000000E+00 -0.18410006696E+02  0.18410006696E+02  0.00000000000E+00 0.  1.
        -13    1    1    2    0    0 -0.23388175492E+02  0.59231122342E+02  0.38210549045E+03  0.38737572149E+03  0.10566000000E+00 0.  1.
         13    1    1    2    0    0  0.82853534466E+01 -0.58966773184E+02  0.12874283080E+03  0.14184658991E+03  0.10566000000E+00 0. -1.
         -4    1    1    2    0  502  0.15102822046E+02 -0.26434915796E+00 -0.30383421333E+01  0.15407681109E+02  0.00000000000E+00 0. -1.
</event>
<event>
 5    1  0.1196676E-004  0.4640981E+03  0.7818608E-02  0.9562950E-01
          4   -1    0    0  502    0 -0.00000000000E+00  0.00000000000E+00  0.23220789489E+04  0.23220789489E+04  0.00000000000E+00 0.  1.
         21   -1    0    0  501  502  0.00000000000E+00 -0.00000000000E+00 -0.39051544826E+03  0.39051544826E+03  0.00000000000E+00 0. -1.
        -13    1    1    2    0    0  0.58137168486E+03 -0.53181217004E+02  0.46882677191E+03  0.74874550484E+03  0.10566000000E+00 0.  1.
         13    1    1    2    0    0 -0.26374763775E+03  0.39454765686E+03  0.14181381378E+04  0.14954418942E+04  0.10566000000E+00 0. -1.
          4    1    1    2  501    0 -0.31762404711E+03 -0.34136643986E+03  0.44598590956E+02  0.46840699811E+03  0.00000000000E+00 0.  1.
</event>
<event>
 5    1  0.1196676E-004  0.4566130E+03  0.7818608E-02  0.9803513E-01
          4   -1    0    0  502    0 -0.00000000000E+00  0.00000000000E+00  0.14072957145E+04  0.14072957145E+04  0.00000000000E+00 0.  1.
         21   -1    0    0  501  502  0.00000000000E+00 -0.00000000000E+00 -0.36987046642E+03  0.36987046642E+03  0.00000000000E+00 0.  1.
        -13    1    1    2    0    0  0.34388889834E+03 -0.21314447291E+03  0.33933189288E+03  0.52804951039E+03  0.10566000000E+00 0.  1.
         13    1    1    2    0    0 -0.62773431840E+02 -0.19848960996E+03  0.72067355313E+03  0.75013932729E+03  0.10566000000E+00 0. -1.
          4    1    1    2  501    0 -0.28111546650E+03  0.41163408287E+03 -0.22580197966E+02  0.49897734320E+03  0.00000000000E+00 0.  1.
</event>
<event>
 5    1  0.1196676E-004  0.4771310E+03  0.7818608E-02  0.9925649E-01
         21   -1    0    0  501  502  0.00000000000E+00  0.00000000000E+00  0.99714289629E+02  0.99714289629E+02  0.00000000000E+00 0.  1.
          4   -1    0    0  502    0 -0.00000000000E+00 -0.00000000000E+00 -0.30353852567E+04  0.30353852567E+04  0.00000000000E+00 0.  1.
        -13    1    1    2    0    0  0.51385307100E+03  0.11392004701E+03 -0.12254088365E+04  0.13336602204E+04  0.10566000000E+00 0.  1.
         13    1    1    2    0    0 -0.80788717844E+02 -0.89946489665E+02 -0.54048993707E+03  0.55384706479E+03  0.10566000000E+00 0. -1.
          4    1    1    2  501    0 -0.43306435315E+03 -0.23973557343E+02 -0.11697721935E+04  0.12475922612E+04  0.00000000000E+00 0.  1.
</event>
<event>
 5    1  0.1196676E-004  0.8717086E+02  0.7818608E-02  0.1187726E+00
         21   -1    0    0  501  502  0.00000000000E+00  0.00000000000E+00  0.98427749293E+03  0.98427749293E+03  0.00000000000E+00 0.  1.
          4   -1    0    0  502    0 -0.00000000000E+00 -0.00000000000E+00 -0.78463979353E+02  0.78463979353E+02  0.00000000000E+00 0.  1.
        -13    1    1    2    0    0  0.62113333382E+01  0.87843414443E+02 -0.45835406837E+02  0.99277096083E+02  0.10566000000E+00 0.  1.
         13    1    1    2    0    0 -0.13457429673E+02 -0.77545601503E+02  0.25884538939E+03  0.27054642762E+03  0.10566000000E+00 0. -1.
          4    1    1    2  501    0  0.72460963347E+01 -0.10297812940E+02  0.69280353103E+03  0.69291794858E+03  0.00000000000E+00 0.  1.
</event>
<event>
 5    1  0.1196676E-004  0.3108791E+03  0.7818608E-02  0.1002913E+00
         21   -1    0    0  501  502  0.00000000000E+00  0.00000000000E+00  0.80589142085E+03  0.80589142085E+03  0.00000000000E+00 0.  1.
         -4   -1    0    0    0  501 -0.00000000000E+00 -0.00000000000E+00 -0.32212259709E+03  0.32212259709E+03  0.00000000000E+00 0. -1.
        -13    1    1    2    0    0 -0.21689632708E+02  0.30187086940E+03 -0.14943840087E+03  0.33753267809E+03  0.10566000000E+00 0.  1.
         13    1    1    2    0    0  0.67015392396E+02 -0.34135564580E+03  0.32366585365E+03  0.47515716949E+03  0.10566000000E+00 0. -1.
         -4    1    1    2    0  502 -0.45325759688E+02  0.39484776401E+02  0.30954137099E+03  0.31532417036E+03  0.00000000000E+00 0. -1.
</event>
<event>
 5    1  0.1196676E-004  0.2690677E+03  0.7818608E-02  0.1020959E+00
          4   -1    0    0  502    0 -0.00000000000E+00  0.00000000000E+00  0.10775292298E+03  0.10775292298E+03  0.00000000000E+00 0.  1.
         21   -1    0    0  501  502  0.00000000000E+00 -0.00000000000E+00 -0.13154195637E+04  0.13154195637E+04  0.00000000000E+00 0.  1.
        -13    1    1    2    0    0  0.25958369111E+02  0.27115137304E+03 -0.18097014163E+03  0.32702768591E+03  0.10566000000E+00 0.  1.
         13    1    1    2    0    0 -0.20358076152E+02 -0.26179969042E+03 -0.46252021168E+03  0.53186322165E+03  0.10566000000E+00 0. -1.
          4    1    1    2  501    0 -0.56002929588E+01 -0.93516826226E+01 -0.56417628743E+03  0.56428157913E+03  0.00000000000E+00 0.  1.
</event>
<event>
 5    1  0.1196676E-004  0.2050008E+03  0.7818608E-02  0.1056761E+00
         21   -1    0    0  501  502  0.00000000000E+00  0.00000000000E+00  0.70317754080E+03  0.70317754080E+03  0.00000000000E+00 0. -1.
          4   -1    0    0  502    0 -0.00000000000E+00 -0.00000000000E+00 -0.12237963185E+03  0.12237963185E+03  0.00000000000E+00 0.  1.
        -13    1    1    2    0    0  0.18435339450E+03 -0.84730040963E+02  0.53248389445E+02  0.20976357179E+03  0.10566000000E+00 0.  1.
         13    1    1    2    0    0 -0.18169995488E+03  0.10444568190E+03  0.20681330864E+03  0.29444104650E+03  0.10566000000E+00 0. -1.
          4    1    1    2  501    0 -0.26534396264E+01 -0.19715640940E+02  0.32073621087E+03  0.32135255437E+03  0.00000000000E+00 0.  1.
</event>
<event>
 5    1  0.1196676E-004  0.4023908E+02  0.7818608E-02  0.1337578E+00
         -4   -1    0    0    0  501 -0.00000000000E+00  0.00000000000E+00  0.51803918553E+02  0.51803918553E+02  0.00000000000E+00 0. -1.
         21   -1    0    0  501  502  0.00000000000E+00 -0.00000000000E+00 -0.39554373908E+03  0.39554373908E+03  0.00000000000E+00 0. -1.
        -13    1    1    2    0    0  0.13847468050E+02  0.40731988353E+02 -0.10930478565E+03  0.11746656791E+03  0.10566000000E+00 0.  1.
         13    1    1    2    0    0 -0.27685644266E+02 -0.29288595676E+02  0.38866388111E+02  0.55990392247E+02  0.10566000000E+00 0. -1.
         -4    1    1    2    0  502  0.13838176216E+02 -0.11443392677E+02 -0.27330142298E+03  0.27389069747E+03  0.00000000000E+00 0. -1.
</event>
<event>
 5    1  0.1196676E-004  0.4808627E+03  0.7818608E-02  0.9520933E-01
         21   -1    0    0  501  502  0.00000000000E+00  0.00000000000E+00  0.57624607634E+03  0.57624607634E+03  0.00000000000E+00 0. -1.
         -4   -1    0    0    0  501 -0.00000000000E+00 -0.00000000000E+00 -0.19400665849E+04  0.19400665849E+04  0.00000000000E+00 0. -1.
        -13    1    1    2    0    0 -0.44762773924E+03 -0.15076782635E+03 -0.53748452675E+03  0.71553557428E+03  0.10566000000E+00 0.  1.
         13    1    1    2    0    0  0.46863884490E+03  0.12667075905E+03 -0.12681061137E+04  0.13578516027E+04  0.10566000000E+00 0. -1.
         -4    1    1    2    0  502 -0.21011105660E+02  0.24097067303E+02  0.44177013188E+03  0.44292548429E+03  0.00000000000E+00 0. -1.
</event>
<event>
 5    1  0.1196676E-004  0.1149409E+03  0.7818608E-02  0.1146868E+00
         21   -1    0    0  501  502  0.00000000000E+00  0.00000000000E+00  0.12062537986E+03  0.12062537986E+03  0.00000000000E+00 0.  1.
          4   -1    0    0  502    0 -0.00000000000E+00 -0.00000000000E+00 -0.26536883007E+03  0.26536883007E+03  0.00000000000E+00 0.  1.
        -13    1    1    2    0    0  0.93728299293E+02 -0.10088636894E+03 -0.34714384506E+02  0.14201462312E+03  0.10566000000E+00 0.  1.
         13    1    1    2    0    0  0.19899855734E+02  0.99679109505E+02 -0.70350107953E+02  0.12361665738E+03  0.10566000000E+00 0. -1.
          4    1    1    2  501    0 -0.11362815503E+03  0.12072594318E+01 -0.39678957752E+02  0.12036292942E+03  0.00000000000E+00 0.  1.
</event>
<event>
 5    1  0.1196676E-004  0.4956829E+03  0.7818608E-02  0.9707136E-01
         -4   -1    0    0    0  501 -0.00000000000E+00  0.00000000000E+00  0.14220077718E+04  0.14220077718E+04  0.00000000000E+00 0. -1.
         21   -1    0    0  501  502  0.00000000000E+00 -0.00000000000E+00 -0.32914474296E+03  0.32914474296E+03  0.00000000000E+00 0.  1.
        -13    1    1    2    0    0  0.22606597494E+03 -0.18262095009E+02 -0.31367299384E+02  0.22896123640E+03  0.10566000000E+00 0.  1.
         13    1    1    2    0    0 -0.31468622690E+03  0.46980136270E+03  0.64632739432E+03  0.85876647210E+03  0.10566000000E+00 0. -1.
         -4    1    1    2    0  502  0.88620251965E+02 -0.45153926769E+03  0.47790293388E+03  0.66342480624E+03  0.00000000000E+00 0. -1.
</event>
<event>
 5    1  0.1196676E-004  0.3957280E+03  0.7818608E-02  0.1014340E+00
         21   -1    0    0  501  502  0.00000000000E+00  0.00000000000E+00  0.21532043329E+03  0.21532043329E+03  0.00000000000E+00 0.  1.
          4   -1    0    0  502    0 -0.00000000000E+00 -0.00000000000E+00 -0.15804923760E+04  0.15804923760E+04  0.00000000000E+00 0.  1.
        -13    1    1    2    0    0 -0.29280736621E+03  0.25958434074E+03 -0.74560097639E+02  0.39834583340E+03  0.10566000000E+00 0.  1.
         13    1    1    2    0    0  0.52861104168E+02  0.89910324150E+02 -0.36077321718E+03  0.37554691867E+03  0.10566000000E+00 0. -1.
          4    1    1    2  501    0  0.23994626204E+03 -0.34949466489E+03 -0.92983862788E+03  0.10219200572E+04  0.00000000000E+00 0.  1.
</event>
<event>
 5    1  0.1196676E-004  0.3417354E+03  0.7818608E-02  0.1032694E+00
         -4   -1    0    0    0  501 -0.00000000000E+00  0.00000000000E+00  0.34255474306E+03  0.34255474306E+03  0.00000000000E+00 0. -1.
         21   -1    0    0  501  502  0.00000000000E+00 -0.00000000000E+00 -0.12559337390E+04  0.12559337390E+04  0.00000000000E+00 0. -1.
        -13    1    1    2    0    0 -0.47746814315E+02 -0.77678160975E+02  0.12206366464E+03  0.15235880138E+03  0.10566000000E+00 0.  1.
         13    1    1    2    0    0 -0.31677610930E+03  0.12154359861E+03 -0.10240558326E+04  0.10788004029E+04  0.10566000000E+00 0. -1.
         -4    1    1    2    0  502  0.36452292362E+03 -0.43865437635E+02 -0.11386827951E+02  0.36732927778E+03  0.00000000000E+00 0. -1.
</event>
<event>
 5    1  0.1196676E-004  0.5803262E+02  0.7818608E-02  0.1262148E+00
         21   -1    0    0  501  502  0.00000000000E+00  0.00000000000E+00  0.10592434532E+03  0.10592434532E+03  0.00000000000E+00 0.  1.
         -4   -1    0    0    0  501 -0.00000000000E+00 -0.00000000000E+00 -0.12404294201E+03  0.12404294201E+03  0.00000000000E+00 0. -1.
        -13    1    1    2    0    0 -0.55524113721E+02  0.37119083189E+02  0.50847267397E+02  0.83941701836E+02  0.10566000000E+00 0.  1.
         13    1    1    2    0    0  0.50521531154E+02 -0.26554478728E+02 -0.98734509055E+02  0.11404420149E+03  0.10566000000E+00 0. -1.
         -4    1    1    2    0  502  0.50025825669E+01 -0.10564604462E+02  0.29768644972E+02  0.31981384010E+02  0.00000000000E+00 0. -1.
</event>
<event>
 5    1  0.1196676E-004  0.2297493E+03  0.7818608E-02  0.1041456E+00
         21   -1    0    0  501  502  0.00000000000E+00  0.00000000000E+00  0.77322930460E+02  0.77322930460E+02  0.00000000000E+00 0. -1.
          4   -1    0    0  502    0 -0.00000000000E+00 -0.00000000000E+00 -0.12445055265E+04  0.12445055265E+04  0.00000000000E+00 0.  1.
        -13    1    1    2    0    0 -0.22215142054E+03  0.51581712858E+02 -0.93181975446E+03  0.95932267393E+03  0.10566000000E+00 0.  1.
         13    1    1    2    0    0  0.23100740459E+03 -0.46106956743E+02 -0.25067531296E+03  0.34398894768E+03  0.10566000000E+00 0. -1.
          4    1    1    2  501    0 -0.88559840522E+01 -0.54747561149E+01  0.15312471434E+02  0.18516835298E+02  0.00000000000E+00 0.  1.
</event>
<event>
 5    1  0.1196676E-004  0.1650439E+03  0.7818608E-02  0.1097940E+00
          4   -1    0    0  502    0 -0.00000000000E+00  0.00000000000E+00  0.30822312463E+03  0.30822312463E+03  0.00000000000E+00 0.  1.
         21   -1    0    0  501  502  0.00000000000E+00 -0.00000000000E+00 -0.36669733212E+03  0.36669733212E+03  0.00000000000E+00 0.  1.
        -13    1    1    2    0    0  0.23864089131E+03  0.83587456840E+02  0.70545985768E+02  0.26251301914E+03  0.10566000000E+00 0.  1.
         13    1    1    2    0    0 -0.12160409741E+03  0.16510243999E+02  0.84605363546E+02  0.14905778534E+03  0.10566000000E+00 0. -1.
          4    1    1    2  501    0 -0.11703679389E+03 -0.10009770084E+03 -0.21362555680E+03  0.26334965228E+03  0.00000000000E+00 0.  1.
</event>
<event>
 5    1  0.1196676E-004  0.4318725E+03  0.7818608E-02  0.1019958E+00
          4   -1    0    0  502    0 -0.00000000000E+00  0.00000000000E+00  0.11985639592E+04  0.11985639592E+04  0.00000000000E+00 0.  1.
         21   -1    0    0  501  502  0.00000000000E+00 -0.00000000000E+00 -0.27153565535E+03  0.27153565535E+03  0.00000000000E+00 0.  1.
        -13    1    1    2    0    0 -0.16422380996E+03  0.39709810402E+03  0.32489692710E+02  0.43094309981E+03  0.10566000000E+00 0.  1.
         13    1    1    2    0    0  0.58739395173E+02  0.32548438734E+02  0.23933342212E+03  0.24857637763E+03  0.10566000000E+00 0. -1.
          4    1    1    2  501    0  0.10548441479E+03 -0.42964654276E+03  0.65520518903E+03  0.79058013711E+03  0.00000000000E+00 0.  1.
</event>
<event>
 5    1  0.1196676E-004  0.4952097E+03  0.7818608E-02  0.9878493E-01
         21   -1    0    0  501  502  0.00000000000E+00  0.00000000000E+00  0.73054332335E+03  0.73054332335E+03  0.00000000000E+00 0. -1.
         -4   -1    0    0    0  501 -0.00000000000E+00 -0.00000000000E+00 -0.75110326822E+03  0.75110326822E+03  0.00000000000E+00 0. -1.
        -13    1    1    2    0    0 -0.47104309984E+02  0.11751918889E+03 -0.38893428972E+03  0.40902257720E+03  0.10566000000E+00 0.  1.
         13    1    1    2    0    0  0.50023275796E+03  0.71553841130E+02  0.26604802352E+03  0.57108171596E+03  0.10566000000E+00 0. -1.
         -4    1    1    2    0  502 -0.45312844798E+03 -0.18907303002E+03  0.10232632133E+03  0.50154229840E+03  0.00000000000E+00 0. -1.
</event>
<event>
 5    1  0.1196676E-004  0.4410873E+03  0.7818608E-02  0.9652330E-01
         21   -1    0    0  501  502  0.00000000000E+00  0.00000000000E+00  0.66122696470E+03  0.66122696470E+03  0.00000000000E+00 0. -1.
         -4   -1    0    0    0  501 -0.00000000000E+00 -0.00000000000E+00 -0.15103077363E+04  0.15103077363E+04  0.00000000000E+00 0. -1.
        -13    1    1    2    0    0 -0.26353313261E+03 -0.28732566869E+03 -0.10281074842E+04  0.10995502544E+04  0.10566000000E+00 0.  1.
         13    1    1    2    0    0 -0.24840204204E+03  0.25770580631E+03 -0.22183721009E+03  0.42110285684E+03  0.10566000000E+00 0. -1.
         -4    1    1    2    0  502  0.51193517465E+03  0.29619862387E+02  0.40086392269E+03  0.65088158970E+03  0.00000000000E+00 0. -1.
</event>
<event>
 5    1  0.1196676E-004  0.1044470E+04  0.7818608E-02  0.8733894E-01
         21   -1    0    0  501  502  0.00000000000E+00  0.00000000000E+00  0.11557471276E+04  0.11557471276E+04  0.00000000000E+00 0.  1.
         -4   -1    0    0    0  501 -0.00000000000E+00 -0.00000000000E+00 -0.13057147680E+04  0.13057147680E+04  0.00000000000E+00 0. -1.
        -13    1    1    2    0    0 -0.10005262985E+04  0.17269739325E+03 -0.25254215132E+03  0.10462575271E+04  0.10566000000E+00 0.  1.
         13    1    1    2    0    0  0.10791737837E+04 -0.66834597843E+02 -0.18674079873E+03  0.10972488578E+04  0.10566000000E+00 0. -1.
         -4    1    1    2    0  502 -0.78647485204E+02 -0.10586279541E+03  0.28931530962E+03  0.31795551067E+03  0.00000000000E+00 0. -1.
</event>
<event>
 5    1  0.1196676E-004  0.2460548E+03  0.7818608E-02  0.1046522E+00
         21   -1    0    0  501  502  0.00000000000E+00  0.00000000000E+00  0.86897244495E+03  0.86897244495E+03  0.00000000000E+00 0. -1.
         -4   -1    0    0    0  501 -0.00000000000E+00 -0.00000000000E+00 -0.75203259250E+03  0.75203259250E+03  0.00000000000E+00 0. -1.
        -13    1    1    2    0    0 -0.15222493598E+03 -0.26378678162E+03 -0.37372200003E+03  0.48210376659E+03  0.10566000000E+00 0.  1.
         13    1    1    2    0    0  0.13093034376E+03 -0.14374532297E+03  0.66669182161E+03  0.69446631953E+03  0.10566000000E+00 0. -1.
         -4    1    1    2    0  502  0.21294592225E+02  0.40753210459E+03 -0.17602996914E+03  0.44443495133E+03  0.00000000000E+00 0. -1.
</event>
<event>
 5    1  0.1196676E-004  0.3260701E+02  0.7818608E-02  0.1389678E+00
         -4   -1    0    0    0  501 -0.00000000000E+00  0.00000000000E+00  0.59791280238E+02  0.59791280238E+02  0.00000000000E+00 0. -1.
         21   -1    0    0  501  502  0.00000000000E+00 -0.00000000000E+00 -0.37484488571E+03  0.37484488571E+03  0.00000000000E+00 0. -1.
        -13    1    1    2    0    0  0.36408147798E+02 -0.78561438936E+01 -0.78080762962E+02  0.86509473075E+02  0.10566000000E+00 0.  1.
         13    1    1    2    0    0 -0.11180997479E+02  0.28515477768E+02  0.50363533054E+02  0.58946109308E+02  0.10566000000E+00 0. -1.
         -4    1    1    2    0  502 -0.25227150319E+02 -0.20659333874E+02 -0.28733637556E+03  0.28918058356E+03  0.00000000000E+00 0. -1.
</event>
<event>
 5    1  0.1196676E-004  0.5094091E+03  0.7818608E-02  0.9605613E-01
         21   -1    0    0  501  502  0.00000000000E+00  0.00000000000E+00  0.42037828578E+03  0.42037828578E+03  0.00000000000E+00 0.  1.
          4   -1    0    0  502    0 -0.00000000000E+00 -0.00000000000E+00 -0.15695503794E+04  0.15695503794E+04  0.00000000000E+00 0.  1.
        -13    1    1    2    0    0  0.18031481565E+03  0.32224198131E+03 -0.23548174678E+03  0.43795546748E+03  0.10566000000E+00 0.  1.
         13    1    1    2    0    0  0.15082006149E+03  0.25766819968E+03 -0.82617974624E+03  0.87847172768E+03  0.10566000000E+00 0. -1.
          4    1    1    2  501    0 -0.33113487714E+03 -0.57991018099E+03 -0.87510600568E+02  0.67350147000E+03  0.00000000000E+00 0.  1.
</event>
<event>
 5    1  0.1196676E-004  0.1060858E+03  0.7818608E-02  0.1154861E+00
         -4   -1    0    0    0  501 -0.00000000000E+00  0.00000000000E+00  0.23634399536E+03  0.23634399536E+03  0.00000000000E+00 0. -1.
         21   -1    0    0  501  502  0.00000000000E+00 -0.00000000000E+00 -0.95678354148E+02  0.95678354148E+02  0.00000000000E+00 0.  1.
        -13    1    1    2    0    0 -0.75930688472E+02  0.76904974716E+02  0.50657320474E+02  0.11935669177E+03  0.10566000000E+00 0.  1.
         13    1    1    2    0    0  0.47773956626E+02 -0.95626938876E+02  0.12468302097E+03  0.16423376405E+03  0.10566000000E+00 0. -1.
         -4    1    1    2    0  502  0.28156731846E+02  0.18721964161E+02 -0.34674700235E+02  0.48431893693E+02  0.00000000000E+00 0. -1.
</event>
<event>
 5    1  0.1196676E-004  0.1442387E+03  0.7818608E-02  0.1106937E+00
          4   -1    0    0  502    0 -0.00000000000E+00  0.00000000000E+00  0.61057534051E+03  0.61057534051E+03  0.00000000000E+00 0.  1.
         21   -1    0    0  501  502  0.00000000000E+00 -0.00000000000E+00 -0.77222969263E+02  0.77222969263E+02  0.00000000000E+00 0.  1.
        -13    1    1    2    0    0  0.75736290506E+01 -0.17790125814E+03  0.35407951257E+03  0.39633133852E+03  0.10566000000E+00 0.  1.
         13    1    1    2    0    0 -0.70896754568E+02  0.96679000703E+02  0.13146495717E+03  0.17792196355E+03  0.10566000000E+00 0. -1.
          4    1    1    2  501    0  0.63323125517E+02  0.81222257436E+02  0.47807901504E+02  0.11354500770E+03  0.00000000000E+00 0.  1.
</event>
<event>
 5    1  0.1196676E-004  0.2521870E+03  0.7818608E-02  0.1029266E+00
         21   -1    0    0  501  502  0.00000000000E+00  0.00000000000E+00  0.10924907755E+04  0.10924907755E+04  0.00000000000E+00 0.  1.
         -4   -1    0    0    0  501 -0.00000000000E+00 -0.00000000000E+00 -0.69140199995E+02  0.69140199995E+02  0.00000000000E+00 0. -1.
        -13    1    1    2    0    0 -0.71340285143E+01 -0.24389726012E+03  0.53520165159E+03  0.58819859477E+03  0.10566000000E+00 0.  1.
         13    1    1    2    0    0  0.26604629586E+02  0.25694388542E+03  0.35959936225E+03  0.44276368309E+03  0.10566000000E+00 0. -1.
         -4    1    1    2    0  502 -0.19470601071E+02 -0.13046625297E+02  0.12854956162E+03  0.13066869759E+03  0.00000000000E+00 0. -1.
</event>
<event>
 5    1  0.1196676E-004  0.3713085E+03  0.7818608E-02  0.9937208E-01
         -4   -1    0    0    0  501 -0.00000000000E+00  0.00000000000E+00  0.14647848888E+04  0.14647848888E+04  0.00000000000E+00 0. -1.
         21   -1    0    0  501  502  0.00000000000E+00 -0.00000000000E+00 -0.29964072205E+03  0.29964072205E+03  0.00000000000E+00 0. -1.
        -13    1    1    2    0    0  0.14710434197E+03 -0.19824464531E+03  0.44558015793E+03  0.50939406664E+03  0.10566000000E+00 0.  1.
         13    1    1    2    0    0 -0.47718549814E+03  0.27586171253E+03  0.73128857509E+03  0.91574487457E+03  0.10566000000E+00 0. -1.
         -4    1    1    2    0  502  0.33008115617E+03 -0.77617067218E+02 -0.11724566221E+02  0.33928666970E+03  0.00000000000E+00 0. -1.
</event>
<event>
 5    1  0.1196676E-004  0.6488603E+03  0.7818608E-02  0.9288342E-01
         21   -1    0    0  501  502  0.00000000000E+00  0.00000000000E+00  0.18759988046E+04  0.18759988046E+04  0.00000000000E+00 0.  1.
          4   -1    0    0  502    0 -0.00000000000E+00 -0.00000000000E+00 -0.45814379261E+03  0.45814379261E+03  0.00000000000E+00 0.  1.
        -13    1    1    2    0    0 -0.48470489687E+03 -0.53380567389E+02  0.21155185581E+03  0.53154728942E+03  0.10566000000E+00 0.  1.
         13    1    1    2    0    0 -0.21931154521E+03 -0.40833508545E+03  0.24337653919E+03  0.52351432345E+03  0.10566000000E+00 0. -1.
          4    1    1    2  501    0  0.70401644208E+03  0.46171565283E+03  0.96292661699E+03  0.12790809843E+04  0.00000000000E+00 0.  1.
</event>
<event>
 5    1  0.1196676E-004  0.4137306E+02  0.7818608E-02  0.1331539E+00
         21   -1    0    0  501  502  0.00000000000E+00  0.00000000000E+00  0.33206843541E+03  0.33206843541E+03  0.00000000000E+00 0. -1.
          4   -1    0    0  502    0 -0.00000000000E+00 -0.00000000000E+00 -0.77516583626E+01  0.77516583626E+01  0.00000000000E+00 0.  1.
        -13    1    1    2    0    0 -0.31104016826E+02 -0.29179884661E+02  0.87869275380E+02  0.97672648430E+02  0.10566000000E+00 0.  1.
         13    1    1    2    0    0  0.35731176524E+02  0.17848948872E+02  0.18532465234E+03  0.18957990368E+03  0.10566000000E+00 0. -1.
          4    1    1    2  501    0 -0.46271596982E+01  0.11330935789E+02  0.51122849331E+02  0.52567541663E+02  0.00000000000E+00 0.  1.
</event>
<event>
 5    1  0.1196676E-004  0.5079985E+03  0.7818608E-02  0.9460611E-01
         21   -1    0    0  501  502  0.00000000000E+00  0.00000000000E+00  0.26788683945E+03  0.26788683945E+03  0.00000000000E+00 0.  1.
          4   -1    0    0  502    0 -0.00000000000E+00 -0.00000000000E+00 -0.28050221749E+04  0.28050221749E+04  0.00000000000E+00 0.  1.
        -13    1    1    2    0    0 -0.59495197104E+03 -0.10542153234E+03 -0.11665633317E+04  0.13137547584E+04  0.10566000000E+00 0.  1.
         13    1    1    2    0    0  0.35476399053E+03  0.33199792661E+03 -0.13425582576E+04  0.14277754720E+04  0.10566000000E+00 0. -1.
          4    1    1    2  501    0  0.24018798051E+03 -0.22657639427E+03 -0.28013746131E+02  0.33137878386E+03  0.00000000000E+00 0.  1.
</event>
<event>
 5    1  0.1196676E-004  0.3520048E+03  0.7818608E-02  0.1027751E+00
         21   -1    0    0  501  502  0.00000000000E+00  0.00000000000E+00  0.10046081588E+03  0.10046081588E+03  0.00000000000E+00 0. -1.
         -4   -1    0    0    0  501 -0.00000000000E+00 -0.00000000000E+00 -0.31768373470E+04  0.31768373470E+04  0.00000000000E+00 0. -1.
        -13    1    1    2    0    0 -0.10453318566E+02 -0.96628568384E+02 -0.49055061072E+03  0.50008625750E+03  0.10566000000E+00 0.  1.
         13    1    1    2    0    0 -0.14182064195E+03 -0.30779165974E+03 -0.30539092389E+03  0.45619341057E+03  0.10566000000E+00 0. -1.
         -4    1    1    2    0  502  0.15227396051E+03  0.40442022813E+03 -0.22804349965E+04  0.23210184948E+04  0.00000000000E+00 0. -1.
</event>
<event>
 5    1  0.1196676E-004  0.5299993E+02  0.7818608E-02  0.1280034E+00
          4   -1    0    0  502    0 -0.00000000000E+00  0.00000000000E+00  0.85480018040E+01  0.85480018040E+01  0.00000000000E+00 0.  1.
         21   -1    0    0  501  502  0.00000000000E+00 -0.00000000000E+00 -0.58024338578E+03  0.58024338578E+03  0.00000000000E+00 0. -1.
        -13    1    1    2    0    0 -0.42677535273E+02  0.33820617905E+02 -0.14775381052E+03  0.15746874579E+03  0.10566000000E+00 0.  1.
         13    1    1    2    0    0  0.33335740408E+02 -0.39648145723E+02 -0.18465867833E+03  0.19178656286E+03  0.10566000000E+00 0. -1.
          4    1    1    2  501    0  0.93417948659E+01  0.58275278175E+01 -0.23928289512E+03  0.23953607893E+03  0.00000000000E+00 0.  1.
</event>
<event>
 5    1  0.1196676E-004  0.4501304E+03  0.7818608E-02  0.9912147E-01
         -4   -1    0    0    0  501 -0.00000000000E+00  0.00000000000E+00  0.92836454730E+03  0.92836454730E+03  0.00000000000E+00 0. -1.
         21   -1    0    0  501  502  0.00000000000E+00 -0.00000000000E+00 -0.33181110183E+03  0.33181110183E+03  0.00000000000E+00 0. -1.
        -13    1    1    2    0    0 -0.14845563960E+03  0.25418100623E+02  0.13287331363E+03  0.20084940977E+03  0.10566000000E+00 0.  1.
         13    1    1    2    0    0 -0.53207000287E+02  0.40840122945E+03  0.40451273646E+03  0.57728079321E+03  0.10566000000E+00 0. -1.
         -4    1    1    2    0  502  0.20166263989E+03 -0.43381933007E+03  0.59167395396E+02  0.48204544614E+03  0.00000000000E+00 0. -1.
</event>
<event>
 5    1  0.1196676E-004  0.4066039E+03  0.7818608E-02  0.9710165E-01
          4   -1    0    0  502    0 -0.00000000000E+00  0.00000000000E+00  0.25610586187E+03  0.25610586187E+03  0.00000000000E+00 0.  1.
         21   -1    0    0  501  502  0.00000000000E+00 -0.00000000000E+00 -0.23271061382E+04  0.23271061382E+04  0.00000000000E+00 0.  1.
        -13    1    1    2    0    0 -0.52941989503E+02 -0.62504316638E+03 -0.15517522100E+04  0.16737433335E+04  0.10566000000E+00 0.  1.
         13    1    1    2    0    0 -0.16734356692E+03  0.33805667798E+03 -0.19990309105E+03  0.42690449036E+03  0.10566000000E+00 0. -1.
          4    1    1    2  501    0  0.22028555642E+03  0.28698648840E+03 -0.31934497526E+03  0.48256417617E+03  0.00000000000E+00 0.  1.
</event>
<event>
 5    1  0.1196676E-004  0.7534043E+03  0.7818608E-02  0.9048910E-01
          4   -1    0    0  502    0 -0.00000000000E+00  0.00000000000E+00  0.15262245293E+04  0.15262245293E+04  0.00000000000E+00 0.  1.
         21   -1    0    0  501  502  0.00000000000E+00 -0.00000000000E+00 -0.78892658905E+03  0.78892658905E+03  0.00000000000E+00 0. -1.
        -13    1    1    2    0    0 -0.62174923265E+03 -0.38066053521E+03  0.48969986293E+03  0.87822577865E+03  0.10566000000E+00 0.  1.
         13    1    1    2    0    0  0.85397286018E+03  0.33282839108E+01  0.43198612595E+03  0.95702285634E+03  0.10566000000E+00 0. -1.
          4    1    1    2  501    0 -0.23222362752E+03  0.37733225130E+03 -0.18438804863E+03  0.47990248336E+03  0.00000000000E+00 0.  1.
</event>
<event>
 5    1  0.1196676E-004  0.4019783E+03  0.7818608E-02  0.9818991E-01
         21   -1    0    0  501  502  0.00000000000E+00  0.00000000000E+00  0.16550830533E+04  0.16550830533E+04  0.00000000000E+00 0.  1.
          4   -1    0    0  502    0 -0.00000000000E+00 -0.00000000000E+00 -0.27498399768E+03  0.27498399768E+03  0.00000000000E+00 0.  1.
        -13    1    1    2    0    0  0.31953464775E+03 -0.54205814979E+03  0.45950065386E+03  0.77914715615E+03  0.10566000000E+00 0.  1.
         13    1    1    2    0    0 -0.10511977386E+03  0.26969004854E+03  0.20164865753E+03  0.35276774425E+03  0.10566000000E+00 0. -1.
          4    1    1    2  501    0 -0.21441487389E+03  0.27236810125E+03  0.71894974420E+03  0.79815215054E+03  0.00000000000E+00 0.  1.
</event>
<event>
 5    1  0.1196676E-004  0.2394051E+03  0.7818608E-02  0.1036034E+00
         21   -1    0    0  501  502  0.00000000000E+00  0.00000000000E+00  0.42800903418E+02  0.42800903418E+02  0.00000000000E+00 0.  1.
         -4   -1    0    0    0  501 -0.00000000000E+00 -0.00000000000E+00 -0.22985110281E+04  0.22985110281E+04  0.00000000000E+00 0. -1.
        -13    1    1    2    0    0  0.62748219045E+02 -0.23020007245E+03 -0.78709496254E+03  0.82246453028E+03  0.10566000000E+00 0.  1.
         13    1    1    2    0    0 -0.13942267911E+02  0.24134714176E+03 -0.14420492649E+04  0.14621726721E+04  0.10566000000E+00 0. -1.
         -4    1    1    2    0  502 -0.48805951134E+02 -0.11147069309E+02 -0.26565897264E+02  0.56674729092E+02  0.00000000000E+00 0. -1.
</event>
<event>
 5    1  0.1196676E-004  0.7644869E+02  0.7818608E-02  0.1233037E+00
         -4   -1    0    0    0  501 -0.00000000000E+00  0.00000000000E+00  0.33995775169E+03  0.33995775169E+03  0.00000000000E+00 0. -1.
         21   -1    0    0  501  502  0.00000000000E+00 -0.00000000000E+00 -0.36141760998E+02  0.36141760998E+02  0.00000000000E+00 0. -1.
        -13    1    1    2    0    0  0.11967502825E+02  0.45318327397E+02  0.10346268810E+03  0.11358481815E+03  0.10566000000E+00 0.  1.
         13    1    1    2    0    0  0.68176757465E+02 -0.36214096353E+02  0.14629921646E+03  0.16541766210E+03  0.10566000000E+00 0. -1.
         -4    1    1    2    0  502 -0.80144260290E+02 -0.91042310434E+01  0.54054086131E+02  0.97097032435E+02  0.00000000000E+00 0. -1.
</event>
<event>
 5    1  0.1196676E-004  0.3990277E+03  0.7818608E-02  0.9945215E-01
         21   -1    0    0  501  502  0.00000000000E+00  0.00000000000E+00  0.66663085815E+03  0.66663085815E+03  0.00000000000E+00 0. -1.
         -4   -1    0    0    0  501 -0.00000000000E+00 -0.00000000000E+00 -0.65557730366E+03  0.65557730366E+03  0.00000000000E+00 0. -1.
        -13    1    1    2    0    0  0.18701393719E+03  0.50426871513E+02 -0.22307988094E+03  0.29543480925E+03  0.10566000000E+00 0.  1.
         13    1    1    2    0    0 -0.25459029210E+03 -0.34642800671E+03  0.47393549306E+03  0.63987767847E+03  0.10566000000E+00 0. -1.
         -4    1    1    2    0  502  0.67576354910E+02  0.29600113520E+03 -0.23980205763E+03  0.38689567408E+03  0.00000000000E+00 0. -1.
</event>
<event>
 5    1  0.1196676E-004  0.3764051E+03  0.7818608E-02  0.9799776E-01
          4   -1    0    0  502    0 -0.00000000000E+00  0.00000000000E+00  0.24347840296E+04  0.24347840296E+04  0.00000000000E+00 0.  1.
         21   -1    0    0  501  502  0.00000000000E+00 -0.00000000000E+00 -0.12090969885E+03  0.12090969885E+03  0.00000000000E+00 0.  1.
        -13    1    1    2    0    0 -0.25111234977E+03 -0.27322963841E+03  0.16006869553E+04  0.16431404650E+04  0.10566000000E+00 0.  1.
         13    1    1    2    0    0  0.25609731174E+03  0.29158491137E+03  0.76475576342E+03  0.85758905221E+03  0.10566000000E+00 0. -1.
          4    1    1    2  501    0 -0.49849619699E+01 -0.18355272967E+02 -0.51568387945E+02  0.54964211326E+02  0.00000000000E+00 0.  1.
</event>
<event>
 5    1  0.1196676E-004  0.4489992E+03  0.7818608E-02  0.9712284E-01
         21   -1    0    0  501  502  0.00000000000E+00  0.00000000000E+00  0.33590490007E+03  0.33590490007E+03  0.00000000000E+00 0.  1.
          4   -1    0    0  502    0 -0.00000000000E+00 -0.00000000000E+00 -0.15944181338E+04  0.15944181338E+04  0.00000000000E+00 0.  1.
        -13    1    1    2    0    0 -0.25817053310E+03 -0.41291254079E+03 -0.51994170345E+03  0.71238204403E+03  0.10566000000E+00 0.  1.
         13    1    1    2    0    0 -0.17210658849E+03  0.24541051808E+03 -0.69167946332E+03  0.75383518844E+03  0.10566000000E+00 0. -1.
          4    1    1    2  501    0  0.43027712160E+03  0.16750202271E+03 -0.46892066990E+02  0.46410580144E+03  0.00000000000E+00 0.  1.
</event>
<event>
 5    1  0.1196676E-004  0.1523386E+03  0.7818608E-02  0.1098828E+00
         -4   -1    0    0    0  501 -0.00000000000E+00  0.00000000000E+00  0.33300960480E+03  0.33300960480E+03  0.00000000000E+00 0. -1.
         21   -1    0    0  501  502  0.00000000000E+00 -0.00000000000E+00 -0.12586471570E+03  0.12586471570E+03  0.00000000000E+00 0.  1.
        -13    1    1    2    0    0 -0.78302462868E+02 -0.13590762575E+03  0.13648521987E+03  0.20791917861E+03  0.10566000000E+00 0.  1.
         13    1    1    2    0    0  0.96159332353E+02  0.11392282192E+03  0.12179005759E+03  0.19250417098E+03  0.10566000000E+00 0. -1.
         -4    1    1    2    0  502 -0.17856869485E+02  0.21984803834E+02 -0.51130388349E+02  0.58450970908E+02  0.00000000000E+00 0. -1.
</event>
<event>
 5    1  0.1196676E-004  0.4972885E+03  0.7818608E-02  0.9585646E-01
         21   -1    0    0  501  502  0.00000000000E+00  0.00000000000E+00  0.21408834364E+03  0.21408834364E+03  0.00000000000E+00 0. -1.
         -4   -1    0    0    0  501 -0.00000000000E+00 -0.00000000000E+00 -0.22869004198E+04  0.22869004198E+04  0.00000000000E+00 0. -1.
        -13    1    1    2    0    0  0.15294273664E+03  0.30877453300E+03 -0.52215299628E+03  0.62560127526E+03  0.10566000000E+00 0.  1.
         13    1    1    2    0    0 -0.32450952665E+03  0.26906064476E+03 -0.86634016832E+03  0.96345490909E+03  0.10566000000E+00 0. -1.
         -4    1    1    2    0  502  0.17156679000E+03 -0.57783517776E+03 -0.68431891156E+03  0.91193257910E+03  0.00000000000E+00 0. -1.
</event>
<event>
 5    1  0.1196676E-004  0.4348731E+03  0.7818608E-02  0.9827594E-01
         21   -1    0    0  501  502  0.00000000000E+00  0.00000000000E+00  0.20754383771E+03  0.20754383771E+03  0.00000000000E+00 0. -1.
         -4   -1    0    0    0  501 -0.00000000000E+00 -0.00000000000E+00 -0.21718093971E+04  0.21718093971E+04  0.00000000000E+00 0. -1.
        -13    1    1    2    0    0  0.20846197386E+03 -0.76412022387E+02 -0.80413841721E+03  0.83422646620E+03  0.10566000000E+00 0.  1.
         13    1    1    2    0    0 -0.26967479603E+03 -0.35771004050E+03 -0.20190489863E+03  0.49137212776E+03  0.10566000000E+00 0. -1.
         -4    1    1    2    0  502  0.61212822172E+02  0.43412206288E+03 -0.95822224356E+03  0.10537546409E+04  0.00000000000E+00 0. -1.
</event>
<event>
 5    1  0.1196676E-004  0.4778094E+03  0.7818608E-02  0.9605036E-01
          4   -1    0    0  502    0 -0.00000000000E+00  0.00000000000E+00  0.70743422792E+03  0.70743422792E+03  0.00000000000E+00 0.  1.
         21   -1    0    0  501  502  0.00000000000E+00 -0.00000000000E+00 -0.78218138997E+03  0.78218138997E+03  0.00000000000E+00 0.  1.
        -13    1    1    2    0    0 -0.45790622492E+02 -0.44095800941E+03  0.97479070530E+02  0.45391951658E+03  0.10566000000E+00 0.  1.
         13    1    1    2    0    0  0.36252848745E+03  0.33975908756E+01  0.16561251149E+03  0.39857993297E+03  0.10566000000E+00 0. -1.
          4    1    1    2  501    0 -0.31673786496E+03  0.43756041854E+03 -0.33783874406E+03  0.63711616834E+03  0.00000000000E+00 0.  1.
</event>
<event>
 5    1  0.1196676E-004  0.1007687E+03  0.7818608E-02  0.1188327E+00
         -4   -1    0    0    0  501 -0.00000000000E+00  0.00000000000E+00  0.11291656010E+03  0.11291656010E+03  0.00000000000E+00 0. -1.
         21   -1    0    0  501  502  0.00000000000E+00 -0.00000000000E+00 -0.25306453118E+03  0.25306453118E+03  0.00000000000E+00 0. -1.
        -13    1    1    2    0    0  0.55615996914E+02 -0.18902887765E+01  0.33739653405E+02  0.65077551278E+02  0.10566000000E+00 0.  1.
         13    1    1    2    0    0  0.12857824076E+02  0.97875036642E+02 -0.15160412485E+03  0.18091066379E+03  0.10566000000E+00 0. -1.
         -4    1    1    2    0  502 -0.68473820990E+02 -0.95984747866E+02 -0.22283499637E+02  0.11999287620E+03  0.00000000000E+00 0. -1.
</event>
<event>
 5    1  0.1196676E-004  0.3832006E+03  0.7818608E-02  0.1034897E+00
         21   -1    0    0  501  502  0.00000000000E+00  0.00000000000E+00  0.17712182208E+03  0.17712182208E+03  0.00000000000E+00 0. -1.
         -4   -1    0    0    0  501 -0.00000000000E+00 -0.00000000000E+00 -0.15937570360E+04  0.15937570360E+04  0.00000000000E+00 0. -1.
        -13    1    1    2    0    0  0.48344734407E-01  0.60444323045E+02 -0.10867534417E+03  0.12435377003E+03  0.10566000000E+00 0.  1.
         13    1    1    2    0    0 -0.36549349543E+03 -0.12602226113E+03 -0.12445436260E+03  0.40614776257E+03  0.10566000000E+00 0. -1.
         -4    1    1    2    0  502  0.36544515070E+03  0.65577938086E+02 -0.11835055072E+04  0.12403773255E+04  0.00000000000E+00 0. -1.
</event>
<event>
 5    1  0.1196676E-004  0.5632644E+02  0.7818608E-02  0.1276292E+00
          4   -1    0    0  502    0 -0.00000000000E+00  0.00000000000E+00  0.13519017688E+03  0.13519017688E+03  0.00000000000E+00 0.  1.
         21   -1    0    0  501  502  0.00000000000E+00 -0.00000000000E+00 -0.32791703608E+03  0.32791703608E+03  0.00000000000E+00 0.  1.
        -13    1    1    2    0    0  0.75462036340E+02 -0.69728124880E+02  0.85501472919E+02  0.13366766012E+03  0.10566000000E+00 0.  1.
         13    1    1    2    0    0 -0.34213327657E+02  0.33088380728E+02 -0.18754850658E+01  0.47633195744E+02  0.10566000000E+00 0. -1.
          4    1    1    2  501    0 -0.41248708683E+02  0.36639744152E+02 -0.27635284706E+03  0.28180635709E+03  0.00000000000E+00 0.  1.
</event>
<event>
 5    1  0.1196676E-004  0.4397644E+03  0.7818608E-02  0.9776690E-01
         -4   -1    0    0    0  501 -0.00000000000E+00  0.00000000000E+00  0.15827171021E+04  0.15827171021E+04  0.00000000000E+00 0. -1.
         21   -1    0    0  501  502  0.00000000000E+00 -0.00000000000E+00 -0.34449211639E+03  0.34449211639E+03  0.00000000000E+00 0. -1.
        -13    1    1    2    0    0 -0.21675595097E+03 -0.13513285514E+03  0.70380633600E+03  0.74872384800E+03  0.10566000000E+00 0.  1.
         13    1    1    2    0    0  0.18320526309E+03  0.54097159785E+03  0.51779106520E+03  0.77092284728E+03  0.10566000000E+00 0. -1.
         -4    1    1    2    0  502  0.33550687881E+02 -0.40583874271E+03  0.16627584505E+02  0.40756252319E+03  0.00000000000E+00 0. -1.
</event>
<event>
 5    1  0.1196676E-004  0.3401906E+03  0.7818608E-02  0.9919741E-01
         21   -1    0    0  501  502  0.00000000000E+00  0.00000000000E+00  0.82321087583E+03  0.82321087583E+03  0.00000000000E+00 0.  1.
          4   -1    0    0  502    0 -0.00000000000E+00 -0.00000000000E+00 -0.15473099046E+04  0.15473099046E+04  0.00000000000E+00 0.  1.
        -13    1    1    2    0    0 -0.12480896331E+02 -0.26745570512E+03 -0.30763664783E+03  0.40783409032E+03  0.10566000000E+00 0.  1.
         13    1    1    2    0    0  0.19330224420E+03  0.35370223716E+03 -0.11414500476E+04  0.12105285013E+04  0.10566000000E+00 0. -1.
          4    1    1    2  501    0 -0.18082134787E+03 -0.86246532044E+02  0.72498766667E+03  0.75215818878E+03  0.00000000000E+00 0.  1.
</event>
<event>
 5    1  0.1196676E-004  0.1666943E+02  0.7818608E-02  0.1562283E+00
         -4   -1    0    0    0  501 -0.00000000000E+00  0.00000000000E+00  0.99076847354E+01  0.99076847354E+01  0.00000000000E+00 0. -1.
         21   -1    0    0  501  502  0.00000000000E+00 -0.00000000000E+00 -0.69444935576E+03  0.69444935576E+03  0.00000000000E+00 0. -1.
        -13    1    1    2    0    0  0.23776036227E+02  0.77520861756E+01 -0.10531365982E+03  0.10824219532E+03  0.10566000000E+00 0.  1.
         13    1    1    2    0    0 -0.12763112721E+02 -0.99091001827E+01  0.60826061216E+00  0.16169986325E+02  0.10566000000E+00 0. -1.
         -4    1    1    2    0  502 -0.11012923506E+02  0.21570140071E+01 -0.57983627181E+03  0.57994485884E+03  0.00000000000E+00 0. -1.
</event>
<event>
 5    1  0.1196676E-004  0.3171752E+03  0.7818608E-02  0.1000457E+00
         21   -1    0    0  501  502  0.00000000000E+00  0.00000000000E+00  0.17643558254E+03  0.17643558254E+03  0.00000000000E+00 0.  1.
         -4   -1    0    0    0  501 -0.00000000000E+00 -0.00000000000E+00 -0.11973703505E+04  0.11973703505E+04  0.00000000000E+00 0. -1.
        -13    1    1    2    0    0  0.11924206812E+03 -0.28938324223E+03 -0.64007130464E+03  0.71249745114E+03  0.10566000000E+00 0.  1.
         13    1    1    2    0    0 -0.26844255051E+03  0.22657903124E+03 -0.35120536548E+03  0.49673401356E+03  0.10566000000E+00 0. -1.
         -4    1    1    2    0  502  0.14920048239E+03  0.62804210986E+02 -0.29658097842E+02  0.16457446834E+03  0.00000000000E+00 0. -1.
</event>
<event>
 5    1  0.1196676E-004  0.1685099E+03  0.7818608E-02  0.1084165E+00
         21   -1    0    0  501  502  0.00000000000E+00  0.00000000000E+00  0.89070750865E+03  0.89070750865E+03  0.00000000000E+00 0.  1.
         -4   -1    0    0    0  501 -0.00000000000E+00 -0.00000000000E+00 -0.71219664152E+02  0.71219664152E+02  0.00000000000E+00 0. -1.
        -13    1    1    2    0    0 -0.13636234415E+03  0.99208130302E+02  0.62477986650E+03  0.64713741568E+03  0.10566000000E+00 0.  1.
         13    1    1    2    0    0  0.12794231317E+03 -0.10976022673E+03  0.59281444031E+02  0.17869203575E+03  0.10566000000E+00 0. -1.
         -4    1    1    2    0  502  0.84200309824E+01  0.10552096426E+02  0.13542653397E+03  0.13609772137E+03  0.00000000000E+00 0. -1.
</event>
<event>
 5    1  0.1196676E-004  0.4115635E+03  0.7818608E-02  0.9835965E-01
         21   -1    0    0  501  502  0.00000000000E+00  0.00000000000E+00  0.23767917850E+03  0.23767917850E+03  0.00000000000E+00 0.  1.
          4   -1    0    0  502    0 -0.00000000000E+00 -0.00000000000E+00 -0.20313407536E+04  0.20313407536E+04  0.00000000000E+00 0.  1.
        -13    1    1    2    0    0 -0.76447495219E+02  0.58257893251E+03 -0.84008306010E+03  0.10251741272E+04  0.10566000000E+00 0.  1.
         13    1    1    2    0    0  0.12717763327E+03 -0.22055311968E+03 -0.81342507291E+03  0.85233689901E+03  0.10566000000E+00 0. -1.
          4    1    1    2  501    0 -0.50730138056E+02 -0.36202581283E+03 -0.14015344213E+03  0.39150890591E+03  0.00000000000E+00 0.  1.
</event>
<event>
 5    1  0.1196676E-004  0.4928108E+03  0.7818608E-02  0.9688211E-01
         21   -1    0    0  501  502  0.00000000000E+00  0.00000000000E+00  0.19488383133E+03  0.19488383133E+03  0.00000000000E+00 0. -1.
         -4   -1    0    0    0  501 -0.00000000000E+00 -0.00000000000E+00 -0.28496718740E+04  0.28496718740E+04  0.00000000000E+00 0. -1.
        -13    1    1    2    0    0 -0.16027010367E+03 -0.18731403200E+03 -0.14137320712E+04  0.14350649578E+04  0.10566000000E+00 0.  1.
         13    1    1    2    0    0  0.37202678576E+03 -0.30786660756E+03 -0.52190460999E+03  0.71103460567E+03  0.10566000000E+00 0. -1.
         -4    1    1    2    0  502 -0.21175668209E+03  0.49518063956E+03 -0.71915136153E+03  0.89845614194E+03  0.00000000000E+00 0. -1.
</event>
<event>
 5    1  0.1196676E-004  0.8319304E+02  0.7818608E-02  0.1195823E+00
         21   -1    0    0  501  502  0.00000000000E+00  0.00000000000E+00  0.11790526476E+03  0.11790526476E+03  0.00000000000E+00 0. -1.
          4   -1    0    0  502    0 -0.00000000000E+00 -0.00000000000E+00 -0.11877758527E+03  0.11877758527E+03  0.00000000000E+00 0.  1.
        -13    1    1    2    0    0  0.23950497734E+02 -0.78138590436E+02 -0.70632706214E+02  0.10801970194E+03  0.10566000000E+00 0.  1.
         13    1    1    2    0    0 -0.34939215992E+02  0.81939564679E+02  0.41832497164E+02  0.98411432552E+02  0.10566000000E+00 0. -1.
          4    1    1    2  501    0  0.10988718257E+02 -0.38009742436E+01  0.27927888540E+02  0.30251715529E+02  0.00000000000E+00 0.  1.
</event>
<event>
 5    1  0.1196676E-004  0.1105714E+03  0.7818608E-02  0.1148158E+00
          4   -1    0    0  502    0 -0.00000000000E+00  0.00000000000E+00  0.16367344537E+03  0.16367344537E+03  0.00000000000E+00 0.  1.
         21   -1    0    0  501  502  0.00000000000E+00 -0.00000000000E+00 -0.12385938540E+03  0.12385938540E+03  0.00000000000E+00 0.  1.
        -13    1    1    2    0    0 -0.34102388587E+02  0.12181212037E+03  0.78983784681E+02  0.14912952418E+03  0.10566000000E+00 0.  1.
         13    1    1    2    0    0  0.47121799226E+01 -0.86522713340E+02 -0.22266577987E+02  0.89466173623E+02  0.10566000000E+00 0. -1.
          4    1    1    2  501    0  0.29390208664E+02 -0.35289407032E+02 -0.16903146723E+02  0.48937132968E+02  0.00000000000E+00 0.  1.
</event>
<event>
 5    1  0.1196676E-004  0.3601221E+03  0.7818608E-02  0.1035604E+00
         21   -1    0    0  501  502  0.00000000000E+00  0.00000000000E+00  0.76362218408E+03  0.76362218408E+03  0.00000000000E+00 0. -1.
         -4   -1    0    0    0  501 -0.00000000000E+00 -0.00000000000E+00 -0.67056400143E+03  0.67056400143E+03  0.00000000000E+00 0. -1.
        -13    1    1    2    0    0 -0.48299371276E+02  0.52403023494E+02 -0.32798692803E+03  0.33564019762E+03  0.10566000000E+00 0.  1.
         13    1    1    2    0    0  0.25073730463E+03 -0.33743652040E+03 -0.13516208498E+03  0.44158963033E+03  0.10566000000E+00 0. -1.
         -4    1    1    2    0  502 -0.20243793336E+03  0.28503349691E+03  0.55620719566E+03  0.65695635755E+03  0.00000000000E+00 0. -1.
</event>
<event>
 5    1  0.1196676E-004  0.5122210E+03  0.7818608E-02  0.9471553E-01
          4   -1    0    0  502    0 -0.00000000000E+00  0.00000000000E+00  0.19624899004E+04  0.19624899004E+04  0.00000000000E+00 0.  1.
         21   -1    0    0  501  502  0.00000000000E+00 -0.00000000000E+00 -0.43081237797E+03  0.43081237797E+03  0.00000000000E+00 0.  1.
        -13    1    1    2    0    0  0.30386334794E+03  0.34020942661E+03  0.35357296055E+03  0.57713883751E+03  0.10566000000E+00 0.  1.
         13    1    1    2    0    0 -0.45285935303E+03  0.27784868840E+03  0.10366233580E+04  0.11648474084E+04  0.10566000000E+00 0. -1.
          4    1    1    2  501    0  0.14899600509E+03 -0.61805811501E+03  0.14148120382E+03  0.65131603242E+03  0.00000000000E+00 0.  1.
</event>
<event>
 5    1  0.1196676E-004  0.2133234E+03  0.7818608E-02  0.1051367E+00
         -4   -1    0    0    0  501 -0.00000000000E+00  0.00000000000E+00  0.73868733703E+02  0.73868733703E+02  0.00000000000E+00 0. -1.
         21   -1    0    0  501  502  0.00000000000E+00 -0.00000000000E+00 -0.93400484911E+03  0.93400484911E+03  0.00000000000E+00 0. -1.
        -13    1    1    2    0    0 -0.13965346499E+02  0.21230601675E+03 -0.23380457113E+03  0.31612254633E+03  0.10566000000E+00 0.  1.
         13    1    1    2    0    0  0.15371240744E+01 -0.21423859457E+03 -0.31962407790E+03  0.38478578519E+03  0.10566000000E+00 0. -1.
         -4    1    1    2    0  502  0.12428222424E+02  0.19325778223E+01 -0.30670746638E+03  0.30696525129E+03  0.00000000000E+00 0. -1.
</event>
<event>
 5    1  0.1196676E-004  0.7282726E+02  0.7818608E-02  0.1219499E+00
         -4   -1    0    0    0  501 -0.00000000000E+00  0.00000000000E+00  0.54309343023E+03  0.54309343023E+03  0.00000000000E+00 0. -1.
         21   -1    0    0  501  502  0.00000000000E+00 -0.00000000000E+00 -0.25726497018E+02  0.25726497018E+02  0.00000000000E+00 0. -1.
        -13    1    1    2    0    0  0.81794795439E+02  0.12900389481E+02  0.13431588115E+03  0.15778965652E+03  0.10566000000E+00 0.  1.
         13    1    1    2    0    0 -0.70077577182E+02 -0.45560041232E+01  0.38912838425E+03  0.39541438339E+03  0.10566000000E+00 0. -1.
         -4    1    1    2    0  502 -0.11717218257E+02 -0.83443853583E+01 -0.60773321963E+01  0.15615887337E+02  0.00000000000E+00 0. -1.
</event>
<event>
 5    1  0.1196676E-004  0.5298814E+03  0.7818608E-02  0.9554405E-01
          4   -1    0    0  502    0 -0.00000000000E+00  0.00000000000E+00  0.50016604431E+03  0.50016604431E+03  0.00000000000E+00 0.  1.
         21   -1    0    0  501  502  0.00000000000E+00 -0.00000000000E+00 -0.10536040187E+04  0.10536040187E+04  0.00000000000E+00 0. -1.
        -13    1    1    2    0    0  0.38293090114E+03 -0.16031101804E+03 -0.12951739416E+03  0.43486832962E+03  0.10566000000E+00 0.  1.
         13    1    1    2    0    0  0.15456260921E+03 -0.27851628573E+03 -0.27373850722E+02  0.31970339449E+03  0.10566000000E+00 0. -1.
          4    1    1    2  501    0 -0.53749351035E+03  0.43882730377E+03 -0.39654672949E+03  0.79919833888E+03  0.00000000000E+00 0.  1.
</event>
<event>
 5    1  0.1196676E-004  0.1786746E+03  0.7818608E-02  0.1075828E+00
         21   -1    0    0  501  502  0.00000000000E+00  0.00000000000E+00  0.91223909324E+03  0.91223909324E+03  0.00000000000E+00 0.  1.
         -4   -1    0    0    0  501 -0.00000000000E+00 -0.00000000000E+00 -0.51112739532E+02  0.51112739532E+02  0.00000000000E+00 0. -1.
        -13    1    1    2    0    0 -0.16952016332E+03 -0.47839358705E+02  0.42057962928E+03  0.45597469858E+03  0.10566000000E+00 0.  1.
         13    1    1    2    0    0  0.17581263059E+03  0.39420252524E+02  0.21046379514E+03  0.27705425030E+03  0.10566000000E+00 0. -1.
         -4    1    1    2    0  502 -0.62924672617E+01  0.84191061810E+01  0.23008292930E+03  0.23032288390E+03  0.00000000000E+00 0. -1.
</event>
<event>
 5    1  0.1196676E-004  0.1337921E+03  0.7818608E-02  0.1118296E+00
          4   -1    0    0  502    0 -0.00000000000E+00  0.00000000000E+00  0.29169654186E+03  0.29169654186E+03  0.00000000000E+00 0.  1.
         21   -1    0    0  501  502  0.00000000000E+00 -0.00000000000E+00 -0.30431836504E+03  0.30431836504E+03  0.00000000000E+00 0.  1.
        -13    1    1    2    0    0 -0.44962507811E+02  0.13282971769E+03  0.24370444753E+03  0.28117117547E+03  0.10566000000E+00 0.  1.
         13    1    1    2    0    0  0.60321501134E+02 -0.82892828033E+02 -0.77425722819E+02  0.12847045636E+03  0.10566000000E+00 0. -1.
          4    1    1    2  501    0 -0.15358993323E+02 -0.49936889653E+02 -0.17890054789E+03  0.18637327507E+03  0.00000000000E+00 0.  1.
</event>
<event>
 5    1  0.1196676E-004  0.4635719E+03  0.7818608E-02  0.9866260E-01
          4   -1    0    0  502    0 -0.00000000000E+00  0.00000000000E+00  0.12553424628E+04  0.12553424628E+04  0.00000000000E+00 0.  1.
         21   -1    0    0  501  502  0.00000000000E+00 -0.00000000000E+00 -0.46309446530E+03  0.46309446530E+03  0.00000000000E+00 0.  1.
        -13    1    1    2    0    0 -0.28792265546E+03 -0.41491137347E+03 -0.18205139851E+03  0.53683668487E+03  0.10566000000E+00 0.  1.
         13    1    1    2    0    0  0.14933329412E+03  0.59698484784E+02  0.68324423086E+03  0.70191668450E+03  0.10566000000E+00 0. -1.
          4    1    1    2  501    0  0.13858936134E+03  0.35521288868E+03  0.29105516517E+03  0.47968355875E+03  0.00000000000E+00 0.  1.
</event>
<event>
 5    1  0.1196676E-004  0.5310336E+02  0.7818608E-02  0.1279645E+00
         21   -1    0    0  501  502  0.00000000000E+00  0.00000000000E+00  0.13115749244E+03  0.13115749244E+03  0.00000000000E+00 0.  1.
         -4   -1    0    0    0  501 -0.00000000000E+00 -0.00000000000E+00 -0.49094372124E+02  0.49094372124E+02  0.00000000000E+00 0. -1.
        -13    1    1    2    0    0 -0.47985567447E+02 -0.39880183571E+02  0.93589999595E+02  0.11248174480E+03  0.10566000000E+00 0.  1.
         13    1    1    2    0    0  0.39942332357E+02  0.32469972654E+02 -0.18614871000E+02  0.54737680118E+02  0.10566000000E+00 0. -1.
         -4    1    1    2    0  502  0.80432350901E+01  0.74102109169E+01  0.70879917222E+01  0.13032439649E+02  0.00000000000E+00 0. -1.
</event>
<event>
 5    1  0.1196676E-004  0.4815144E+03  0.7818608E-02  0.9632285E-01
         21   -1    0    0  501  502  0.00000000000E+00  0.00000000000E+00  0.21622407480E+04  0.21622407480E+04  0.00000000000E+00 0.  1.
          4   -1    0    0  502    0 -0.00000000000E+00 -0.00000000000E+00 -0.30417307452E+03  0.30417307452E+03  0.00000000000E+00 0.  1.
        -13    1    1    2    0    0  0.16887087751E+03 -0.29084196057E+03  0.36111212048E+03  0.49346569691E+03  0.10566000000E+00 0.  1.
         13    1    1    2    0    0  0.29291161486E+03 -0.13286633506E+03 -0.29360339492E+02  0.32297479439E+03  0.10566000000E+00 0. -1.
          4    1    1    2  501    0 -0.46178249237E+03  0.42370829563E+03  0.15263158924E+04  0.16499733312E+04  0.00000000000E+00 0.  1.
</event>
<event>
 5    1  0.1196676E-004  0.4647390E+03  0.7818608E-02  0.9734686E-01
         21   -1    0    0  501  502  0.00000000000E+00  0.00000000000E+00  0.11105289251E+04  0.11105289251E+04  0.00000000000E+00 0. -1.
         -4   -1    0    0    0  501 -0.00000000000E+00 -0.00000000000E+00 -0.53235064601E+03  0.53235064601E+03  0.00000000000E+00 0. -1.
        -13    1    1    2    0    0 -0.24984441375E+03  0.11576555993E+02 -0.26412435988E+03  0.36375532488E+03  0.10566000000E+00 0.  1.
         13    1    1    2    0    0 -0.13753179709E+03  0.37913099953E+03  0.27057711767E+03  0.48566171126E+03  0.10566000000E+00 0. -1.
         -4    1    1    2    0  502  0.38737621084E+03 -0.39070755553E+03  0.57172552126E+03  0.79346253493E+03  0.00000000000E+00 0. -1.
</event>
<event>
 5    1  0.1196676E-004  0.1422340E+03  0.7818608E-02  0.1109034E+00
         21   -1    0    0  501  502  0.00000000000E+00  0.00000000000E+00  0.33141659920E+03  0.33141659920E+03  0.00000000000E+00 0.  1.
         -4   -1    0    0    0  501 -0.00000000000E+00 -0.00000000000E+00 -0.11567446232E+03  0.11567446232E+03  0.00000000000E+00 0. -1.
        -13    1    1    2    0    0  0.13664104468E+03  0.54222258826E+01  0.42416702494E+02  0.14317598765E+03  0.10566000000E+00 0.  1.
         13    1    1    2    0    0 -0.14702475665E+03 -0.60113612631E+01  0.18003028171E+02  0.14824485056E+03  0.10566000000E+00 0. -1.
         -4    1    1    2    0  502  0.10383711966E+02  0.58913538047E+00  0.15532240621E+03  0.15567022331E+03  0.00000000000E+00 0. -1.
</event>
<event>
 5    1  0.1196676E-004  0.4807305E+03  0.7818608E-02  0.9521237E-01
         -4   -1    0    0    0  501 -0.00000000000E+00  0.00000000000E+00  0.23048685758E+04  0.23048685758E+04  0.00000000000E+00 0. -1.
         21   -1    0    0  501  502  0.00000000000E+00 -0.00000000000E+00 -0.78260144266E+03  0.78260144266E+03  0.00000000000E+00 0. -1.
        -13    1    1    2    0    0  0.45338591078E+03  0.13906307315E+03  0.18850283076E+04  0.19437667180E+04  0.10566000000E+00 0.  1.
         13    1    1    2    0    0 -0.67249217773E+03  0.16938016365E+03 -0.31730124730E+03  0.76263717563E+03  0.10566000000E+00 0. -1.
         -4    1    1    2    0  502  0.21910626694E+03 -0.30844323681E+03 -0.45459927111E+02  0.38106612487E+03  0.00000000000E+00 0. -1.
</event>
<event>
 5    1  0.1196676E-004  0.3597310E+03  0.7818608E-02  0.1006912E+00
         21   -1    0    0  501  502  0.00000000000E+00  0.00000000000E+00  0.23381892810E+03  0.23381892810E+03  0.00000000000E+00 0.  1.
          4   -1    0    0  502    0 -0.00000000000E+00 -0.00000000000E+00 -0.15374716311E+04  0.15374716311E+04  0.00000000000E+00 0.  1.
        -13    1    1    2    0    0  0.20303692061E+03 -0.53405740597E+02 -0.10958049424E+04  0.11157350256E+04  0.10566000000E+00 0.  1.
         13    1    1    2    0    0  0.17009337297E+03 -0.46087881079E+02 -0.20372106627E+03  0.26936616773E+03  0.10566000000E+00 0. -1.
          4    1    1    2  501    0 -0.37313029357E+03  0.99493621676E+02 -0.41266943075E+01  0.38618936591E+03  0.00000000000E+00 0.  1.
</event>
<event>
 5    1  0.1196676E-004  0.5064958E+03  0.7818608E-02  0.9463847E-01
          4   -1    0    0  502    0 -0.00000000000E+00  0.00000000000E+00  0.34716197516E+04  0.34716197516E+04  0.00000000000E+00 0.  1.
         21   -1    0    0  501  502  0.00000000000E+00 -0.00000000000E+00 -0.21131283282E+03  0.21131283282E+03  0.00000000000E+00 0.  1.
        -13    1    1    2    0    0 -0.49032145053E+03 -0.24475486289E+03  0.22830400021E+04  0.23478909111E+04  0.10566000000E+00 0.  1.
         13    1    1    2    0    0  0.14935620767E+03  0.47463156745E+03  0.50787453578E+03  0.71099856318E+03  0.10566000000E+00 0. -1.
          4    1    1    2  501    0  0.34096524286E+03 -0.22987670456E+03  0.46939238088E+03  0.62404311018E+03  0.00000000000E+00 0.  1.
</event>
<event>
 5    1  0.1196676E-004  0.3941309E+03  0.7818608E-02  0.9880004E-01
         21   -1    0    0  501  502  0.00000000000E+00  0.00000000000E+00  0.63976951343E+03  0.63976951343E+03  0.00000000000E+00 0.  1.
          4   -1    0    0  502    0 -0.00000000000E+00 -0.00000000000E+00 -0.65450096567E+03  0.65450096567E+03  0.00000000000E+00 0.  1.
        -13    1    1    2    0    0 -0.20336212742E+03  0.60516237636E+02 -0.31086011107E+03  0.37636736004E+03  0.10566000000E+00 0.  1.
         13    1    1    2    0    0 -0.24195832214E+03 -0.62352993800E+02 -0.14681217088E+03  0.28980260553E+03  0.10566000000E+00 0. -1.
          4    1    1    2  501    0  0.44532044956E+03  0.18367561644E+01  0.44294082970E+03  0.62810051352E+03  0.00000000000E+00 0.  1.
</event>
<event>
 5    1  0.1196676E-004  0.4838140E+03  0.7818608E-02  0.9586643E-01
         21   -1    0    0  501  502  0.00000000000E+00  0.00000000000E+00  0.24428221156E+03  0.24428221156E+03  0.00000000000E+00 0. -1.
         -4   -1    0    0    0  501 -0.00000000000E+00 -0.00000000000E+00 -0.23595060966E+04  0.23595060966E+04  0.00000000000E+00 0. -1.
        -13    1    1    2    0    0 -0.23331121122E+03 -0.29082766163E+03 -0.93621035228E+03  0.10077225238E+04  0.10566000000E+00 0.  1.
         13    1    1    2    0    0  0.11884766722E+03  0.66951110590E+03 -0.76089924770E+03  0.10204594873E+04  0.10566000000E+00 0. -1.
         -4    1    1    2    0  502  0.11446354400E+03 -0.37868344427E+03 -0.41811428511E+03  0.57560629712E+03  0.00000000000E+00 0. -1.
</event>
<event>
 5    1  0.1196676E-004  0.2012732E+02  0.7818608E-02  0.1508092E+00
         -4   -1    0    0    0  501 -0.00000000000E+00  0.00000000000E+00  0.12731485536E+02  0.12731485536E+02  0.00000000000E+00 0. -1.
         21   -1    0    0  501  502  0.00000000000E+00 -0.00000000000E+00 -0.52649561797E+03  0.52649561797E+03  0.00000000000E+00 0. -1.
        -13    1    1    2    0    0  0.26213983981E+02  0.23749287036E+01 -0.12282648616E+02  0.29046305507E+02  0.10566000000E+00 0.  1.
         13    1    1    2    0    0 -0.11129636027E+02 -0.13770095667E+02 -0.14645633340E+02  0.22978034571E+02  0.10566000000E+00 0. -1.
         -4    1    1    2    0  502 -0.15084347955E+02  0.11395166963E+02 -0.48683585048E+03  0.48720276343E+03  0.00000000000E+00 0. -1.
</event>
<event>
 5    1  0.1196676E-004  0.3576968E+03  0.7818608E-02  0.1012914E+00
         21   -1    0    0  501  502  0.00000000000E+00  0.00000000000E+00  0.80063058441E+03  0.80063058441E+03  0.00000000000E+00 0.  1.
          4   -1    0    0  502    0 -0.00000000000E+00 -0.00000000000E+00 -0.42845072428E+03  0.42845072428E+03  0.00000000000E+00 0.  1.
        -13    1    1    2    0    0  0.25505084389E+03  0.90906104045E+01 -0.25252706102E+03  0.35903133551E+03  0.10566000000E+00 0.  1.
         13    1    1    2    0    0  0.10430453306E+03  0.10472026959E+03  0.89468188234E+01  0.14807372222E+03  0.10566000000E+00 0. -1.
          4    1    1    2  501    0 -0.35935537695E+03 -0.11381088000E+03  0.61576010232E+03  0.72197625097E+03  0.00000000000E+00 0.  1.
</event>
<event>
 5    1  0.1196676E-004  0.2431713E+03  0.7818608E-02  0.1033993E+00
         -4   -1    0    0    0  501 -0.00000000000E+00  0.00000000000E+00  0.55690332076E+03  0.55690332076E+03  0.00000000000E+00 0. -1.
         21   -1    0    0  501  502  0.00000000000E+00 -0.00000000000E+00 -0.19198485408E+03  0.19198485408E+03  0.00000000000E+00 0. -1.
        -13    1    1    2    0    0  0.19225769339E+03  0.91895331865E+02  0.16649818301E+03  0.27042453438E+03  0.10566000000E+00 0.  1.
         13    1    1    2    0    0 -0.29881241520E+03 -0.30922018177E+02  0.18990996318E+03  0.35540235785E+03  0.10566000000E+00 0. -1.
         -4    1    1    2    0  502  0.10655472182E+03 -0.60973313688E+02  0.85103204914E+01  0.12306128261E+03  0.00000000000E+00 0. -1.
</event>
<event>
 5    1  0.1196676E-004  0.4343238E+02  0.7818608E-02  0.1321114E+00
         21   -1    0    0  501  502  0.00000000000E+00  0.00000000000E+00  0.45004121486E+02  0.45004121486E+02  0.00000000000E+00 0.  1.
          4   -1    0    0  502    0 -0.00000000000E+00 -0.00000000000E+00 -0.13997568519E+03  0.13997568519E+03  0.00000000000E+00 0.  1.
        -13    1    1    2    0    0  0.43206459872E+02 -0.16249515521E+02 -0.12132127132E+03  0.12980642113E+03  0.10566000000E+00 0.  1.
         13    1    1    2    0    0 -0.22921047979E+02  0.16153236228E+02  0.17401047802E+02  0.33001653137E+02  0.10566000000E+00 0. -1.
          4    1    1    2  501    0 -0.20285411893E+02  0.96279293323E-01  0.89486598138E+01  0.22171732405E+02  0.00000000000E+00 0.  1.
</event>
<event>
 5    1  0.1196676E-004  0.4734519E+03  0.7818608E-02  0.9680995E-01
         21   -1    0    0  501  502  0.00000000000E+00  0.00000000000E+00  0.29529635010E+03  0.29529635010E+03  0.00000000000E+00 0. -1.
         -4   -1    0    0    0  501 -0.00000000000E+00 -0.00000000000E+00 -0.20875937358E+04  0.20875937358E+04  0.00000000000E+00 0. -1.
        -13    1    1    2    0    0  0.28506027541E+03  0.54486137317E+01 -0.11091223986E+04  0.11451818870E+04  0.10566000000E+00 0.  1.
         13    1    1    2    0    0  0.24046901395E+03 -0.33082501295E+03 -0.21317710150E+03  0.46121038977E+03  0.10566000000E+00 0. -1.
         -4    1    1    2    0  502 -0.52552928936E+03  0.32537639921E+03 -0.46999788554E+03  0.77649780911E+03  0.00000000000E+00 0. -1.
</event>
<event>
 5    1  0.1196676E-004  0.8308532E+03  0.7818608E-02  0.8952169E-01
         21   -1    0    0  501  502  0.00000000000E+00  0.00000000000E+00  0.94124963552E+03  0.94124963552E+03  0.00000000000E+00 0. -1.
         -4   -1    0    0    0  501 -0.00000000000E+00 -0.00000000000E+00 -0.15065220284E+04  0.15065220284E+04  0.00000000000E+00 0. -1.
        -13    1    1    2    0    0 -0.97084145399E+02  0.89779650207E+03 -0.68310314127E+03  0.11322958108E+04  0.10566000000E+00 0.  1.
         13    1    1    2    0    0 -0.17719248764E+03 -0.74879027626E+03 -0.27195308436E+03  0.81611429760E+03  0.10566000000E+00 0. -1.
         -4    1    1    2    0  502  0.27427663304E+03 -0.14900622581E+03  0.38978383279E+03  0.49936155546E+03  0.00000000000E+00 0. -1.
</event>
<event>
 5    1  0.1196676E-004  0.2056246E+03  0.7818608E-02  0.1056347E+00
         -4   -1    0    0    0  501 -0.00000000000E+00  0.00000000000E+00  0.18443452844E+04  0.18443452844E+04  0.00000000000E+00 0. -1.
         21   -1    0    0  501  502  0.00000000000E+00 -0.00000000000E+00 -0.77834092074E+02  0.77834092074E+02  0.00000000000E+00 0. -1.
        -13    1    1    2    0    0 -0.12810187331E+03  0.15101646071E+03  0.11371949751E+04  0.11543086606E+04  0.10566000000E+00 0.  1.
         13    1    1    2    0    0  0.16062150041E+03 -0.15355156818E+03  0.67562421427E+03  0.71122812132E+03  0.10566000000E+00 0. -1.
         -4    1    1    2    0  502 -0.32519627103E+02  0.25351074690E+01 -0.46307997103E+02  0.56642594507E+02  0.00000000000E+00 0. -1.
</event>
<event>
 5    1  0.1196676E-004  0.1288168E+03  0.7818608E-02  0.1124108E+00
         21   -1    0    0  501  502  0.00000000000E+00  0.00000000000E+00  0.13992629496E+03  0.13992629496E+03  0.00000000000E+00 0.  1.
         -4   -1    0    0    0  501 -0.00000000000E+00 -0.00000000000E+00 -0.18126770381E+03  0.18126770381E+03  0.00000000000E+00 0. -1.
        -13    1    1    2    0    0  0.93033005878E+02 -0.93928470187E+02 -0.98989344945E+02  0.16515628741E+03  0.10566000000E+00 0.  1.
         13    1    1    2    0    0 -0.82450230155E+02  0.88635590248E+02  0.28192600948E+02  0.12429457842E+03  0.10566000000E+00 0. -1.
         -4    1    1    2    0  502 -0.10582775722E+02  0.52928799391E+01  0.29455335149E+02  0.31743132939E+02  0.00000000000E+00 0. -1.
</event>
<event>
 5    1  0.1196676E-004  0.2315826E+03  0.7818608E-02  0.1040405E+00
          4   -1    0    0  502    0 -0.00000000000E+00  0.00000000000E+00  0.72420621182E+03  0.72420621182E+03  0.00000000000E+00 0.  1.
         21   -1    0    0  501  502  0.00000000000E+00 -0.00000000000E+00 -0.13750994340E+03  0.13750994340E+03  0.00000000000E+00 0. -1.
        -13    1    1    2    0    0 -0.30470502453E+02 -0.22061047775E+03  0.61456104978E+02  0.23102878266E+03  0.10566000000E+00 0.  1.
         13    1    1    2    0    0  0.35764856299E+02  0.23132742539E+03  0.55297995343E+03  0.60048175887E+03  0.10566000000E+00 0. -1.
          4    1    1    2  501    0 -0.52943538456E+01 -0.10716947637E+02 -0.27739789985E+02  0.30205613679E+02  0.00000000000E+00 0.  1.
</event>
<event>
 5    1  0.1196676E-004  0.2784898E+02  0.7818608E-02  0.1423059E+00
         21   -1    0    0  501  502  0.00000000000E+00  0.00000000000E+00  0.14612667333E+03  0.14612667333E+03  0.00000000000E+00 0. -1.
          4   -1    0    0  502    0 -0.00000000000E+00 -0.00000000000E+00 -0.42240478432E+02  0.42240478432E+02  0.00000000000E+00 0.  1.
        -13    1    1    2    0    0  0.14047543621E+02  0.23563595820E+02 -0.32997987799E+02  0.42912176507E+02  0.10566000000E+00 0.  1.
         13    1    1    2    0    0 -0.11891428263E+02 -0.35222148462E+02  0.98522463389E+02  0.10530286209E+03  0.10566000000E+00 0. -1.
          4    1    1    2  501    0 -0.21561153587E+01  0.11658552642E+02  0.38361719308E+02  0.40152113163E+02  0.00000000000E+00 0.  1.
</event>
<event>
 5    1  0.1196676E-004  0.4335966E+03  0.7818608E-02  0.9768362E-01
         21   -1    0    0  501  502  0.00000000000E+00  0.00000000000E+00  0.84080900333E+03  0.84080900333E+03  0.00000000000E+00 0.  1.
          4   -1    0    0  502    0 -0.00000000000E+00 -0.00000000000E+00 -0.50276883371E+03  0.50276883371E+03  0.00000000000E+00 0.  1.
        -13    1    1    2    0    0  0.71046145508E+02 -0.34802976358E+03 -0.17723918117E+03  0.39697104382E+03  0.10566000000E+00 0.  1.
         13    1    1    2    0    0  0.27376850502E+03  0.15615943854E+02  0.49751223770E+02  0.27869023570E+03  0.10566000000E+00 0. -1.
          4    1    1    2  501    0 -0.34481465053E+03  0.33241381972E+03  0.46552812702E+03  0.66791655752E+03  0.00000000000E+00 0.  1.
</event>
<event>
 5    1  0.1196676E-004  0.3899382E+03  0.7818608E-02  0.9874482E-01
         -4   -1    0    0    0  501 -0.00000000000E+00  0.00000000000E+00  0.14887607666E+04  0.14887607666E+04  0.00000000000E+00 0. -1.
         21   -1    0    0  501  502  0.00000000000E+00 -0.00000000000E+00 -0.47335644459E+03  0.47335644459E+03  0.00000000000E+00 0. -1.
        -13    1    1    2    0    0 -0.81357830339E+01 -0.51624584431E+03  0.42158153923E+03  0.66656355145E+03  0.10566000000E+00 0.  1.
         13    1    1    2    0    0 -0.29033433336E+03  0.14679984406E+03  0.73189332717E+03  0.80094448801E+03  0.10566000000E+00 0. -1.
         -4    1    1    2    0  502  0.29847011639E+03  0.36944600026E+03 -0.13807054443E+03  0.49460917169E+03  0.00000000000E+00 0. -1.
</event>
<event>
 5    1  0.1196676E-004  0.9803305E+02  0.7818608E-02  0.1167851E+00
          4   -1    0    0  502    0 -0.00000000000E+00  0.00000000000E+00  0.32038791154E+03  0.32038791154E+03  0.00000000000E+00 0.  1.
         21   -1    0    0  501  502  0.00000000000E+00 -0.00000000000E+00 -0.67872034723E+03  0.67872034723E+03  0.00000000000E+00 0.  1.
        -13    1    1    2    0    0 -0.78119550263E+02  0.62317880143E+02  0.30101742530E+03  0.31717137925E+03  0.10566000000E+00 0.  1.
         13    1    1    2    0    0  0.74137593884E+02 -0.10954660104E+02 -0.12975693846E+03  0.14984412450E+03  0.10566000000E+00 0. -1.
          4    1    1    2  501    0  0.39819563789E+01 -0.51363220039E+02 -0.52959292253E+03  0.53209275502E+03  0.00000000000E+00 0.  1.
</event>
<event>
 5    1  0.1196676E-004  0.2693110E+03  0.7818608E-02  0.1020844E+00
          4   -1    0    0  502    0 -0.00000000000E+00  0.00000000000E+00  0.20059857448E+03  0.20059857448E+03  0.00000000000E+00 0.  1.
         21   -1    0    0  501  502  0.00000000000E+00 -0.00000000000E+00 -0.88771445155E+03  0.88771445155E+03  0.00000000000E+00 0. -1.
        -13    1    1    2    0    0 -0.24102600169E+03  0.11553786822E+03  0.56575744885E+02  0.27320936763E+03  0.10566000000E+00 0.  1.
         13    1    1    2    0    0  0.23784660753E+03 -0.15129495420E+03 -0.54910836111E+03  0.61723672549E+03  0.10566000000E+00 0. -1.
          4    1    1    2  501    0  0.31793941624E+01  0.35757085972E+02 -0.19458326083E+03  0.19786693292E+03  0.00000000000E+00 0.  1.
</event>
<event>
 5    1  0.1196676E-004  0.2377777E+03  0.7818608E-02  0.1036929E+00
         21   -1    0    0  501  502  0.00000000000E+00  0.00000000000E+00  0.67013509542E+03  0.67013509542E+03  0.00000000000E+00 0.  1.
         -4   -1    0    0    0  501 -0.00000000000E+00 -0.00000000000E+00 -0.12901840440E+03  0.12901840440E+03  0.00000000000E+00 0. -1.
        -13    1    1    2    0    0  0.19162700365E+03  0.12706995873E+03  0.42220951540E+03  0.48075832702E+03  0.10566000000E+00 0.  1.
         13    1    1    2    0    0 -0.19386122376E+03 -0.14212490543E+03  0.47044513708E+02  0.24493848259E+03  0.10566000000E+00 0. -1.
         -4    1    1    2    0  502  0.22342201065E+01  0.15054946696E+02  0.71862661910E+02  0.73456690208E+02  0.00000000000E+00 0. -1.
</event>
<event>
 5    1  0.1196676E-004  0.2849765E+03  0.7818608E-02  0.1043582E+00
          4   -1    0    0  502    0 -0.00000000000E+00  0.00000000000E+00  0.37746441977E+03  0.37746441977E+03  0.00000000000E+00 0.  1.
         21   -1    0    0  501  502  0.00000000000E+00 -0.00000000000E+00 -0.10814755577E+04  0.10814755577E+04  0.00000000000E+00 0.  1.
        -13    1    1    2    0    0  0.18241045078E+03 -0.31332091790E+03  0.33050929760E+02  0.36405486574E+03  0.10566000000E+00 0.  1.
         13    1    1    2    0    0  0.91770283428E+01  0.11253994344E+03  0.13716718906E+03  0.17766346174E+03  0.10566000000E+00 0. -1.
          4    1    1    2  501    0 -0.19158747912E+03  0.20078097445E+03 -0.87422925680E+03  0.91722165004E+03  0.00000000000E+00 0.  1.
</event>
<event>
 5    1  0.1196676E-004  0.2151800E+03  0.7818608E-02  0.1050200E+00
         21   -1    0    0  501  502  0.00000000000E+00  0.00000000000E+00  0.66176123752E+02  0.66176123752E+02  0.00000000000E+00 0. -1.
          4   -1    0    0  502    0 -0.00000000000E+00 -0.00000000000E+00 -0.14016614470E+04  0.14016614470E+04  0.00000000000E+00 0.  1.
        -13    1    1    2    0    0  0.12627871695E+03  0.17581258360E+03 -0.10820028505E+04  0.11034430473E+04  0.10566000000E+00 0.  1.
         13    1    1    2    0    0 -0.12990680155E+03 -0.16624570925E+03 -0.27140045148E+03  0.34376100588E+03  0.10566000000E+00 0. -1.
          4    1    1    2  501    0  0.36280845932E+01 -0.95668743452E+01  0.17917978792E+02  0.20633517551E+02  0.00000000000E+00 0.  1.
</event>
<event>
 5    1  0.1196676E-004  0.3805934E+03  0.7818608E-02  0.9786828E-01
         21   -1    0    0  501  502  0.00000000000E+00  0.00000000000E+00  0.56067444142E+03  0.56067444142E+03  0.00000000000E+00 0. -1.
         -4   -1    0    0    0  501 -0.00000000000E+00 -0.00000000000E+00 -0.16639389479E+04  0.16639389479E+04  0.00000000000E+00 0. -1.
        -13    1    1    2    0    0 -0.16839692631E+03  0.32998337804E+03 -0.10900680287E+04  0.11513013823E+04  0.10566000000E+00 0.  1.
         13    1    1    2    0    0  0.42224385600E+03 -0.23249818006E+03 -0.38204531812E+03  0.61506415432E+03  0.10566000000E+00 0. -1.
         -4    1    1    2    0  502 -0.25384692969E+03 -0.97485197973E+02  0.36884884030E+03  0.45824785273E+03  0.00000000000E+00 0. -1.
</event>
<event>
 5    1  0.1196676E-004  0.2813013E+03  0.7818608E-02  0.1015337E+00
          4   -1    0    0  502    0 -0.00000000000E+00  0.00000000000E+00  0.30783880091E+04  0.30783880091E+04  0.00000000000E+00 0.  1.
         21   -1    0    0  501  502  0.00000000000E+00 -0.00000000000E+00 -0.18215526812E+03  0.18215526812E+03  0.00000000000E+00 0.  1.
        -13    1    1    2    0    0 -0.79178554787E+02  0.27733584215E+03 -0.41921604929E+02  0.29144784268E+03  0.10566000000E+00 0.  1.
         13    1    1    2    0    0  0.17456582378E+03 -0.22189375069E+03  0.14743348584E+04  0.15011240286E+04  0.10566000000E+00 0. -1.
          4    1    1    2  501    0 -0.95387268990E+02 -0.55442091467E+02  0.14638194876E+04  0.14679714060E+04  0.00000000000E+00 0.  1.
</event>
<event>
 5    1  0.1196676E-004  0.4754767E+03  0.7818608E-02  0.9584959E-01
          4   -1    0    0  502    0 -0.00000000000E+00  0.00000000000E+00  0.44926975854E+04  0.44926975854E+04  0.00000000000E+00 0.  1.
         21   -1    0    0  501  502  0.00000000000E+00 -0.00000000000E+00 -0.14104592287E+03  0.14104592287E+03  0.00000000000E+00 0. -1.
        -13    1    1    2    0    0  0.73517601617E+02 -0.37469002623E+03  0.78625706710E+03  0.87406958547E+03  0.10566000000E+00 0.  1.
         13    1    1    2    0    0  0.36488910095E+03 -0.15171795777E+03  0.21641417712E+04  0.21999254560E+04  0.10566000000E+00 0. -1.
          4    1    1    2  501    0 -0.43840670257E+03  0.52640798400E+03  0.14012528242E+04  0.15597484668E+04  0.00000000000E+00 0.  1.
</event>
<event>
 5    1  0.1196676E-004  0.1044713E+03  0.7818608E-02  0.1231175E+00
          4   -1    0    0  502    0 -0.00000000000E+00  0.00000000000E+00  0.10897887887E+03  0.10897887887E+03  0.00000000000E+00 0.  1.
         21   -1    0    0  501  502  0.00000000000E+00 -0.00000000000E+00 -0.40658744505E+03  0.40658744505E+03  0.00000000000E+00 0.  1.
        -13    1    1    2    0    0 -0.95214198858E+02 -0.81460413278E+01  0.75255459506E+02  0.12163674199E+03  0.10566000000E+00 0.  1.
         13    1    1    2    0    0 -0.68119251173E+01 -0.17865131965E+02 -0.33101382910E+02  0.38226665804E+02  0.10566000000E+00 0. -1.
          4    1    1    2  501    0  0.10202612398E+03  0.26011173293E+02 -0.33976264278E+03  0.35570291612E+03  0.00000000000E+00 0.  1.
</event>
<event>
 5    1  0.1196676E-004  0.1076677E+03  0.7818608E-02  0.1152457E+00
         21   -1    0    0  501  502  0.00000000000E+00  0.00000000000E+00  0.64441418748E+03  0.64441418748E+03  0.00000000000E+00 0. -1.
         -4   -1    0    0    0  501 -0.00000000000E+00 -0.00000000000E+00 -0.76640956757E+02  0.76640956757E+02  0.00000000000E+00 0. -1.
        -13    1    1    2    0    0  0.49778814022E+02  0.87981548959E+02  0.21744448441E+03  0.23979324062E+03  0.10566000000E+00 0.  1.
         13    1    1    2    0    0 -0.41777637186E+02 -0.10078999518E+03 -0.19747047590E+02  0.11087809139E+03  0.10566000000E+00 0. -1.
         -4    1    1    2    0  502 -0.80011768357E+01  0.12808446226E+02  0.37007579390E+03  0.37038381223E+03  0.00000000000E+00 0. -1.
</event>
<event>
 5    1  0.1196676E-004  0.1522288E+03  0.7818608E-02  0.1134123E+00
         21   -1    0    0  501  502  0.00000000000E+00  0.00000000000E+00  0.25276934145E+03  0.25276934145E+03  0.00000000000E+00 0. -1.
         -4   -1    0    0    0  501 -0.00000000000E+00 -0.00000000000E+00 -0.25174500874E+03  0.25174500874E+03  0.00000000000E+00 0. -1.
        -13    1    1    2    0    0  0.57117160739E+02  0.19423265655E+02  0.76192449239E+02  0.97185049183E+02  0.10566000000E+00 0.  1.
         13    1    1    2    0    0 -0.42552285311E+02  0.13625303814E+03 -0.17192341554E+03  0.22345751131E+03  0.10566000000E+00 0. -1.
         -4    1    1    2    0  502 -0.14564875427E+02 -0.15567630379E+03  0.96755299013E+02  0.18387178969E+03  0.00000000000E+00 0. -1.
</event>
<event>
 5    1  0.1196676E-004  0.4960929E+03  0.7818608E-02  0.9649523E-01
         21   -1    0    0  501  502  0.00000000000E+00  0.00000000000E+00  0.21081559436E+03  0.21081559436E+03  0.00000000000E+00 0.  1.
          4   -1    0    0  502    0 -0.00000000000E+00 -0.00000000000E+00 -0.24342294322E+04  0.24342294322E+04  0.00000000000E+00 0.  1.
        -13    1    1    2    0    0  0.24822676644E+03 -0.28350076497E+03 -0.59155664316E+03  0.70137613629E+03  0.10566000000E+00 0.  1.
         13    1    1    2    0    0  0.70833943522E+02 -0.26754273541E+03 -0.10334293050E+04  0.10698470462E+04  0.10566000000E+00 0. -1.
          4    1    1    2  501    0 -0.31906070997E+03  0.55104350037E+03 -0.59842788973E+03  0.87382184406E+03  0.00000000000E+00 0.  1.
</event>
<event>
 5    1  0.1196676E-004  0.2230396E+03  0.7818608E-02  0.1045394E+00
         21   -1    0    0  501  502  0.00000000000E+00  0.00000000000E+00  0.55448642356E+02  0.55448642356E+02  0.00000000000E+00 0.  1.
         -4   -1    0    0    0  501 -0.00000000000E+00 -0.00000000000E+00 -0.99632643758E+03  0.99632643758E+03  0.00000000000E+00 0. -1.
        -13    1    1    2    0    0 -0.15604946216E+03  0.15314582569E+03 -0.32721167649E+03  0.39353852539E+03  0.10566000000E+00 0.  1.
         13    1    1    2    0    0  0.16719209035E+03 -0.15183343218E+03 -0.59545950146E+03  0.63685054388E+03  0.10566000000E+00 0. -1.
         -4    1    1    2    0  502 -0.11142628192E+02 -0.13123935083E+01 -0.18206617276E+02  0.21386010670E+02  0.00000000000E+00 0. -1.
</event>
<event>
 5    1  0.1196676E-004  0.3920065E+03  0.7818608E-02  0.1041631E+00
         21   -1    0    0  501  502  0.00000000000E+00  0.00000000000E+00  0.12979262695E+03  0.12979262695E+03  0.00000000000E+00 0.  1.
          4   -1    0    0  502    0 -0.00000000000E+00 -0.00000000000E+00 -0.19608637243E+04  0.19608637243E+04  0.00000000000E+00 0.  1.
        -13    1    1    2    0    0 -0.41793955450E+03 -0.27451540359E+02 -0.13684611018E+04  0.14311229355E+04  0.10566000000E+00 0.  1.
         13    1    1    2    0    0  0.33132631484E+02  0.31921898199E+02 -0.16992985628E+03  0.17604813567E+03  0.10566000000E+00 0. -1.
          4    1    1    2  501    0  0.38480692302E+03 -0.44703578402E+01 -0.29268013927E+03  0.48348528005E+03  0.00000000000E+00 0.  1.
</event>
<event>
 5    1  0.1196676E-004  0.1492468E+03  0.7818608E-02  0.1101857E+00
         21   -1    0    0  501  502  0.00000000000E+00  0.00000000000E+00  0.28571996176E+03  0.28571996176E+03  0.00000000000E+00 0. -1.
         -4   -1    0    0    0  501 -0.00000000000E+00 -0.00000000000E+00 -0.11726964234E+04  0.11726964234E+04  0.00000000000E+00 0. -1.
        -13    1    1    2    0    0  0.36044796003E+02  0.14032607743E+03 -0.25188970940E+03  0.29058401916E+03  0.10566000000E+00 0.  1.
         13    1    1    2    0    0 -0.13654646249E+03 -0.17845139608E+03  0.21499204163E+03  0.31098460784E+03  0.10566000000E+00 0. -1.
         -4    1    1    2    0  502  0.10050166649E+03  0.38125318650E+02 -0.85007879388E+03  0.85684775817E+03  0.00000000000E+00 0. -1.
</event>
<event>
 5    1  0.1196676E-004  0.3028708E+03  0.7818608E-02  0.1029496E+00
          4   -1    0    0  502    0 -0.00000000000E+00  0.00000000000E+00  0.17174098316E+03  0.17174098316E+03  0.00000000000E+00 0.  1.
         21   -1    0    0  501  502  0.00000000000E+00 -0.00000000000E+00 -0.19700856232E+04  0.19700856232E+04  0.00000000000E+00 0.  1.
        -13    1    1    2    0    0 -0.20542743537E+03  0.25539756726E+03 -0.69442538116E+02  0.33503824532E+03  0.10566000000E+00 0.  1.
         13    1    1    2    0    0  0.13872602355E+03  0.40622307833E+02 -0.19262703450E+03  0.24083244609E+03  0.10566000000E+00 0. -1.
          4    1    1    2  501    0  0.66701411820E+02 -0.29601987509E+03 -0.15362750674E+04  0.15659559150E+04  0.00000000000E+00 0.  1.
</event>
<event>
 5    1  0.1196676E-004  0.3187545E+03  0.7818608E-02  0.9998509E-01
         21   -1    0    0  501  502  0.00000000000E+00  0.00000000000E+00  0.12652295605E+03  0.12652295605E+03  0.00000000000E+00 0. -1.
          4   -1    0    0  502    0 -0.00000000000E+00 -0.00000000000E+00 -0.22759644821E+04  0.22759644821E+04  0.00000000000E+00 0.  1.
        -13    1    1    2    0    0  0.25254176602E+03  0.21429219021E+03 -0.19042622262E+04  0.19328510350E+04  0.10566000000E+00 0.  1.
         13    1    1    2    0    0 -0.24556861187E+03 -0.84358990519E+02 -0.10995875770E+03  0.28197752034E+03  0.10566000000E+00 0. -1.
          4    1    1    2  501    0 -0.69731541476E+01 -0.12993319969E+03 -0.13522054209E+03  0.18765888272E+03  0.00000000000E+00 0.  1.
</event>
<event>
 5    1  0.1196676E-004  0.4460875E+03  0.7818608E-02  0.9852988E-01
         21   -1    0    0  501  502  0.00000000000E+00  0.00000000000E+00  0.94243998188E+03  0.94243998188E+03  0.00000000000E+00 0.  1.
          4   -1    0    0  502    0 -0.00000000000E+00 -0.00000000000E+00 -0.38563092475E+03  0.38563092475E+03  0.00000000000E+00 0.  1.
        -13    1    1    2    0    0  0.39446480315E+03  0.64134110437E+02  0.35968293785E+03  0.53766857077E+03  0.10566000000E+00 0.  1.
         13    1    1    2    0    0  0.17864429023E+03 -0.60929415987E+02  0.82217368871E+02  0.20587832104E+03  0.10566000000E+00 0. -1.
          4    1    1    2  501    0 -0.57310909338E+03 -0.32046944500E+01  0.11490875041E+03  0.58452401482E+03  0.00000000000E+00 0.  1.
</event>
<event>
 5    1  0.1196676E-004  0.2847334E+03  0.7818608E-02  0.1013814E+00
         21   -1    0    0  501  502  0.00000000000E+00  0.00000000000E+00  0.90913697893E+03  0.90913697893E+03  0.00000000000E+00 0. -1.
          4   -1    0    0  502    0 -0.00000000000E+00 -0.00000000000E+00 -0.14017071225E+03  0.14017071225E+03  0.00000000000E+00 0.  1.
        -13    1    1    2    0    0 -0.22245526599E+03 -0.18480570800E+03  0.65471927620E+03  0.71574914381E+03  0.10566000000E+00 0.  1.
         13    1    1    2    0    0  0.20361768176E+03  0.19751753078E+03  0.84248847621E+02  0.29592433962E+03  0.10566000000E+00 0. -1.
          4    1    1    2  501    0  0.18837584224E+02 -0.12711822774E+02  0.29998142861E+02  0.37634207747E+02  0.00000000000E+00 0.  1.
</event>
<event>
 5    1  0.1196676E-004  0.4974269E+03  0.7818608E-02  0.1004388E+00
         21   -1    0    0  501  502  0.00000000000E+00  0.00000000000E+00  0.24946370317E+03  0.24946370317E+03  0.00000000000E+00 0. -1.
         -4   -1    0    0    0  501 -0.00000000000E+00 -0.00000000000E+00 -0.13238130165E+04  0.13238130165E+04  0.00000000000E+00 0. -1.
        -13    1    1    2    0    0 -0.70455352154E+02 -0.16373113951E+02 -0.30380741103E+03  0.31229951916E+03  0.10566000000E+00 0.  1.
         13    1    1    2    0    0  0.36738159418E+03 -0.36122043386E+03 -0.35334211243E+03  0.62474002367E+03  0.10566000000E+00 0. -1.
         -4    1    1    2    0  502 -0.29692624203E+03  0.37759354781E+03 -0.41719978989E+03  0.63623717688E+03  0.00000000000E+00 0. -1.
</event>
<event>
 5    1  0.1196676E-004  0.2816252E+03  0.7818608E-02  0.1015192E+00
         -4   -1    0    0    0  501 -0.00000000000E+00  0.00000000000E+00  0.13916759525E+03  0.13916759525E+03  0.00000000000E+00 0. -1.
         21   -1    0    0  501  502  0.00000000000E+00 -0.00000000000E+00 -0.61090780343E+03  0.61090780343E+03  0.00000000000E+00 0.  1.
        -13    1    1    2    0    0  0.21051033402E+03 -0.18407765365E+03 -0.24548350968E+03  0.37210394783E+03  0.10566000000E+00 0.  1.
         13    1    1    2    0    0 -0.21984438108E+03  0.17888345252E+03 -0.19263557331E+03  0.34269420296E+03  0.10566000000E+00 0. -1.
         -4    1    1    2    0  502  0.93340470607E+01  0.51942011376E+01 -0.33621125187E+02  0.35277247892E+02  0.00000000000E+00 0. -1.
</event>
<event>
 5    1  0.1196676E-004  0.4563901E+03  0.7818608E-02  0.9784669E-01
         21   -1    0    0  501  502  0.00000000000E+00  0.00000000000E+00  0.48971495715E+03  0.48971495715E+03  0.00000000000E+00 0.  1.
          4   -1    0    0  502    0 -0.00000000000E+00 -0.00000000000E+00 -0.10514004868E+04  0.10514004868E+04  0.00000000000E+00 0.  1.
        -13    1    1    2    0    0  0.44196041316E+03  0.18339413721E+03 -0.24705488430E+03  0.53851512827E+03  0.10566000000E+00 0.  1.
         13    1    1    2    0    0 -0.14316285668E+03  0.17013485968E+03 -0.46539219903E+03  0.51578230301E+03  0.10566000000E+00 0. -1.
          4    1    1    2  501    0 -0.29879755647E+03 -0.35352899689E+03  0.15076155368E+03  0.48681801267E+03  0.00000000000E+00 0.  1.
</event>
<event>
 5    1  0.1196676E-004  0.3433280E+03  0.7818608E-02  0.9908732E-01
          4   -1    0    0  502    0 -0.00000000000E+00  0.00000000000E+00  0.18415400293E+04  0.18415400293E+04  0.00000000000E+00 0.  1.
         21   -1    0    0  501  502  0.00000000000E+00 -0.00000000000E+00 -0.82596332959E+02  0.82596332959E+02  0.00000000000E+00 0. -1.
        -13    1    1    2    0    0  0.26148654274E+03  0.22254283400E+03  0.11908784758E+04  0.12393918187E+04  0.10566000000E+00 0.  1.
         13    1    1    2    0    0 -0.28152714429E+03 -0.19807538536E+03  0.54846030511E+03  0.64753386683E+03  0.10566000000E+00 0. -1.
          4    1    1    2  501    0  0.20040601551E+02 -0.24467448635E+02  0.19604915459E+02  0.37210676739E+02  0.00000000000E+00 0.  1.
</event>
<event>
 5    1  0.1196676E-004  0.2129991E+03  0.7818608E-02  0.1112729E+00
          4   -1    0    0  502    0 -0.00000000000E+00  0.00000000000E+00  0.63877842436E+03  0.63877842436E+03  0.00000000000E+00 0.  1.
         21   -1    0    0  501  502  0.00000000000E+00 -0.00000000000E+00 -0.46512460526E+03  0.46512460526E+03  0.00000000000E+00 0.  1.
        -13    1    1    2    0    0  0.86183636607E+02 -0.19415749373E+03 -0.41023521372E+03  0.46197152870E+03  0.10566000000E+00 0.  1.
         13    1    1    2    0    0  0.38143677142E+02  0.43756240381E+01  0.11055204781E+03  0.11702928108E+03  0.10566000000E+00 0. -1.
          4    1    1    2  501    0 -0.12432731375E+03  0.18978186969E+03  0.47333698502E+03  0.52490221984E+03  0.00000000000E+00 0.  1.
</event>
<event>
 5    1  0.1196676E-004  0.4927636E+03  0.7818608E-02  0.9500887E-01
         21   -1    0    0  501  502  0.00000000000E+00  0.00000000000E+00  0.12847259985E+04  0.12847259985E+04  0.00000000000E+00 0.  1.
          4   -1    0    0  502    0 -0.00000000000E+00 -0.00000000000E+00 -0.56660052865E+03  0.56660052865E+03  0.00000000000E+00 0.  1.
        -13    1    1    2    0    0  0.21753901160E+03 -0.50810028486E+02 -0.88751409058E+02  0.24037825263E+03  0.10566000000E+00 0.  1.
         13    1    1    2    0    0  0.39303811123E+03 -0.27647255521E+03 -0.78339904476E+02  0.48688107630E+03  0.10566000000E+00 0. -1.
          4    1    1    2  501    0 -0.61057712283E+03  0.32728258369E+03  0.88521678340E+03  0.11240671982E+04  0.00000000000E+00 0.  1.
</event>
<event>
 5    1  0.1196676E-004  0.4906425E+03  0.7818608E-02  0.9806644E-01
         21   -1    0    0  501  502  0.00000000000E+00  0.00000000000E+00  0.70040010326E+03  0.70040010326E+03  0.00000000000E+00 0.  1.
          4   -1    0    0  502    0 -0.00000000000E+00 -0.00000000000E+00 -0.51787062668E+03  0.51787062668E+03  0.00000000000E+00 0.  1.
        -13    1    1    2    0    0 -0.21680657933E+03  0.43781284726E+03  0.17666707564E+03  0.51951559057E+03  0.10566000000E+00 0.  1.
         13    1    1    2    0    0  0.15205312332E+03  0.66642053152E+02 -0.77773363759E+02  0.18333036528E+03  0.10566000000E+00 0. -1.
          4    1    1    2  501    0  0.64753456014E+02 -0.50445490041E+03  0.83635764699E+02  0.51542477409E+03  0.00000000000E+00 0.  1.
</event>
<event>
 5    1  0.1196676E-004  0.5101737E+03  0.7818608E-02  0.9470699E-01
          4   -1    0    0  502    0 -0.00000000000E+00  0.00000000000E+00  0.55639782884E+03  0.55639782884E+03  0.00000000000E+00 0.  1.
         21   -1    0    0  501  502  0.00000000000E+00 -0.00000000000E+00 -0.11777066467E+04  0.11777066467E+04  0.00000000000E+00 0. -1.
        -13    1    1    2    0    0 -0.88861811631E+02 -0.34663937193E+03  0.35788460641E+01  0.35786602946E+03  0.10566000000E+00 0.  1.
         13    1    1    2    0    0 -0.47325129972E+03 -0.98300078794E+02 -0.11597426160E+03  0.49707116060E+03  0.10566000000E+00 0. -1.
          4    1    1    2  501    0  0.56211311135E+03  0.44493945073E+03 -0.50891340227E+03  0.87916728544E+03  0.00000000000E+00 0.  1.
</event>
<event>
 5    1  0.1196676E-004  0.2237597E+03  0.7818608E-02  0.1044965E+00
          4   -1    0    0  502    0 -0.00000000000E+00  0.00000000000E+00  0.17694727735E+03  0.17694727735E+03  0.00000000000E+00 0.  1.
         21   -1    0    0  501  502  0.00000000000E+00 -0.00000000000E+00 -0.44182884660E+03  0.44182884660E+03  0.00000000000E+00 0. -1.
        -13    1    1    2    0    0  0.19778117271E+03 -0.24841517040E+02 -0.58415112776E+02  0.20771814993E+03  0.10566000000E+00 0.  1.
         13    1    1    2    0    0 -0.25305830217E+03  0.26527641944E+02 -0.70130899384E+02  0.26393289734E+03  0.10566000000E+00 0. -1.
          4    1    1    2  501    0  0.55277129458E+02 -0.16861249040E+01 -0.13633555710E+03  0.14712507668E+03  0.00000000000E+00 0.  1.
</event>
<event>
 5    1  0.1196676E-004  0.2596576E+03  0.7818608E-02  0.1057969E+00
          4   -1    0    0  502    0 -0.00000000000E+00  0.00000000000E+00  0.77295196050E+03  0.77295196050E+03  0.00000000000E+00 0.  1.
         21   -1    0    0  501  502  0.00000000000E+00 -0.00000000000E+00 -0.60744099903E+03  0.60744099903E+03  0.00000000000E+00 0.  1.
        -13    1    1    2    0    0 -0.11314824344E+03  0.22396923961E+03 -0.47056611644E+03  0.53328906457E+03  0.10566000000E+00 0.  1.
         13    1    1    2    0    0 -0.73366502493E+02  0.64019589880E+02  0.44263667275E+03  0.45322002030E+03  0.10566000000E+00 0. -1.
          4    1    1    2  501    0  0.18651474593E+03 -0.28798882949E+03  0.19344040517E+03  0.39388387466E+03  0.00000000000E+00 0.  1.
</event>
<event>
 5    1  0.1196676E-004  0.4183154E+03  0.7818608E-02  0.9706912E-01
          4   -1    0    0  502    0 -0.00000000000E+00  0.00000000000E+00  0.19041744711E+04  0.19041744711E+04  0.00000000000E+00 0.  1.
         21   -1    0    0  501  502  0.00000000000E+00 -0.00000000000E+00 -0.34834881310E+03  0.34834881310E+03  0.00000000000E+00 0.  1.
        -13    1    1    2    0    0 -0.37582514821E+03 -0.69888635446E+02  0.57678518036E+03  0.69196106743E+03  0.10566000000E+00 0.  1.
         13    1    1    2    0    0  0.15442412779E+03 -0.34463125270E+03  0.10211432777E+04  0.10887383139E+04  0.10566000000E+00 0. -1.
          4    1    1    2  501    0  0.22140102042E+03  0.41451988815E+03 -0.42102800015E+02  0.47182390283E+03  0.00000000000E+00 0.  1.
</event>
<event>
 5    1  0.1196676E-004  0.4535763E+03  0.7818608E-02  0.9689929E-01
         21   -1    0    0  501  502  0.00000000000E+00  0.00000000000E+00  0.17929699153E+04  0.17929699153E+04  0.00000000000E+00 0.  1.
          4   -1    0    0  502    0 -0.00000000000E+00 -0.00000000000E+00 -0.28577295200E+03  0.28577295200E+03  0.00000000000E+00 0.  1.
        -13    1    1    2    0    0  0.38089000142E+03  0.49190167722E+03  0.92736932602E+03  0.11167176596E+04  0.10566000000E+00 0.  1.
         13    1    1    2    0    0 -0.65106191611E+02 -0.30747992534E+03  0.50001091005E+02  0.31824965191E+03  0.10566000000E+00 0. -1.
          4    1    1    2  501    0 -0.31578380981E+03 -0.18442175188E+03  0.52982654628E+03  0.64377555581E+03  0.00000000000E+00 0.  1.
</event>
<event>
 5    1  0.1196676E-004  0.7900070E+03  0.7818608E-02  0.9001740E-01
         21   -1    0    0  501  502  0.00000000000E+00  0.00000000000E+00  0.28972486346E+03  0.28972486346E+03  0.00000000000E+00 0. -1.
          4   -1    0    0  502    0 -0.00000000000E+00 -0.00000000000E+00 -0.32934682194E+04  0.32934682194E+04  0.00000000000E+00 0.  1.
        -13    1    1    2    0    0  0.90561869901E+03  0.23758716894E+03 -0.13807235614E+04  0.16682297369E+04  0.10566000000E+00 0.  1.
         13    1    1    2    0    0 -0.70571719770E+03 -0.58246800303E+02 -0.13875488362E+04  0.15577937080E+04  0.10566000000E+00 0. -1.
          4    1    1    2  501    0 -0.19990150131E+03 -0.17934036864E+03 -0.23547095843E+03  0.35716963801E+03  0.00000000000E+00 0.  1.
</event>
<event>
 5    1  0.1196676E-004  0.4079738E+02  0.7818608E-02  0.1334577E+00
         21   -1    0    0  501  502  0.00000000000E+00  0.00000000000E+00  0.85058748953E+02  0.85058748953E+02  0.00000000000E+00 0. -1.
          4   -1    0    0  502    0 -0.00000000000E+00 -0.00000000000E+00 -0.54045921065E+02  0.54045921065E+02  0.00000000000E+00 0.  1.
        -13    1    1    2    0    0  0.11433260896E+02  0.37030977266E+02 -0.24381320052E+01  0.38832568595E+02  0.10566000000E+00 0.  1.
         13    1    1    2    0    0 -0.29706486905E+02 -0.32887568669E+02 -0.16213533831E+02  0.47190649291E+02  0.10566000000E+00 0. -1.
          4    1    1    2  501    0  0.18273226009E+02 -0.41434085968E+01  0.49664493724E+02  0.53081452132E+02  0.00000000000E+00 0.  1.
</event>
<event>
 5    1  0.1196676E-004  0.4820836E+03  0.7818608E-02  0.9596710E-01
          4   -1    0    0  502    0 -0.00000000000E+00  0.00000000000E+00  0.74285934694E+03  0.74285934694E+03  0.00000000000E+00 0.  1.
         21   -1    0    0  501  502  0.00000000000E+00 -0.00000000000E+00 -0.80627854673E+03  0.80627854673E+03  0.00000000000E+00 0.  1.
        -13    1    1    2    0    0  0.65618266234E+03 -0.12724412479E+03 -0.26446223097E+03  0.71882336942E+03  0.10566000000E+00 0.  1.
         13    1    1    2    0    0 -0.35251461916E+03 -0.89081866234E+02  0.26776010348E+03  0.45155024061E+03  0.10566000000E+00 0. -1.
          4    1    1    2  501    0 -0.30366804318E+03  0.21632599102E+03 -0.66717072293E+02  0.37876428365E+03  0.00000000000E+00 0.  1.
</event>
<event>
 5    1  0.1196676E-004  0.4687854E+03  0.7818608E-02  0.9754625E-01
         -4   -1    0    0    0  501 -0.00000000000E+00  0.00000000000E+00  0.35565040370E+03  0.35565040370E+03  0.00000000000E+00 0. -1.
         21   -1    0    0  501  502  0.00000000000E+00 -0.00000000000E+00 -0.18380479974E+04  0.18380479974E+04  0.00000000000E+00 0. -1.
        -13    1    1    2    0    0 -0.14316541177E+02 -0.22703207380E+03  0.14393886907E+03  0.26919683333E+03  0.10566000000E+00 0.  1.
         13    1    1    2    0    0  0.21390021992E+03  0.49252320180E+03 -0.14546837752E+04  0.15506248113E+04  0.10566000000E+00 0. -1.
         -4    1    1    2    0  502 -0.19958367874E+03 -0.26549112800E+03 -0.17165268753E+03  0.37387675643E+03  0.00000000000E+00 0. -1.
</event>
<event>
 5    1  0.1196676E-004  0.1008768E+03  0.7818608E-02  0.1171284E+00
         21   -1    0    0  501  502  0.00000000000E+00  0.00000000000E+00  0.19641383545E+03  0.19641383545E+03  0.00000000000E+00 0. -1.
         -4   -1    0    0    0  501 -0.00000000000E+00 -0.00000000000E+00 -0.47092501667E+03  0.47092501667E+03  0.00000000000E+00 0. -1.
        -13    1    1    2    0    0  0.36802242554E+02 -0.15476582073E+03 -0.57487659530E+01  0.15918518712E+03  0.10566000000E+00 0.  1.
         13    1    1    2    0    0 -0.56930827333E+02  0.55917590366E+02 -0.36205840368E+03  0.37074815556E+03  0.10566000000E+00 0. -1.
         -4    1    1    2    0  502  0.20128584780E+02  0.98848230367E+02  0.93295988408E+02  0.13740550944E+03  0.00000000000E+00 0. -1.
</event>
<event>
 5    1  0.1196676E-004  0.1489602E+03  0.7818608E-02  0.1102141E+00
          4   -1    0    0  502    0 -0.00000000000E+00  0.00000000000E+00  0.13179490217E+04  0.13179490217E+04  0.00000000000E+00 0.  1.
         21   -1    0    0  501  502  0.00000000000E+00 -0.00000000000E+00 -0.88342228769E+02  0.88342228769E+02  0.00000000000E+00 0.  1.
        -13    1    1    2    0    0 -0.51841108709E+02 -0.12274243597E+03  0.72034780861E+03  0.73256684519E+03  0.10566000000E+00 0.  1.
         13    1    1    2    0    0  0.10069089780E+03  0.16258489612E+03  0.56066540114E+03  0.59238349787E+03  0.10566000000E+00 0. -1.
          4    1    1    2  501    0 -0.48849789089E+02 -0.39842460153E+02 -0.51406416831E+02  0.81340907399E+02  0.00000000000E+00 0.  1.
</event>
<event>
 5    1  0.1196676E-004  0.4599961E+03  0.7818608E-02  0.9570245E-01
         -4   -1    0    0    0  501 -0.00000000000E+00  0.00000000000E+00  0.26890554242E+04  0.26890554242E+04  0.00000000000E+00 0. -1.
         21   -1    0    0  501  502  0.00000000000E+00 -0.00000000000E+00 -0.38454812950E+03  0.38454812950E+03  0.00000000000E+00 0. -1.
        -13    1    1    2    0    0 -0.30279926994E+03  0.32778197266E+03  0.18604929392E+04  0.19132596289E+04  0.10566000000E+00 0.  1.
         13    1    1    2    0    0  0.59058933022E+03 -0.15282020915E+03  0.53507266323E+03  0.81145088539E+03  0.10566000000E+00 0. -1.
         -4    1    1    2    0  502 -0.28779006028E+03 -0.17496176351E+03 -0.91058307823E+02  0.34889303936E+03  0.00000000000E+00 0. -1.
</event>
<event>
 5    1  0.1196676E-004  0.4895620E+03  0.7818608E-02  0.1007562E+00
         21   -1    0    0  501  502  0.00000000000E+00  0.00000000000E+00  0.18619550350E+03  0.18619550350E+03  0.00000000000E+00 0. -1.
         -4   -1    0    0    0  501 -0.00000000000E+00 -0.00000000000E+00 -0.16466088287E+04  0.16466088287E+04  0.00000000000E+00 0. -1.
        -13    1    1    2    0    0 -0.35874333193E+02 -0.58312547905E+02 -0.22366813958E+03  0.23391188267E+03  0.10566000000E+00 0.  1.
         13    1    1    2    0    0 -0.40271445710E+03  0.27969564408E+03 -0.41921491643E+03  0.64509669400E+03  0.10566000000E+00 0. -1.
         -4    1    1    2    0  502  0.43858879030E+03 -0.22138309618E+03 -0.81753026924E+03  0.95379575558E+03  0.00000000000E+00 0. -1.
</event>
<event>
 5    1  0.1196676E-004  0.3847523E+03  0.7818608E-02  0.1001939E+00
         -4   -1    0    0    0  501 -0.00000000000E+00  0.00000000000E+00  0.34741036593E+03  0.34741036593E+03  0.00000000000E+00 0. -1.
         21   -1    0    0  501  502  0.00000000000E+00 -0.00000000000E+00 -0.80977663491E+03  0.80977663491E+03  0.00000000000E+00 0. -1.
        -13    1    1    2    0    0  0.74626369991E+02 -0.15194677242E+03  0.80652276358E+02  0.18751457968E+03  0.10566000000E+00 0.  1.
         13    1    1    2    0    0 -0.40112973621E+03  0.16176248374E+03 -0.46253156120E+03  0.63325162667E+03  0.10566000000E+00 0. -1.
         -4    1    1    2    0  502  0.32650336622E+03 -0.98157113196E+01 -0.80486984143E+02  0.33642079448E+03  0.00000000000E+00 0. -1.
</event>
<event>
 5    1  0.1196676E-004  0.4870283E+03  0.7818608E-02  0.9829002E-01
         -4   -1    0    0    0  501 -0.00000000000E+00  0.00000000000E+00  0.19642482080E+04  0.19642482080E+04  0.00000000000E+00 0. -1.
         21   -1    0    0  501  502  0.00000000000E+00 -0.00000000000E+00 -0.19750833221E+03  0.19750833221E+03  0.00000000000E+00 0. -1.
        -13    1    1    2    0    0  0.15022441072E+03  0.46674879202E+02  0.58066069560E+03  0.60159186539E+03  0.10566000000E+00 0.  1.
         13    1    1    2    0    0  0.38209774259E+03  0.80538871853E+02  0.80051690876E+03  0.89068093453E+03  0.10566000000E+00 0. -1.
         -4    1    1    2    0  502 -0.53232215331E+03 -0.12721375105E+03  0.38556227144E+03  0.66948374030E+03  0.00000000000E+00 0. -1.
</event>
<event>
 5    1  0.1196676E-004  0.3132269E+03  0.7818608E-02  0.1032848E+00
          4   -1    0    0  502    0 -0.00000000000E+00  0.00000000000E+00  0.95391654084E+03  0.95391654084E+03  0.00000000000E+00 0.  1.
         21   -1    0    0  501  502  0.00000000000E+00 -0.00000000000E+00 -0.62346795671E+03  0.62346795671E+03  0.00000000000E+00 0.  1.
        -13    1    1    2    0    0  0.21616792538E+03 -0.24078701572E+03 -0.53931925253E+03  0.62894532848E+03  0.10566000000E+00 0.  1.
         13    1    1    2    0    0 -0.26319493405E+02  0.11487727125E+03  0.50348004967E+03  0.51708961966E+03  0.10566000000E+00 0. -1.
          4    1    1    2  501    0 -0.18984843197E+03  0.12590974447E+03  0.36628778699E+03  0.43134954941E+03  0.00000000000E+00 0.  1.
</event>
<event>
 5    1  0.1196676E-004  0.5010228E+03  0.7818608E-02  0.9774391E-01
          4   -1    0    0  502    0 -0.00000000000E+00  0.00000000000E+00  0.17032706766E+04  0.17032706766E+04  0.00000000000E+00 0.  1.
         21   -1    0    0  501  502  0.00000000000E+00 -0.00000000000E+00 -0.23047278130E+03  0.23047278130E+03  0.00000000000E+00 0.  1.
        -13    1    1    2    0    0 -0.61250204617E+01  0.44591296613E+03  0.55837097744E+03  0.71460062192E+03  0.10566000000E+00 0.  1.
         13    1    1    2    0    0 -0.14859245108E+03  0.90713479068E+02  0.48302891074E+03  0.51344482818E+03  0.10566000000E+00 0. -1.
          4    1    1    2  501    0  0.15471747155E+03 -0.53662644520E+03  0.43139800717E+03  0.70569800784E+03  0.00000000000E+00 0.  1.
</event>
<event>
 5    1  0.1196676E-004  0.5021992E+02  0.7818608E-02  0.1290896E+00
         21   -1    0    0  501  502  0.00000000000E+00  0.00000000000E+00  0.62048125917E+02  0.62048125917E+02  0.00000000000E+00 0.  1.
          4   -1    0    0  502    0 -0.00000000000E+00 -0.00000000000E+00 -0.77136935408E+02  0.77136935408E+02  0.00000000000E+00 0.  1.
        -13    1    1    2    0    0  0.31781726940E+02  0.45526016850E+02 -0.37175194836E+02  0.66818430487E+02  0.10566000000E+00 0.  1.
         13    1    1    2    0    0 -0.28455928185E+02 -0.32583979031E+02 -0.36024871884E+01  0.43410190236E+02  0.10566000000E+00 0. -1.
          4    1    1    2  501    0 -0.33257987554E+01 -0.12942037819E+02  0.25688872533E+02  0.28956440601E+02  0.00000000000E+00 0.  1.
</event>
<event>
 5    1  0.1196676E-004  0.1653049E+03  0.7818608E-02  0.1086926E+00
         -4   -1    0    0    0  501 -0.00000000000E+00  0.00000000000E+00  0.44313155265E+03  0.44313155265E+03  0.00000000000E+00 0. -1.
         21   -1    0    0  501  502  0.00000000000E+00 -0.00000000000E+00 -0.14321554246E+03  0.14321554246E+03  0.00000000000E+00 0.  1.
        -13    1    1    2    0    0  0.10294526671E+03 -0.15332615951E+03  0.15578920464E+02  0.18533578461E+03  0.10566000000E+00 0.  1.
         13    1    1    2    0    0 -0.49510096490E+02  0.15429182665E+03  0.30365322064E+03  0.34418382733E+03  0.10566000000E+00 0. -1.
         -4    1    1    2    0  502 -0.53435170219E+02 -0.96566713455E+00 -0.19316130918E+02  0.56827483166E+02  0.00000000000E+00 0. -1.
</event>
<event>
 5    1  0.1196676E-004  0.4926577E+03  0.7818608E-02  0.9786400E-01
         -4   -1    0    0    0  501 -0.00000000000E+00  0.00000000000E+00  0.11739813439E+04  0.11739813439E+04  0.00000000000E+00 0. -1.
         21   -1    0    0  501  502  0.00000000000E+00 -0.00000000000E+00 -0.36033400110E+03  0.36033400110E+03  0.00000000000E+00 0. -1.
        -13    1    1    2    0    0 -0.23671377890E+02  0.17412814626E+03  0.41610910068E+03  0.45169429959E+03  0.10566000000E+00 0.  1.
         13    1    1    2    0    0  0.23512198972E+03 -0.53662716242E+03  0.20286820839E+03  0.62000530855E+03  0.10566000000E+00 0. -1.
         -4    1    1    2    0  502 -0.21145061183E+03  0.36249901615E+03  0.19467003373E+03  0.46261573686E+03  0.00000000000E+00 0. -1.
</event>
<event>
 5    1  0.1196676E-004  0.4918362E+03  0.7818608E-02  0.9883576E-01
          4   -1    0    0  502    0 -0.00000000000E+00  0.00000000000E+00  0.77963181490E+03  0.77963181490E+03  0.00000000000E+00 0.  1.
         21   -1    0    0  501  502  0.00000000000E+00 -0.00000000000E+00 -0.76069309571E+03  0.76069309571E+03  0.00000000000E+00 0.  1.
        -13    1    1    2    0    0  0.33005300135E+03  0.43380398790E+03 -0.22014142980E+03  0.58786320169E+03  0.10566000000E+00 0.  1.
         13    1    1    2    0    0 -0.12313487280E+03 -0.31272347774E+02  0.43948406115E+03  0.45747831402E+03  0.10566000000E+00 0. -1.
          4    1    1    2  501    0 -0.20691812855E+03 -0.40253164012E+03 -0.20040391215E+03  0.49498339490E+03  0.00000000000E+00 0.  1.
</event>
<event>
 5    1  0.1196676E-004  0.3878452E+03  0.7818608E-02  0.9764820E-01
          4   -1    0    0  502    0 -0.00000000000E+00  0.00000000000E+00  0.19970344724E+04  0.19970344724E+04  0.00000000000E+00 0.  1.
         21   -1    0    0  501  502  0.00000000000E+00 -0.00000000000E+00 -0.10687210184E+03  0.10687210184E+03  0.00000000000E+00 0. -1.
        -13    1    1    2    0    0 -0.32896840249E+03 -0.19115562785E+03  0.13712966352E+04  0.14231005435E+04  0.10566000000E+00 0.  1.
         13    1    1    2    0    0  0.34767605561E+03  0.21512375724E+03  0.49586733654E+03  0.64268289006E+03  0.10566000000E+00 0. -1.
          4    1    1    2  501    0 -0.18707653118E+02 -0.23968129385E+02  0.22998398850E+02  0.38123140755E+02  0.00000000000E+00 0.  1.
</event>
<event>
 5    1  0.1196676E-004  0.2906176E+03  0.7818608E-02  0.1011255E+00
          4   -1    0    0  502    0 -0.00000000000E+00  0.00000000000E+00  0.65201451749E+03  0.65201451749E+03  0.00000000000E+00 0.  1.
         21   -1    0    0  501  502  0.00000000000E+00 -0.00000000000E+00 -0.22429219677E+03  0.22429219677E+03  0.00000000000E+00 0. -1.
        -13    1    1    2    0    0 -0.17151680998E+03  0.26371945646E+03  0.26915732102E+03  0.41401889141E+03  0.10566000000E+00 0.  1.
         13    1    1    2    0    0  0.19339552037E+03 -0.16254623766E+03 -0.22594848325E+02  0.25364077947E+03  0.10566000000E+00 0. -1.
          4    1    1    2  501    0 -0.21878710384E+02 -0.10117321880E+03  0.18115984803E+03  0.20864704337E+03  0.00000000000E+00 0.  1.
</event>
<event>
 5    1  0.1196676E-004  0.4080771E+03  0.7818608E-02  0.9841595E-01
         -4   -1    0    0    0  501 -0.00000000000E+00  0.00000000000E+00  0.24705804890E+04  0.24705804890E+04  0.00000000000E+00 0. -1.
         21   -1    0    0  501  502  0.00000000000E+00 -0.00000000000E+00 -0.20586865861E+03  0.20586865861E+03  0.00000000000E+00 0. -1.
        -13    1    1    2    0    0 -0.23230147820E+03  0.10814629912E+03  0.99630622438E+03  0.10287301409E+04  0.10566000000E+00 0.  1.
         13    1    1    2    0    0 -0.30406307235E+02  0.25957350831E+03  0.11516867613E+04  0.11809679746E+04  0.10566000000E+00 0. -1.
         -4    1    1    2    0  502  0.26270778544E+03 -0.36771980743E+03  0.11671884473E+03  0.46675103216E+03  0.00000000000E+00 0. -1.
</event>
<event>
 5    1  0.1196676E-004  0.6557584E+02  0.7818608E-02  0.1238837E+00
         -4   -1    0    0    0  501 -0.00000000000E+00  0.00000000000E+00  0.31645316203E+02  0.31645316203E+02  0.00000000000E+00 0. -1.
         21   -1    0    0  501  502  0.00000000000E+00 -0.00000000000E+00 -0.18074538406E+03  0.18074538406E+03  0.00000000000E+00 0.  1.
        -13    1    1    2    0    0  0.27147884411E+02  0.54687562037E+02 -0.63346694853E+02  0.87980406809E+02  0.10566000000E+00 0.  1.
         13    1    1    2    0    0 -0.39153271688E+02 -0.60061785940E+02 -0.85050046068E+02  0.11123811539E+03  0.10566000000E+00 0. -1.
         -4    1    1    2    0  502  0.12005387277E+02  0.53742239035E+01 -0.70332693448E+00  0.13172178066E+02  0.00000000000E+00 0. -1.
</event>
<event>
 5    1  0.1196676E-004  0.2211067E+03  0.7818608E-02  0.1046556E+00
         21   -1    0    0  501  502  0.00000000000E+00  0.00000000000E+00  0.70306426735E+03  0.70306426735E+03  0.00000000000E+00 0.  1.
          4   -1    0    0  502    0 -0.00000000000E+00 -0.00000000000E+00 -0.34008344631E+03  0.34008344631E+03  0.00000000000E+00 0.  1.
        -13    1    1    2    0    0 -0.23330913816E+03 -0.32481502222E+02 -0.25799993222E+03  0.34935966872E+03  0.10566000000E+00 0.  1.
         13    1    1    2    0    0  0.13134712719E+03  0.96287118343E+02  0.21108284026E+03  0.26660692714E+03  0.10566000000E+00 0. -1.
          4    1    1    2  501    0  0.10196201097E+03 -0.63805616121E+02  0.40989791300E+03  0.42718111781E+03  0.00000000000E+00 0.  1.
</event>
<event>
 5    1  0.1196676E-004  0.4549933E+03  0.7818608E-02  0.9706670E-01
         21   -1    0    0  501  502  0.00000000000E+00  0.00000000000E+00  0.38889903907E+03  0.38889903907E+03  0.00000000000E+00 0. -1.
         -4   -1    0    0    0  501 -0.00000000000E+00 -0.00000000000E+00 -0.11760012910E+04  0.11760012910E+04  0.00000000000E+00 0. -1.
        -13    1    1    2    0    0  0.29372571474E+03  0.15905477455E+01 -0.30238524174E+03  0.42156158616E+03  0.10566000000E+00 0.  1.
         13    1    1    2    0    0 -0.17148890883E+02 -0.41522800994E+03 -0.49414013089E+03  0.64566466901E+03  0.10566000000E+00 0. -1.
         -4    1    1    2    0  502 -0.27657682385E+03  0.41363746219E+03  0.94231206968E+01  0.49767407490E+03  0.00000000000E+00 0. -1.
</event>
<event>
 5    1  0.1196676E-004  0.1333953E+02  0.7818608E-02  0.1631591E+00
         -4   -1    0    0    0  501 -0.00000000000E+00  0.00000000000E+00  0.53510572459E+02  0.53510572459E+02  0.00000000000E+00 0. -1.
         21   -1    0    0  501  502  0.00000000000E+00 -0.00000000000E+00 -0.63063932680E+02  0.63063932680E+02  0.00000000000E+00 0.  1.
        -13    1    1    2    0    0 -0.12413533615E+02 -0.66167913777E+01 -0.51151805118E+02  0.53050881951E+02  0.10566000000E+00 0.  1.
         13    1    1    2    0    0  0.34890596228E+01  0.12940466141E+02  0.48681399418E+02  0.50492761999E+02  0.10566000000E+00 0. -1.
         -4    1    1    2    0  502  0.89244739925E+01 -0.63236747634E+01 -0.70829545207E+01  0.13030861188E+02  0.00000000000E+00 0. -1.
</event>
<event>
 5    1  0.1196676E-004  0.6947208E+03  0.7818608E-02  0.9333709E-01
         21   -1    0    0  501  502  0.00000000000E+00  0.00000000000E+00  0.92856689294E+03  0.92856689294E+03  0.00000000000E+00 0. -1.
         -4   -1    0    0    0  501 -0.00000000000E+00 -0.00000000000E+00 -0.12848910637E+04  0.12848910637E+04  0.00000000000E+00 0. -1.
        -13    1    1    2    0    0 -0.31744148670E+03  0.20694907266E+02 -0.35210286060E+03  0.47452482788E+03  0.10566000000E+00 0.  1.
         13    1    1    2    0    0 -0.61859574329E+03  0.11242688219E+03  0.36145465684E+03  0.72522408783E+03  0.10566000000E+00 0. -1.
         -4    1    1    2    0  502  0.93603722999E+03 -0.13312178945E+03 -0.36567596696E+03  0.10137090409E+04  0.00000000000E+00 0. -1.
</event>
<event>
 5    1  0.1196676E-004  0.2090685E+03  0.7818608E-02  0.1056326E+00
         21   -1    0    0  501  502  0.00000000000E+00  0.00000000000E+00  0.42395473712E+03  0.42395473712E+03  0.00000000000E+00 0. -1.
         -4   -1    0    0    0  501 -0.00000000000E+00 -0.00000000000E+00 -0.10423183490E+04  0.10423183490E+04  0.00000000000E+00 0. -1.
        -13    1    1    2    0    0  0.36662734687E+02  0.22724490765E+03 -0.33334854939E+03  0.40509958123E+03  0.10566000000E+00 0.  1.
         13    1    1    2    0    0  0.16609955397E+03 -0.15260878180E+03 -0.62157061202E+03  0.66123259070E+03  0.10566000000E+00 0. -1.
         -4    1    1    2    0  502 -0.20276228866E+03 -0.74636125850E+02  0.33655554949E+03  0.39994091423E+03  0.00000000000E+00 0. -1.
</event>
<event>
 5    1  0.1196676E-004  0.4831716E+03  0.7818608E-02  0.9718849E-01
         -4   -1    0    0    0  501 -0.00000000000E+00  0.00000000000E+00  0.11539212123E+04  0.11539212123E+04  0.00000000000E+00 0. -1.
         21   -1    0    0  501  502  0.00000000000E+00 -0.00000000000E+00 -0.67496167098E+03  0.67496167098E+03  0.00000000000E+00 0. -1.
        -13    1    1    2    0    0  0.13851750383E+03  0.18998170402E+03  0.74037838199E+03  0.77681420327E+03  0.10566000000E+00 0.  1.
         13    1    1    2    0    0 -0.10673748713E+03  0.40655865062E+03 -0.13468268965E+03  0.44138675287E+03  0.10566000000E+00 0. -1.
         -4    1    1    2    0  502 -0.31780016707E+02 -0.59654035464E+03 -0.12673615101E+03  0.61068192715E+03  0.00000000000E+00 0. -1.
</event>
<event>
 5    1  0.1196676E-004  0.1017825E+03  0.7818608E-02  0.1161640E+00
         21   -1    0    0  501  502  0.00000000000E+00  0.00000000000E+00  0.47302027685E+02  0.47302027685E+02  0.00000000000E+00 0. -1.
         -4   -1    0    0    0  501 -0.00000000000E+00 -0.00000000000E+00 -0.95944648958E+03  0.95944648958E+03  0.00000000000E+00 0. -1.
        -13    1    1    2    0    0 -0.10545587916E+03  0.30578124722E+02 -0.48182014416E+03  0.49417266886E+03  0.10566000000E+00 0.  1.
         13    1    1    2    0    0  0.87021168101E+02 -0.40386710651E+02 -0.46352792622E+03  0.47335179269E+03  0.10566000000E+00 0. -1.
         -4    1    1    2    0  502  0.18434711058E+02  0.98085859286E+01  0.33203608491E+02  0.39224055713E+02  0.00000000000E+00 0. -1.
</event>
<event>
 5    1  0.1196676E-004  0.2129430E+03  0.7818608E-02  0.1051608E+00
         21   -1    0    0  501  502  0.00000000000E+00  0.00000000000E+00  0.13270018582E+04  0.13270018582E+04  0.00000000000E+00 0. -1.
         -4   -1    0    0    0  501 -0.00000000000E+00 -0.00000000000E+00 -0.68968087537E+03  0.68968087537E+03  0.00000000000E+00 0. -1.
        -13    1    1    2    0    0  0.23394404467E+02 -0.23009395791E+03 -0.71754007144E+02  0.24215527319E+03  0.10566000000E+00 0.  1.
         13    1    1    2    0    0 -0.82565818078E+02  0.19361156647E+03 -0.51090763577E+03  0.55256599283E+03  0.10566000000E+00 0. -1.
         -4    1    1    2    0  502  0.59171413611E+02  0.36482391441E+02  0.12199826258E+04  0.12219614676E+04  0.00000000000E+00 0. -1.
</event>
<event>
 5    1  0.1198746E-004  0.1491147E+03  0.7818608E-02  0.1105818E+00
         21   -1    0    0  501  502  0.00000000000E+00  0.00000000000E+00  0.11579842878E+04  0.11579842878E+04  0.00000000000E+00 0. -1.
         -4   -1    0    0    0  501 -0.00000000000E+00 -0.00000000000E+00 -0.33989387151E+03  0.33989387151E+03  0.00000000000E+00 0. -1.
        -13    1    1    2    0    0  0.12166637224E+03  0.57372753718E+02 -0.75037809917E+02  0.15402929295E+03  0.10566000000E+00 0.  1.
         13    1    1    2    0    0 -0.25009797712E+03  0.14758187668E+02 -0.14891308457E+03  0.29144797166E+03  0.10566000000E+00 0. -1.
         -4    1    1    2    0  502  0.12843160488E+03 -0.72130941387E+02  0.10420413108E+04  0.10524008948E+04  0.00000000000E+00 0. -1.
</event>
<event>
 5    1  0.1196676E-004  0.3689241E+03  0.7818608E-02  0.1006979E+00
         21   -1    0    0  501  502  0.00000000000E+00  0.00000000000E+00  0.16560275814E+03  0.16560275814E+03  0.00000000000E+00 0.  1.
          4   -1    0    0  502    0 -0.00000000000E+00 -0.00000000000E+00 -0.26611207147E+04  0.26611207147E+04  0.00000000000E+00 0.  1.
        -13    1    1    2    0    0  0.26281929307E+03 -0.82663795075E+02 -0.15341017320E+04  0.15586453796E+04  0.10566000000E+00 0.  1.
         13    1    1    2    0    0  0.40583808315E+02 -0.15789171268E+03 -0.84954461418E+03  0.86504502835E+03  0.10566000000E+00 0. -1.
          4    1    1    2  501    0 -0.30340310138E+03  0.24055550775E+03 -0.11187161036E+03  0.40303306495E+03  0.00000000000E+00 0.  1.
</event>
<event>
 5    1  0.1196676E-004  0.1364195E+03  0.7818608E-02  0.1115336E+00
         21   -1    0    0  501  502  0.00000000000E+00  0.00000000000E+00  0.21094215953E+03  0.21094215953E+03  0.00000000000E+00 0. -1.
         -4   -1    0    0    0  501 -0.00000000000E+00 -0.00000000000E+00 -0.18337214637E+03  0.18337214637E+03  0.00000000000E+00 0. -1.
        -13    1    1    2    0    0 -0.57055324630E+02 -0.87299030192E+02 -0.14237357448E+00  0.10429027843E+03  0.10566000000E+00 0.  1.
         13    1    1    2    0    0  0.11042976452E+03  0.14349505514E+03 -0.41894522250E+02  0.18585135431E+03  0.10566000000E+00 0. -1.
         -4    1    1    2    0  502 -0.53374439889E+02 -0.56196024950E+02  0.69606908983E+02  0.10417267315E+03  0.00000000000E+00 0. -1.
</event>
<event>
 5    1  0.1196676E-004  0.3331220E+03  0.7818608E-02  0.1039847E+00
         -4   -1    0    0    0  501 -0.00000000000E+00  0.00000000000E+00  0.60182780694E+03  0.60182780694E+03  0.00000000000E+00 0. -1.
         21   -1    0    0  501  502  0.00000000000E+00 -0.00000000000E+00 -0.52309693517E+03  0.52309693517E+03  0.00000000000E+00 0. -1.
        -13    1    1    2    0    0  0.46493327699E+02 -0.64033372945E+02  0.11967338758E+03  0.14346997327E+03  0.10566000000E+00 0.  1.
         13    1    1    2    0    0 -0.59802648214E+02  0.33737777088E+03 -0.40212424933E+03  0.52830298133E+03  0.10566000000E+00 0. -1.
         -4    1    1    2    0  502  0.13309320515E+02 -0.27334439793E+03  0.36118173352E+03  0.45315178751E+03  0.00000000000E+00 0. -1.
</event>
<event>
 5    1  0.1196676E-004  0.4262205E+02  0.7818608E-02  0.1325137E+00
         -4   -1    0    0    0  501 -0.00000000000E+00  0.00000000000E+00  0.14440757512E+02  0.14440757512E+02  0.00000000000E+00 0. -1.
         21   -1    0    0  501  502  0.00000000000E+00 -0.00000000000E+00 -0.22005404862E+03  0.22005404862E+03  0.00000000000E+00 0.  1.
        -13    1    1    2    0    0 -0.23097320987E+02 -0.33378164600E+02 -0.96525869717E+02  0.10471314529E+03  0.10566000000E+00 0.  1.
         13    1    1    2    0    0  0.38661880829E+02  0.23267394172E+02 -0.47750237239E+02  0.65697861314E+02  0.10566000000E+00 0. -1.
         -4    1    1    2    0  502 -0.15564559842E+02  0.10110770428E+02 -0.61337184147E+02  0.64083799519E+02  0.00000000000E+00 0. -1.
</event>
<event>
 5    1  0.1196676E-004  0.2227400E+03  0.7818608E-02  0.1045574E+00
          4   -1    0    0  502    0 -0.00000000000E+00  0.00000000000E+00  0.74638152523E+02  0.74638152523E+02  0.00000000000E+00 0.  1.
         21   -1    0    0  501  502  0.00000000000E+00 -0.00000000000E+00 -0.97377421176E+03  0.97377421176E+03  0.00000000000E+00 0. -1.
        -13    1    1    2    0    0  0.20149599990E+03  0.99297716295E+02 -0.16784132308E+03  0.28041290151E+03  0.10566000000E+00 0.  1.
         13    1    1    2    0    0 -0.18839830413E+03 -0.10843086594E+03 -0.65763957388E+03  0.69263337632E+03  0.10566000000E+00 0. -1.
          4    1    1    2  501    0 -0.13097695771E+02  0.91331496449E+01 -0.73655162281E+02  0.75366086456E+02  0.00000000000E+00 0.  1.
</event>
<event>
 5    1  0.1196676E-004  0.4825822E+03  0.7818608E-02  0.9637481E-01
          4   -1    0    0  502    0 -0.00000000000E+00  0.00000000000E+00  0.12389521332E+04  0.12389521332E+04  0.00000000000E+00 0.  1.
         21   -1    0    0  501  502  0.00000000000E+00 -0.00000000000E+00 -0.49212375000E+03  0.49212375000E+03  0.00000000000E+00 0.  1.
        -13    1    1    2    0    0 -0.58834471755E+02 -0.57676088814E+03  0.12436424409E+03  0.59294274051E+03  0.10566000000E+00 0.  1.
         13    1    1    2    0    0  0.26196560467E+03  0.17257029211E+03  0.60960951348E+03  0.68558752456E+03  0.10566000000E+00 0. -1.
          4    1    1    2  501    0 -0.20313113291E+03  0.40419059603E+03  0.12854625625E+02  0.45254561812E+03  0.00000000000E+00 0.  1.
</event>
<event>
 5    1  0.1196676E-004  0.5130482E+03  0.7818608E-02  0.9557353E-01
         21   -1    0    0  501  502  0.00000000000E+00  0.00000000000E+00  0.41670951100E+03  0.41670951100E+03  0.00000000000E+00 0. -1.
         -4   -1    0    0    0  501 -0.00000000000E+00 -0.00000000000E+00 -0.19756451887E+04  0.19756451887E+04  0.00000000000E+00 0. -1.
        -13    1    1    2    0    0  0.34700819814E+03 -0.12303952434E+02 -0.89499217696E+03  0.95998806493E+03  0.10566000000E+00 0.  1.
         13    1    1    2    0    0  0.10156396181E+03 -0.34689740504E+03 -0.76757984199E+03  0.84842906183E+03  0.10566000000E+00 0. -1.
         -4    1    1    2    0  502 -0.44857215995E+03  0.35920135748E+03  0.10363634123E+03  0.58393757296E+03  0.00000000000E+00 0. -1.
</event>
<event>
 5    1  0.1196676E-004  0.4619287E+03  0.7818608E-02  0.9771502E-01
          4   -1    0    0  502    0 -0.00000000000E+00  0.00000000000E+00  0.22771689524E+04  0.22771689524E+04  0.00000000000E+00 0.  1.
         21   -1    0    0  501  502  0.00000000000E+00 -0.00000000000E+00 -0.20936815473E+03  0.20936815473E+03  0.00000000000E+00 0.  1.
        -13    1    1    2    0    0  0.33218346132E+03 -0.18028196494E+03  0.90084243664E+03  0.97691583346E+03  0.10566000000E+00 0.  1.
         13    1    1    2    0    0  0.17571420345E+03  0.13950012966E+03  0.91327703808E+03  0.94043113885E+03  0.10566000000E+00 0. -1.
          4    1    1    2  501    0 -0.50789766476E+03  0.40781835282E+02  0.25368132295E+03  0.56919013482E+03  0.00000000000E+00 0.  1.
</event>
<event>
 5    1  0.1196676E-004  0.4637558E+02  0.7818608E-02  0.1307293E+00
          4   -1    0    0  502    0 -0.00000000000E+00  0.00000000000E+00  0.44148775024E+03  0.44148775024E+03  0.00000000000E+00 0.  1.
         21   -1    0    0  501  502  0.00000000000E+00 -0.00000000000E+00 -0.23573468924E+02  0.23573468924E+02  0.00000000000E+00 0.  1.
        -13    1    1    2    0    0 -0.26509450038E+02 -0.41523365601E+02  0.19090640237E+03  0.19716035723E+03  0.10566000000E+00 0.  1.
         13    1    1    2    0    0 -0.35316820972E+01  0.48364742799E+02  0.23171326978E+03  0.23673333453E+03  0.10566000000E+00 0. -1.
          4    1    1    2  501    0  0.30041132135E+02 -0.68413771977E+01 -0.47053908267E+01  0.31167527408E+02  0.00000000000E+00 0.  1.
</event>
<event>
 5    1  0.1196676E-004  0.6736543E+02  0.7818608E-02  0.1235712E+00
          4   -1    0    0  502    0 -0.00000000000E+00  0.00000000000E+00  0.10586032595E+04  0.10586032595E+04  0.00000000000E+00 0.  1.
         21   -1    0    0  501  502  0.00000000000E+00 -0.00000000000E+00 -0.27163215379E+03  0.27163215379E+03  0.00000000000E+00 0.  1.
        -13    1    1    2    0    0 -0.59983212651E+02 -0.30533454419E+02 -0.24458742061E+03  0.25367951262E+03  0.10566000000E+00 0.  1.
         13    1    1    2    0    0 -0.40088098437E+02  0.50750342643E+02  0.32657500371E+02  0.72451200191E+02  0.10566000000E+00 0. -1.
          4    1    1    2  501    0  0.10007131109E+03 -0.20216888224E+02  0.99890102596E+03  0.10041047005E+04  0.00000000000E+00 0.  1.
</event>
<event>
 5    1  0.1196676E-004  0.5009913E+03  0.7818608E-02  0.9547135E-01
          4   -1    0    0  502    0 -0.00000000000E+00  0.00000000000E+00  0.13506355460E+04  0.13506355460E+04  0.00000000000E+00 0.  1.
         21   -1    0    0  501  502  0.00000000000E+00 -0.00000000000E+00 -0.61284594383E+03  0.61284594383E+03  0.00000000000E+00 0.  1.
        -13    1    1    2    0    0  0.18405796402E+03  0.31875516619E+03  0.11633841128E+03  0.38602697728E+03  0.10566000000E+00 0.  1.
         13    1    1    2    0    0 -0.16958740802E+03  0.34769818165E+03  0.79889624643E+03  0.88763119493E+03  0.10566000000E+00 0. -1.
          4    1    1    2  501    0 -0.14470555992E+02 -0.66645334784E+03 -0.17744505552E+03  0.68982331764E+03  0.00000000000E+00 0.  1.
</event>
<event>
 5    1  0.1196676E-004  0.1250921E+03  0.7818608E-02  0.1128649E+00
         -4   -1    0    0    0  501 -0.00000000000E+00  0.00000000000E+00  0.29035011884E+03  0.29035011884E+03  0.00000000000E+00 0. -1.
         21   -1    0    0  501  502  0.00000000000E+00 -0.00000000000E+00 -0.19561055943E+03  0.19561055943E+03  0.00000000000E+00 0. -1.
        -13    1    1    2    0    0  0.12008519118E+03 -0.42177714865E+02  0.13197789174E+03  0.18335099629E+03  0.10566000000E+00 0.  1.
         13    1    1    2    0    0 -0.11903675831E+03  0.30612280265E+02  0.10393237154E+03  0.16096214011E+03  0.10566000000E+00 0. -1.
         -4    1    1    2    0  502 -0.10484328664E+01  0.11565434600E+02 -0.14117070386E+03  0.14164754187E+03  0.00000000000E+00 0. -1.
</event>
<event>
 5    1  0.1196676E-004  0.4631732E+03  0.7818608E-02  0.9749828E-01
         21   -1    0    0  501  502  0.00000000000E+00  0.00000000000E+00  0.16331436945E+03  0.16331436945E+03  0.00000000000E+00 0.  1.
          4   -1    0    0  502    0 -0.00000000000E+00 -0.00000000000E+00 -0.24985774518E+04  0.24985774518E+04  0.00000000000E+00 0.  1.
        -13    1    1    2    0    0  0.14342692351E+03 -0.38715450002E+03 -0.14334492033E+04  0.14917226682E+04  0.10566000000E+00 0.  1.
         13    1    1    2    0    0 -0.21325114526E+03 -0.10963866292E+03 -0.35157853083E+03  0.42556334648E+03  0.10566000000E+00 0. -1.
          4    1    1    2  501    0  0.69824221751E+02  0.49679316295E+03 -0.55023534816E+03  0.74460580649E+03  0.00000000000E+00 0.  1.
</event>
<event>
 5    1  0.1196676E-004  0.2562980E+03  0.7818608E-02  0.1027180E+00
         21   -1    0    0  501  502  0.00000000000E+00  0.00000000000E+00  0.10839936159E+03  0.10839936159E+03  0.00000000000E+00 0.  1.
         -4   -1    0    0    0  501 -0.00000000000E+00 -0.00000000000E+00 -0.19366409340E+04  0.19366409340E+04  0.00000000000E+00 0. -1.
        -13    1    1    2    0    0 -0.52530744447E+02  0.23641377258E+03 -0.33959538024E+03  0.41710428483E+03  0.10566000000E+00 0.  1.
         13    1    1    2    0    0  0.47051258502E+01 -0.26137981757E+03 -0.15348200720E+04  0.15569246006E+04  0.10566000000E+00 0. -1.
         -4    1    1    2    0  502  0.47825618597E+02  0.24966044987E+02  0.46173879851E+02  0.71011410189E+02  0.00000000000E+00 0. -1.
</event>
<event>
 5    1  0.1196676E-004  0.5053879E+03  0.7818608E-02  0.9766828E-01
         -4   -1    0    0    0  501 -0.00000000000E+00  0.00000000000E+00  0.41135496646E+04  0.41135496646E+04  0.00000000000E+00 0. -1.
         21   -1    0    0  501  502  0.00000000000E+00 -0.00000000000E+00 -0.94737491338E+02  0.94737491338E+02  0.00000000000E+00 0. -1.
        -13    1    1    2    0    0  0.10101079037E+03  0.14178320401E+03  0.57757809862E+03  0.60324300898E+03  0.10566000000E+00 0.  1.
         13    1    1    2    0    0  0.31036644137E+03 -0.41822330093E+03  0.11750489603E+04  0.12852930123E+04  0.10566000000E+00 0. -1.
         -4    1    1    2    0  502 -0.41137723175E+03  0.27644009691E+03  0.22661851143E+04  0.23197511346E+04  0.00000000000E+00 0. -1.
</event>
<event>
 5    1  0.1196676E-004  0.4854390E+03  0.7818608E-02  0.9761690E-01
         21   -1    0    0  501  502  0.00000000000E+00  0.00000000000E+00  0.28581458814E+03  0.28581458814E+03  0.00000000000E+00 0. -1.
         -4   -1    0    0    0  501 -0.00000000000E+00 -0.00000000000E+00 -0.16259248139E+04  0.16259248139E+04  0.00000000000E+00 0. -1.
        -13    1    1    2    0    0 -0.18921852194E+03  0.64600638907E+02 -0.62695461552E+03  0.65806458093E+03  0.10566000000E+00 0.  1.
         13    1    1    2    0    0  0.54099661246E+03 -0.13272776084E+03 -0.13447477541E+03  0.57304229301E+03  0.10566000000E+00 0. -1.
         -4    1    1    2    0  502 -0.35177809052E+03  0.68127121930E+02 -0.57868083488E+03  0.68063252815E+03  0.00000000000E+00 0. -1.
</event>
<event>
 5    1  0.1196676E-004  0.2735273E+03  0.7818608E-02  0.1018873E+00
         21   -1    0    0  501  502  0.00000000000E+00  0.00000000000E+00  0.14462796132E+04  0.14462796132E+04  0.00000000000E+00 0.  1.
          4   -1    0    0  502    0 -0.00000000000E+00 -0.00000000000E+00 -0.40708591915E+03  0.40708591915E+03  0.00000000000E+00 0.  1.
        -13    1    1    2    0    0  0.25429946590E+03  0.80392857916E+02 -0.84955227833E+02  0.27990825615E+03  0.10566000000E+00 0.  1.
         13    1    1    2    0    0 -0.19730448971E+03 -0.23083560776E+03 -0.11440135378E+03  0.32450241968E+03  0.10566000000E+00 0. -1.
          4    1    1    2  501    0 -0.56994976190E+02  0.15044274984E+03  0.12385502757E+04  0.12489548566E+04  0.00000000000E+00 0.  1.
</event>
<event>
 5    1  0.1196676E-004  0.1602088E+03  0.7818608E-02  0.1091458E+00
         21   -1    0    0  501  502  0.00000000000E+00  0.00000000000E+00  0.18104195232E+03  0.18104195232E+03  0.00000000000E+00 0. -1.
         -4   -1    0    0    0  501 -0.00000000000E+00 -0.00000000000E+00 -0.22942656974E+03  0.22942656974E+03  0.00000000000E+00 0. -1.
        -13    1    1    2    0    0  0.11380478620E+02  0.13310820422E+03  0.55747684275E+02  0.14475885047E+03  0.10566000000E+00 0.  1.
         13    1    1    2    0    0  0.41225405200E+02 -0.17297594247E+03 -0.84281538364E+02  0.19678312829E+03  0.10566000000E+00 0. -1.
         -4    1    1    2    0  502 -0.52605883820E+02  0.39867738253E+02 -0.19850763331E+02  0.68926543296E+02  0.00000000000E+00 0. -1.
</event>
<event>
 5    1  0.1196676E-004  0.3921449E+02  0.7818608E-02  0.1343231E+00
          4   -1    0    0  502    0 -0.00000000000E+00  0.00000000000E+00  0.31296020288E+02  0.31296020288E+02  0.00000000000E+00 0.  1.
         21   -1    0    0  501  502  0.00000000000E+00 -0.00000000000E+00 -0.77034539679E+02  0.77034539679E+02  0.00000000000E+00 0. -1.
        -13    1    1    2    0    0 -0.86317081929E+01 -0.34232363132E+02 -0.81404306727E+01  0.36230358092E+02  0.10566000000E+00 0.  1.
         13    1    1    2    0    0  0.19276516214E+02  0.41419817107E+02 -0.18957387111E+02  0.49462905462E+02  0.10566000000E+00 0. -1.
          4    1    1    2  501    0 -0.10644808022E+02 -0.71874539759E+01 -0.18640701608E+02  0.22637296413E+02  0.00000000000E+00 0.  1.
</event>
<event>
 5    1  0.1196676E-004  0.2230089E+03  0.7818608E-02  0.1075142E+00
         -4   -1    0    0    0  501 -0.00000000000E+00  0.00000000000E+00  0.75957181099E+03  0.75957181099E+03  0.00000000000E+00 0. -1.
         21   -1    0    0  501  502  0.00000000000E+00 -0.00000000000E+00 -0.25176707073E+03  0.25176707073E+03  0.00000000000E+00 0. -1.
        -13    1    1    2    0    0 -0.91001287868E+02  0.22314917453E+02  0.10683979887E+03  0.14210539652E+03  0.10566000000E+00 0.  1.
         13    1    1    2    0    0  0.30160441779E+03 -0.61670395016E+02  0.53447413135E+03  0.61679094570E+03  0.10566000000E+00 0. -1.
         -4    1    1    2    0  502 -0.21060312992E+03  0.39355477563E+02 -0.13350918996E+03  0.25244253950E+03  0.00000000000E+00 0. -1.
</event>
<event>
 5    1  0.3023627E-004  0.3144628E+03  0.7818608E-02  0.1037644E+00
         21   -1    0    0  501  502  0.00000000000E+00  0.00000000000E+00  0.10780660570E+04  0.10780660570E+04  0.00000000000E+00 0.  1.
          4   -1    0    0  502    0 -0.00000000000E+00 -0.00000000000E+00 -0.45353297814E+03  0.45353297814E+03  0.00000000000E+00 0.  1.
        -13    1    1    2    0    0 -0.73137573508E+02  0.28002135953E+03 -0.11526829407E+03  0.31152505073E+03  0.10566000000E+00 0.  1.
         13    1    1    2    0    0 -0.99883181958E+02 -0.11832473331E+02 -0.20200427747E+03  0.22565991390E+03  0.10566000000E+00 0. -1.
          4    1    1    2  501    0  0.17302075547E+03 -0.26818888620E+03  0.94180565043E+03  0.99441407054E+03  0.00000000000E+00 0.  1.
</event>
<event>
 5    1  0.1196676E-004  0.3399862E+03  0.7818608E-02  0.1017316E+00
         21   -1    0    0  501  502  0.00000000000E+00  0.00000000000E+00  0.33515448154E+03  0.33515448154E+03  0.00000000000E+00 0.  1.
          4   -1    0    0  502    0 -0.00000000000E+00 -0.00000000000E+00 -0.10615163488E+04  0.10615163488E+04  0.00000000000E+00 0.  1.
        -13    1    1    2    0    0  0.31036631393E+03 -0.26672532729E+03 -0.66489354649E+03  0.78073880931E+03  0.10566000000E+00 0.  1.
         13    1    1    2    0    0  0.10284790651E+01  0.14962396962E+03 -0.20483977673E+03  0.25366855412E+03  0.10566000000E+00 0. -1.
          4    1    1    2  501    0 -0.31139479300E+03  0.11710135766E+03  0.14337145596E+03  0.36226346691E+03  0.00000000000E+00 0.  1.
</event>
<event>
 5    1  0.1196676E-004  0.4450305E+03  0.7818608E-02  0.9607348E-01
         21   -1    0    0  501  502  0.00000000000E+00  0.00000000000E+00  0.46436909109E+03  0.46436909109E+03  0.00000000000E+00 0. -1.
          4   -1    0    0  502    0 -0.00000000000E+00 -0.00000000000E+00 -0.19120385140E+04  0.19120385140E+04  0.00000000000E+00 0.  1.
        -13    1    1    2    0    0 -0.15843996546E+01 -0.42749412391E+03 -0.14925956904E+04  0.15526093012E+04  0.10566000000E+00 0.  1.
         13    1    1    2    0    0  0.36067404024E+02  0.58817760423E+03 -0.10824733979E+03  0.59914209458E+03  0.10566000000E+00 0. -1.
          4    1    1    2  501    0 -0.34483004369E+02 -0.16068348033E+03  0.15317360719E+03  0.22465620931E+03  0.00000000000E+00 0.  1.
</event>
<event>
 5    1  0.1734482E-004  0.5179218E+03  0.7818608E-02  0.9472746E-01
         -4   -1    0    0    0  501 -0.00000000000E+00  0.00000000000E+00  0.16973647239E+04  0.16973647239E+04  0.00000000000E+00 0. -1.
         21   -1    0    0  501  502  0.00000000000E+00 -0.00000000000E+00 -0.57133098535E+03  0.57133098535E+03  0.00000000000E+00 0. -1.
        -13    1    1    2    0    0 -0.42416645197E+03  0.35080486530E+03  0.96607710262E+03  0.11118840820E+04  0.10566000000E+00 0.  1.
         13    1    1    2    0    0  0.48452385507E+02  0.21918444522E+03  0.37845484580E+03  0.44001992700E+03  0.10566000000E+00 0. -1.
         -4    1    1    2    0  502  0.37571406646E+03 -0.56998931051E+03 -0.21849820985E+03  0.71679170025E+03  0.00000000000E+00 0. -1.
</event>
<event>
 5    1  0.1196676E-004  0.4090855E+03  0.7818608E-02  0.9946802E-01
          4   -1    0    0  502    0 -0.00000000000E+00  0.00000000000E+00  0.57078793074E+03  0.57078793074E+03  0.00000000000E+00 0.  1.
         21   -1    0    0  501  502  0.00000000000E+00 -0.00000000000E+00 -0.62944422207E+03  0.62944422207E+03  0.00000000000E+00 0.  1.
        -13    1    1    2    0    0 -0.48005074516E+03 -0.41977450985E+02  0.24662417397E+03  0.54132644373E+03  0.10566000000E+00 0.  1.
         13    1    1    2    0    0  0.98967750751E+02  0.14892635165E+03 -0.42447645366E+02  0.18378108625E+03  0.10566000000E+00 0. -1.
          4    1    1    2  501    0  0.38108299441E+03 -0.10694890066E+03 -0.26283281993E+03  0.47512462283E+03  0.00000000000E+00 0.  1.
</event>
<event>
 5    1  0.1196676E-004  0.6898949E+03  0.7818608E-02  0.9137767E-01
         21   -1    0    0  501  502  0.00000000000E+00  0.00000000000E+00  0.39592730416E+03  0.39592730416E+03  0.00000000000E+00 0.  1.
         -4   -1    0    0    0  501 -0.00000000000E+00 -0.00000000000E+00 -0.32541630987E+04  0.32541630987E+04  0.00000000000E+00 0. -1.
        -13    1    1    2    0    0  0.91112962713E+03  0.10911356966E+02 -0.94311086528E+03  0.13113864307E+04  0.10566000000E+00 0.  1.
         13    1    1    2    0    0 -0.59298340861E+03  0.23769763337E+03 -0.18129473347E+04  0.19222142277E+04  0.10566000000E+00 0. -1.
         -4    1    1    2    0  502 -0.31814621852E+03 -0.24860899033E+03 -0.10217759462E+03  0.41648974450E+03  0.00000000000E+00 0. -1.
</event>
<event>
 5    1  0.1196676E-004  0.1046585E+03  0.7818608E-02  0.1157070E+00
          4   -1    0    0  502    0 -0.00000000000E+00  0.00000000000E+00  0.64193136310E+03  0.64193136310E+03  0.00000000000E+00 0.  1.
         21   -1    0    0  501  502  0.00000000000E+00 -0.00000000000E+00 -0.11495270238E+03  0.11495270238E+03  0.00000000000E+00 0. -1.
        -13    1    1    2    0    0  0.39690271177E+01  0.10418873174E+03  0.50611101782E+03  0.51673921713E+03  0.10566000000E+00 0.  1.
         13    1    1    2    0    0 -0.85946660180E+02 -0.10087973260E+03  0.64312120120E+02  0.14730787081E+03  0.10566000000E+00 0. -1.
          4    1    1    2  501    0  0.81977633062E+02 -0.33089991418E+01 -0.43444477223E+02  0.92836977541E+02  0.00000000000E+00 0.  1.
</event>
<event>
 5    1  0.1196676E-004  0.1750228E+03  0.7818608E-02  0.1078754E+00
         21   -1    0    0  501  502  0.00000000000E+00  0.00000000000E+00  0.27682097609E+03  0.27682097609E+03  0.00000000000E+00 0.  1.
          4   -1    0    0  502    0 -0.00000000000E+00 -0.00000000000E+00 -0.26075248141E+03  0.26075248141E+03  0.00000000000E+00 0.  1.
        -13    1    1    2    0    0 -0.13670678673E+03 -0.10400183541E+03 -0.13285597944E+03  0.21715397704E+03  0.10566000000E+00 0.  1.
         13    1    1    2    0    0  0.14280995793E+03  0.11374706314E+03  0.11951038387E+02  0.18296425044E+03  0.10566000000E+00 0. -1.
          4    1    1    2  501    0 -0.61031712043E+01 -0.97452277277E+01  0.13697343573E+03  0.13745523001E+03  0.00000000000E+00 0.  1.
</event>
<event>
 5    1  0.1196676E-004  0.4819637E+03  0.7818608E-02  0.9518404E-01
         -4   -1    0    0    0  501 -0.00000000000E+00  0.00000000000E+00  0.32629774464E+04  0.32629774464E+04  0.00000000000E+00 0. -1.
         21   -1    0    0  501  502  0.00000000000E+00 -0.00000000000E+00 -0.17464958386E+03  0.17464958386E+03  0.00000000000E+00 0.  1.
        -13    1    1    2    0    0 -0.35447782373E+03 -0.21301382156E+03  0.12385907491E+04  0.13058087420E+04  0.10566000000E+00 0.  1.
         13    1    1    2    0    0  0.38510609009E+03  0.57145952038E+03  0.13543558168E+04  0.15195895412E+04  0.10566000000E+00 0. -1.
         -4    1    1    2    0  502 -0.30628266360E+02 -0.35844569882E+03  0.49538129668E+03  0.61222874712E+03  0.00000000000E+00 0. -1.
</event>
<event>
 5    1  0.1196676E-004  0.2551503E+03  0.7818608E-02  0.1027758E+00
         21   -1    0    0  501  502  0.00000000000E+00  0.00000000000E+00  0.91622637966E+03  0.91622637966E+03  0.00000000000E+00 0. -1.
         -4   -1    0    0    0  501 -0.00000000000E+00 -0.00000000000E+00 -0.15239749479E+03  0.15239749479E+03  0.00000000000E+00 0. -1.
        -13    1    1    2    0    0  0.25226589002E+03  0.66090356692E+02  0.38937448560E+03  0.46863473593E+03  0.10566000000E+00 0.  1.
         13    1    1    2    0    0 -0.22920187837E+03 -0.11052804999E+03  0.34992379103E+02  0.25685487856E+03  0.10566000000E+00 0. -1.
         -4    1    1    2    0  502 -0.23064011656E+02  0.44437693296E+02  0.33946202017E+03  0.34313425996E+03  0.00000000000E+00 0. -1.
</event>
<event>
 5    1  0.1196676E-004  0.1590208E+03  0.7818608E-02  0.1108814E+00
          4   -1    0    0  502    0 -0.00000000000E+00  0.00000000000E+00  0.14419020679E+04  0.14419020679E+04  0.00000000000E+00 0.  1.
         21   -1    0    0  501  502  0.00000000000E+00 -0.00000000000E+00 -0.36980732809E+02  0.36980732809E+02  0.00000000000E+00 0.  1.
        -13    1    1    2    0    0 -0.18231306985E+03 -0.81547637192E+02  0.79295998510E+03  0.81772466131E+03  0.10566000000E+00 0.  1.
         13    1    1    2    0    0  0.36697650852E+02  0.95571922656E+02  0.21586912555E+03  0.23891463017E+03  0.10566000000E+00 0. -1.
          4    1    1    2  501    0  0.14561541899E+03 -0.14024285464E+02  0.39609222442E+03  0.42224350922E+03  0.00000000000E+00 0.  1.
</event>
<event>
 5    1  0.1196676E-004  0.3475488E+03  0.7818608E-02  0.9894119E-01
          4   -1    0    0  502    0 -0.00000000000E+00  0.00000000000E+00  0.23976088584E+03  0.23976088584E+03  0.00000000000E+00 0.  1.
         21   -1    0    0  501  502  0.00000000000E+00 -0.00000000000E+00 -0.13026410732E+04  0.13026410732E+04  0.00000000000E+00 0. -1.
        -13    1    1    2    0    0  0.16801786602E+03 -0.29920891530E+03  0.40905151845E+02  0.34558533086E+03  0.10566000000E+00 0.  1.
         13    1    1    2    0    0 -0.17383120025E+03  0.32538330395E+03 -0.69227492795E+03  0.78443366049E+03  0.10566000000E+00 0. -1.
          4    1    1    2  501    0  0.58133342301E+01 -0.26174388654E+02 -0.41151041121E+03  0.41238296766E+03  0.00000000000E+00 0.  1.
</event>
<event>
 5    1  0.1196676E-004  0.1838433E+03  0.7818608E-02  0.1071814E+00
         21   -1    0    0  501  502  0.00000000000E+00  0.00000000000E+00  0.36565398592E+02  0.36565398592E+02  0.00000000000E+00 0.  1.
          4   -1    0    0  502    0 -0.00000000000E+00 -0.00000000000E+00 -0.20958494207E+04  0.20958494207E+04  0.00000000000E+00 0.  1.
        -13    1    1    2    0    0 -0.10745168269E+03  0.21515418341E+03 -0.80186381142E+03  0.83715158124E+03  0.10566000000E+00 0.  1.
         13    1    1    2    0    0  0.39891448470E+02 -0.12792311592E+03 -0.26722166857E+03  0.29893658619E+03  0.10566000000E+00 0. -1.
          4    1    1    2  501    0  0.67560234217E+02 -0.87231067491E+02 -0.99019854213E+03  0.99632665187E+03  0.00000000000E+00 0.  1.
</event>
<event>
 5    1  0.1196676E-004  0.4574887E+03  0.7818608E-02  0.1002955E+00
          4   -1    0    0  502    0 -0.00000000000E+00  0.00000000000E+00  0.26252936798E+04  0.26252936798E+04  0.00000000000E+00 0.  1.
         21   -1    0    0  501  502  0.00000000000E+00 -0.00000000000E+00 -0.12291196708E+03  0.12291196708E+03  0.00000000000E+00 0.  1.
        -13    1    1    2    0    0  0.40097755220E+03 -0.24270614543E+03  0.55124186616E+03  0.72357230224E+03  0.10566000000E+00 0.  1.
         13    1    1    2    0    0  0.11518283717E+02  0.96731546131E+02  0.48067324926E+03  0.49044515147E+03  0.10566000000E+00 0. -1.
          4    1    1    2  501    0 -0.41249583592E+03  0.14597459930E+03  0.14704665973E+04  0.15341881932E+04  0.00000000000E+00 0.  1.
</event>
<event>
 5    1  0.1196676E-004  0.4813088E+03  0.7818608E-02  0.9787578E-01
          4   -1    0    0  502    0 -0.00000000000E+00  0.00000000000E+00  0.13751320108E+04  0.13751320108E+04  0.00000000000E+00 0.  1.
         21   -1    0    0  501  502  0.00000000000E+00 -0.00000000000E+00 -0.27201499097E+03  0.27201499097E+03  0.00000000000E+00 0.  1.
        -13    1    1    2    0    0 -0.29261173768E+03 -0.39352674999E+03  0.22723646376E+03  0.54048251925E+03  0.10566000000E+00 0.  1.
         13    1    1    2    0    0  0.17022555576E+03 -0.79079442512E+02  0.26303831421E+03  0.32314000676E+03  0.10566000000E+00 0. -1.
          4    1    1    2  501    0  0.12238618193E+03  0.47260619250E+03  0.61284224190E+03  0.78352447580E+03  0.00000000000E+00 0.  1.
</event>
<event>
 5    1  0.1196676E-004  0.2662220E+03  0.7818608E-02  0.1022313E+00
         21   -1    0    0  501  502  0.00000000000E+00  0.00000000000E+00  0.66871785935E+03  0.66871785935E+03  0.00000000000E+00 0. -1.
          4   -1    0    0  502    0 -0.00000000000E+00 -0.00000000000E+00 -0.48815062015E+03  0.48815062015E+03  0.00000000000E+00 0.  1.
        -13    1    1    2    0    0  0.13467793633E+03 -0.22836634499E+03 -0.40948440536E+03  0.48781843288E+03  0.10566000000E+00 0.  1.
         13    1    1    2    0    0 -0.15858241577E+03  0.23240446437E+03  0.48018969733E+03  0.55654503343E+03  0.10566000000E+00 0. -1.
          4    1    1    2  501    0  0.23904479433E+02 -0.40381193795E+01  0.10986194723E+03  0.11250501319E+03  0.00000000000E+00 0.  1.
</event>
<event>
 5    1  0.1196676E-004  0.2794889E+03  0.7818608E-02  0.1016150E+00
         21   -1    0    0  501  502  0.00000000000E+00  0.00000000000E+00  0.36338861452E+03  0.36338861452E+03  0.00000000000E+00 0. -1.
         -4   -1    0    0    0  501 -0.00000000000E+00 -0.00000000000E+00 -0.10770938007E+04  0.10770938007E+04  0.00000000000E+00 0. -1.
        -13    1    1    2    0    0  0.14137072433E+03  0.12211344717E+03 -0.82382421992E+02  0.20416721160E+03  0.10566000000E+00 0.  1.
         13    1    1    2    0    0 -0.31961257595E+03 -0.92903708379E+02 -0.87317492259E+03  0.93446121072E+03  0.10566000000E+00 0. -1.
         -4    1    1    2    0  502  0.17824185162E+03 -0.29209738790E+02  0.24185215840E+03  0.30185399290E+03  0.00000000000E+00 0. -1.
</event>
<event>
 5    1  0.1196676E-004  0.6657915E+03  0.7818608E-02  0.9174136E-01
         -4   -1    0    0    0  501 -0.00000000000E+00  0.00000000000E+00  0.12128844931E+04  0.12128844931E+04  0.00000000000E+00 0. -1.
         21   -1    0    0  501  502  0.00000000000E+00 -0.00000000000E+00 -0.65634429104E+03  0.65634429104E+03  0.00000000000E+00 0.  1.
        -13    1    1    2    0    0 -0.45558442935E+03 -0.34315672272E+03 -0.70330794977E+02  0.57468264329E+03  0.10566000000E+00 0.  1.
         13    1    1    2    0    0  0.39374291700E+03  0.65962617612E+03  0.27170996406E+03  0.81484139110E+03  0.10566000000E+00 0. -1.
         -4    1    1    2    0  502  0.61841512348E+02 -0.31646945341E+03  0.35516103298E+03  0.47970474975E+03  0.00000000000E+00 0. -1.
</event>
<event>
 5    1  0.1196676E-004  0.3091807E+03  0.7818608E-02  0.1003586E+00
          4   -1    0    0  502    0 -0.00000000000E+00  0.00000000000E+00  0.31286125010E+03  0.31286125010E+03  0.00000000000E+00 0.  1.
         21   -1    0    0  501  502  0.00000000000E+00 -0.00000000000E+00 -0.44527904257E+03  0.44527904257E+03  0.00000000000E+00 0. -1.
        -13    1    1    2    0    0 -0.25997226684E+03  0.17659246516E+03 -0.10767057768E+03  0.33220993775E+03  0.10566000000E+00 0.  1.
         13    1    1    2    0    0  0.24488872689E+03 -0.18445800824E+03  0.82379633240E+02  0.31746127401E+03  0.10566000000E+00 0. -1.
          4    1    1    2  501    0  0.15083539955E+02  0.78655430796E+01 -0.10712684803E+03  0.10846908091E+03  0.00000000000E+00 0.  1.
</event>
<event>
 5    1  0.1196676E-004  0.2137198E+02  0.7818608E-02  0.1512633E+00
         21   -1    0    0  501  502  0.00000000000E+00  0.00000000000E+00  0.78180953398E+02  0.78180953398E+02  0.00000000000E+00 0.  1.
          4   -1    0    0  502    0 -0.00000000000E+00 -0.00000000000E+00 -0.24342837103E+02  0.24342837103E+02  0.00000000000E+00 0.  1.
        -13    1    1    2    0    0  0.27815113441E+02  0.10073166167E+02 -0.75301163178E+01  0.30526431631E+02  0.10566000000E+00 0.  1.
         13    1    1    2    0    0 -0.77548875789E+01 -0.13707635379E+02  0.37086074138E+02  0.40291756081E+02  0.10566000000E+00 0. -1.
          4    1    1    2  501    0 -0.20060225862E+02  0.36344692124E+01  0.24282158474E+02  0.31705602789E+02  0.00000000000E+00 0.  1.
</event>
<event>
 5    1  0.1196676E-004  0.3451026E+03  0.7818608E-02  0.9902561E-01
         21   -1    0    0  501  502  0.00000000000E+00  0.00000000000E+00  0.18354899473E+03  0.18354899473E+03  0.00000000000E+00 0. -1.
         -4   -1    0    0    0  501 -0.00000000000E+00 -0.00000000000E+00 -0.28844565287E+04  0.28844565287E+04  0.00000000000E+00 0. -1.
        -13    1    1    2    0    0  0.16670592957E+03  0.29008202967E+03 -0.10879898645E+04  0.11382707970E+04  0.10566000000E+00 0.  1.
         13    1    1    2    0    0 -0.19035005421E+03 -0.29683411968E+03 -0.17526928431E+04  0.17878131477E+04  0.10566000000E+00 0. -1.
         -4    1    1    2    0  502  0.23644124646E+02  0.67520900110E+01  0.13977517361E+03  0.14192157873E+03  0.00000000000E+00 0. -1.
</event>
<event>
 5    1  0.1196676E-004  0.8821325E+02  0.7818608E-02  0.1185683E+00
         21   -1    0    0  501  502  0.00000000000E+00  0.00000000000E+00  0.90060304583E+02  0.90060304583E+02  0.00000000000E+00 0. -1.
          4   -1    0    0  502    0 -0.00000000000E+00 -0.00000000000E+00 -0.21259936045E+03  0.21259936045E+03  0.00000000000E+00 0.  1.
        -13    1    1    2    0    0  0.63362371276E+02  0.44534480194E+02 -0.61333409095E+02  0.98792247950E+02  0.10566000000E+00 0.  1.
         13    1    1    2    0    0 -0.86212675441E+02 -0.49295839916E+02 -0.11095876096E+03  0.14891125894E+03  0.10566000000E+00 0. -1.
          4    1    1    2  501    0  0.22850304165E+02  0.47613597224E+01  0.49753114189E+02  0.54956158148E+02  0.00000000000E+00 0.  1.
</event>
<event>
 5    1  0.1196676E-004  0.4935376E+03  0.7818608E-02  0.9732836E-01
          4   -1    0    0  502    0 -0.00000000000E+00  0.00000000000E+00  0.24207007708E+04  0.24207007708E+04  0.00000000000E+00 0.  1.
         21   -1    0    0  501  502  0.00000000000E+00 -0.00000000000E+00 -0.17302222876E+03  0.17302222876E+03  0.00000000000E+00 0.  1.
        -13    1    1    2    0    0 -0.15428863193E+03 -0.53559282240E+03  0.68780495748E+03  0.88529109565E+03  0.10566000000E+00 0.  1.
         13    1    1    2    0    0  0.18844815855E+03  0.93063918842E+02  0.81208701993E+03  0.83884381177E+03  0.10566000000E+00 0. -1.
          4    1    1    2  501    0 -0.34159526624E+02  0.44252890356E+03  0.74778656465E+03  0.86958809215E+03  0.00000000000E+00 0.  1.
</event>
<event>
 5    1  0.1196676E-004  0.3639769E+03  0.7818608E-02  0.9885348E-01
          4   -1    0    0  502    0 -0.00000000000E+00  0.00000000000E+00  0.19081935342E+04  0.19081935342E+04  0.00000000000E+00 0.  1.
         21   -1    0    0  501  502  0.00000000000E+00 -0.00000000000E+00 -0.52033404412E+03  0.52033404412E+03  0.00000000000E+00 0.  1.
        -13    1    1    2    0    0  0.52837824326E+03  0.27359224157E+03  0.31301413875E+03  0.67231997205E+03  0.10566000000E+00 0.  1.
         13    1    1    2    0    0 -0.20047037490E+03 -0.23856238459E+03  0.13129740879E+04  0.13494448300E+04  0.10566000000E+00 0. -1.
          4    1    1    2  501    0 -0.32790786836E+03 -0.35029856986E+02 -0.23812873655E+03  0.40676277630E+03  0.00000000000E+00 0.  1.
</event>
<event>
 5    1  0.1196676E-004  0.9886231E+02  0.7818608E-02  0.1207855E+00
         21   -1    0    0  501  502  0.00000000000E+00  0.00000000000E+00  0.96700973939E+02  0.96700973939E+02  0.00000000000E+00 0.  1.
          4   -1    0    0  502    0 -0.00000000000E+00 -0.00000000000E+00 -0.29478616743E+03  0.29478616743E+03  0.00000000000E+00 0.  1.
        -13    1    1    2    0    0 -0.48155945880E+02  0.86616400324E+02 -0.17853027059E+03  0.20419222465E+03  0.10566000000E+00 0.  1.
         13    1    1    2    0    0 -0.29357539706E+02 -0.23694762158E+02 -0.66896891816E+02  0.76801772050E+02  0.10566000000E+00 0. -1.
          4    1    1    2  501    0  0.77513485586E+02 -0.62921638166E+02  0.47341968915E+02  0.11049314466E+03  0.00000000000E+00 0.  1.
</event>
<event>
 5    1  0.1196676E-004  0.9305504E+02  0.7818608E-02  0.1176587E+00
         -4   -1    0    0    0  501 -0.00000000000E+00  0.00000000000E+00  0.74815817289E+02  0.74815817289E+02  0.00000000000E+00 0. -1.
         21   -1    0    0  501  502  0.00000000000E+00 -0.00000000000E+00 -0.29204637456E+03  0.29204637456E+03  0.00000000000E+00 0. -1.
        -13    1    1    2    0    0  0.80319016065E+02 -0.59510433369E+02 -0.55704645226E+02  0.11443624725E+03  0.10566000000E+00 0.  1.
         13    1    1    2    0    0 -0.72162200527E+02  0.52885771166E+02  0.10875118565E+01  0.89473358174E+02  0.10566000000E+00 0. -1.
         -4    1    1    2    0  502 -0.81568155377E+01  0.66246622027E+01 -0.16261342390E+03  0.16295258642E+03  0.00000000000E+00 0. -1.
</event>
<event>
 5    1  0.1196676E-004  0.1607908E+03  0.7818608E-02  0.1090931E+00
         -4   -1    0    0    0  501 -0.00000000000E+00  0.00000000000E+00  0.66712068456E+02  0.66712068456E+02  0.00000000000E+00 0. -1.
         21   -1    0    0  501  502  0.00000000000E+00 -0.00000000000E+00 -0.63968549155E+03  0.63968549155E+03  0.00000000000E+00 0.  1.
        -13    1    1    2    0    0 -0.43083250931E+02  0.16557000164E+03 -0.21624897662E+03  0.27574122472E+03  0.10566000000E+00 0.  1.
         13    1    1    2    0    0  0.65554523399E+02 -0.14031268254E+03 -0.13226163175E+03  0.20366196213E+03  0.10566000000E+00 0. -1.
         -4    1    1    2    0  502 -0.22471272468E+02 -0.25257319097E+02 -0.22446281472E+03  0.22699437316E+03  0.00000000000E+00 0. -1.
</event>
<event>
 5    1  0.1196676E-004  0.3057900E+02  0.7818608E-02  0.1400319E+00
         21   -1    0    0  501  502  0.00000000000E+00  0.00000000000E+00  0.37721674720E+02  0.37721674720E+02  0.00000000000E+00 0. -1.
         -4   -1    0    0    0  501 -0.00000000000E+00 -0.00000000000E+00 -0.11252664749E+03  0.11252664749E+03  0.00000000000E+00 0. -1.
        -13    1    1    2    0    0 -0.29147299738E+02  0.25197083125E+01 -0.52048241703E+02  0.59707157364E+02  0.10566000000E+00 0.  1.
         13    1    1    2    0    0  0.37545385041E+02 -0.27005724650E+02  0.11448407219E+02  0.47644960842E+02  0.10566000000E+00 0. -1.
         -4    1    1    2    0  502 -0.83980853033E+01  0.24486016337E+02 -0.34205138288E+02  0.42896204006E+02  0.00000000000E+00 0. -1.
</event>
<event>
 5    1  0.1196676E-004  0.2806572E+03  0.7818608E-02  0.1015625E+00
         21   -1    0    0  501  502  0.00000000000E+00  0.00000000000E+00  0.18233277180E+03  0.18233277180E+03  0.00000000000E+00 0. -1.
          4   -1    0    0  502    0 -0.00000000000E+00 -0.00000000000E+00 -0.74965331075E+03  0.74965331075E+03  0.00000000000E+00 0.  1.
        -13    1    1    2    0    0  0.12423948346E+03 -0.25436860475E+03 -0.56599654484E+03  0.63284353222E+03  0.10566000000E+00 0.  1.
         13    1    1    2    0    0 -0.11727401001E+03  0.24503305750E+03 -0.24956813780E+02  0.27279524632E+03  0.10566000000E+00 0. -1.
          4    1    1    2  501    0 -0.69654734492E+01  0.93355472479E+01  0.23632819679E+02  0.26347304013E+02  0.00000000000E+00 0.  1.
</event>
<event>
 5    1  0.1196676E-004  0.2085311E+03  0.7818608E-02  0.1054440E+00
         -4   -1    0    0    0  501 -0.00000000000E+00  0.00000000000E+00  0.38919099912E+03  0.38919099912E+03  0.00000000000E+00 0. -1.
         21   -1    0    0  501  502  0.00000000000E+00 -0.00000000000E+00 -0.13099993579E+04  0.13099993579E+04  0.00000000000E+00 0. -1.
        -13    1    1    2    0    0 -0.20413737441E+03 -0.12375041958E+03  0.87896192994E+02  0.25438550643E+03  0.10566000000E+00 0.  1.
         13    1    1    2    0    0  0.19810231117E+03  0.21937181067E+02  0.16983628582E+03  0.26185900930E+03  0.10566000000E+00 0. -1.
         -4    1    1    2    0  502  0.60350632312E+01  0.10181323852E+03 -0.11785408376E+04  0.11829458413E+04  0.00000000000E+00 0. -1.
</event>
<event>
 5    1  0.1196676E-004  0.5192024E+03  0.7818608E-02  0.9487022E-01
         -4   -1    0    0    0  501 -0.00000000000E+00  0.00000000000E+00  0.24699550913E+04  0.24699550913E+04  0.00000000000E+00 0. -1.
         21   -1    0    0  501  502  0.00000000000E+00 -0.00000000000E+00 -0.31159700926E+03  0.31159700926E+03  0.00000000000E+00 0. -1.
        -13    1    1    2    0    0 -0.19561428212E+03  0.53449082572E+03  0.46884047365E+03  0.73739866494E+03  0.10566000000E+00 0.  1.
         13    1    1    2    0    0 -0.30631129911E+03  0.11065254662E+03  0.59226240874E+03  0.67590337327E+03  0.10566000000E+00 0. -1.
         -4    1    1    2    0  502  0.50192558122E+03 -0.64514337235E+03  0.10972551997E+04  0.13682500624E+04  0.00000000000E+00 0. -1.
</event>
<event>
 5    1  0.1196676E-004  0.2576806E+03  0.7818608E-02  0.1026488E+00
          4   -1    0    0  502    0 -0.00000000000E+00  0.00000000000E+00  0.59176250468E+04  0.59176250468E+04  0.00000000000E+00 0.  1.
         21   -1    0    0  501  502  0.00000000000E+00 -0.00000000000E+00 -0.68973143454E+02  0.68973143454E+02  0.00000000000E+00 0.  1.
        -13    1    1    2    0    0  0.18032222220E+03 -0.24906069025E+03  0.37014297470E+03  0.48119971335E+03  0.10566000000E+00 0.  1.
         13    1    1    2    0    0 -0.23146399985E+03  0.10447167974E+03  0.13283442323E+04  0.13524009486E+04  0.10566000000E+00 0. -1.
          4    1    1    2  501    0  0.51141777653E+02  0.14458901051E+03  0.41501646964E+04  0.41529975283E+04  0.00000000000E+00 0.  1.
</event>
<event>
 5    1  0.1196676E-004  0.4538403E+03  0.7818608E-02  0.9585323E-01
         21   -1    0    0  501  502  0.00000000000E+00  0.00000000000E+00  0.28355947330E+03  0.28355947330E+03  0.00000000000E+00 0. -1.
         -4   -1    0    0    0  501 -0.00000000000E+00 -0.00000000000E+00 -0.16336780100E+04  0.16336780100E+04  0.00000000000E+00 0. -1.
        -13    1    1    2    0    0  0.10424071282E+03 -0.32641118426E+03 -0.22664568627E+03  0.41082680741E+03  0.10566000000E+00 0.  1.
         13    1    1    2    0    0  0.10702724725E+03  0.55062663885E+03 -0.10488619237E+04  0.11894351068E+04  0.10566000000E+00 0. -1.
         -4    1    1    2    0  502 -0.21126796007E+03 -0.22421545459E+03 -0.74610926722E+02  0.31697556912E+03  0.00000000000E+00 0. -1.
</event>
<event>
 5    1  0.1196676E-004  0.1892705E+03  0.7818608E-02  0.1067751E+00
         21   -1    0    0  501  502  0.00000000000E+00  0.00000000000E+00  0.14770870437E+03  0.14770870437E+03  0.00000000000E+00 0. -1.
          4   -1    0    0  502    0 -0.00000000000E+00 -0.00000000000E+00 -0.44351968269E+03  0.44351968269E+03  0.00000000000E+00 0.  1.
        -13    1    1    2    0    0 -0.54632040759E+02 -0.18430742526E+03 -0.24824950558E+03  0.31397725247E+03  0.10566000000E+00 0.  1.
         13    1    1    2    0    0  0.34843911555E+02  0.18172513393E+03 -0.10755623651E+03  0.21402447909E+03  0.10566000000E+00 0. -1.
          4    1    1    2  501    0  0.19788129203E+02  0.25822913275E+01  0.59994763769E+02  0.63226655499E+02  0.00000000000E+00 0.  1.
</event>
<event>
 5    1  0.1196676E-004  0.1050414E+03  0.7818608E-02  0.1156474E+00
         21   -1    0    0  501  502  0.00000000000E+00  0.00000000000E+00  0.22294866452E+03  0.22294866452E+03  0.00000000000E+00 0. -1.
         -4   -1    0    0    0  501 -0.00000000000E+00 -0.00000000000E+00 -0.79323167039E+02  0.79323167039E+02  0.00000000000E+00 0. -1.
        -13    1    1    2    0    0  0.70712507877E+02  0.53005092610E+02  0.41153517586E+02  0.97485495262E+02  0.10566000000E+00 0.  1.
         13    1    1    2    0    0 -0.11241479518E+03 -0.62385491485E+02  0.52095154471E+02  0.13871896773E+03  0.10566000000E+00 0. -1.
         -4    1    1    2    0  502  0.41702287308E+02  0.93803988751E+01  0.50376825426E+02  0.66067368570E+02  0.00000000000E+00 0. -1.
</event>
<event>
 5    1  0.1196676E-004  0.6417904E+03  0.7818608E-02  0.9211987E-01
         21   -1    0    0  501  502  0.00000000000E+00  0.00000000000E+00  0.70310218699E+03  0.70310218699E+03  0.00000000000E+00 0. -1.
         -4   -1    0    0    0  501 -0.00000000000E+00 -0.00000000000E+00 -0.16355675332E+04  0.16355675332E+04  0.00000000000E+00 0. -1.
        -13    1    1    2    0    0 -0.38222681362E+03 -0.55215949808E+03 -0.91109297641E+03  0.11318426884E+04  0.10566000000E+00 0.  1.
         13    1    1    2    0    0  0.68173646211E+03  0.14966865961E+03 -0.76285435748E+02  0.70212875622E+03  0.10566000000E+00 0. -1.
         -4    1    1    2    0  502 -0.29950964849E+03  0.40249083847E+03  0.54913065957E+02  0.50469827561E+03  0.00000000000E+00 0. -1.
</event>
<event>
 5    1  0.1196676E-004  0.4095324E+03  0.7818608E-02  0.9701912E-01
         21   -1    0    0  501  502  0.00000000000E+00  0.00000000000E+00  0.48258917967E+03  0.48258917967E+03  0.00000000000E+00 0. -1.
         -4   -1    0    0    0  501 -0.00000000000E+00 -0.00000000000E+00 -0.18897218462E+04  0.18897218462E+04  0.00000000000E+00 0. -1.
        -13    1    1    2    0    0  0.40499954562E+03  0.71313321324E+02 -0.12025903015E+04  0.12709577751E+04  0.10566000000E+00 0.  1.
         13    1    1    2    0    0 -0.42401425097E+03  0.27196526825E+03 -0.45276136253E+03  0.67730794675E+03  0.10566000000E+00 0. -1.
         -4    1    1    2    0  502  0.19014705351E+02 -0.34327858958E+03  0.24821899752E+03  0.42404530396E+03  0.00000000000E+00 0. -1.
</event>
<event>
 5    1  0.1196676E-004  0.5095349E+03  0.7818608E-02  0.9472535E-01
          4   -1    0    0  502    0 -0.00000000000E+00  0.00000000000E+00  0.10370704383E+04  0.10370704383E+04  0.00000000000E+00 0.  1.
         21   -1    0    0  501  502  0.00000000000E+00 -0.00000000000E+00 -0.65372501807E+03  0.65372501807E+03  0.00000000000E+00 0. -1.
        -13    1    1    2    0    0 -0.31388849360E+03  0.21625316297E+03  0.28147872107E+03  0.47383720673E+03  0.10566000000E+00 0.  1.
         13    1    1    2    0    0  0.24268840601E+03  0.46432764866E+03  0.95942396025E+02  0.53263757119E+03  0.10566000000E+00 0. -1.
          4    1    1    2  501    0  0.71200087584E+02 -0.68058081162E+03  0.59243031561E+01  0.68432067847E+03  0.00000000000E+00 0.  1.
</event>
<event>
 5    1  0.1196676E-004  0.1003427E+03  0.7818608E-02  0.1177207E+00
         21   -1    0    0  501  502  0.00000000000E+00  0.00000000000E+00  0.43065190635E+03  0.43065190635E+03  0.00000000000E+00 0. -1.
         -4   -1    0    0    0  501 -0.00000000000E+00 -0.00000000000E+00 -0.71813609221E+02  0.71813609221E+02  0.00000000000E+00 0. -1.
        -13    1    1    2    0    0 -0.22352528478E+02 -0.69637354493E+02  0.20921046125E+02  0.76070349053E+02  0.10566000000E+00 0.  1.
         13    1    1    2    0    0  0.28174978727E+02  0.15532096918E+03  0.14137530746E+03  0.21190899372E+03  0.10566000000E+00 0. -1.
         -4    1    1    2    0  502 -0.58224502492E+01 -0.85683614687E+02  0.19654194354E+03  0.21448617280E+03  0.00000000000E+00 0. -1.
</event>
<event>
 5    1  0.1196676E-004  0.4553898E+03  0.7818608E-02  0.9832430E-01
         -4   -1    0    0    0  501 -0.00000000000E+00  0.00000000000E+00  0.71247204061E+03  0.71247204061E+03  0.00000000000E+00 0. -1.
         21   -1    0    0  501  502  0.00000000000E+00 -0.00000000000E+00 -0.96613566703E+03  0.96613566703E+03  0.00000000000E+00 0. -1.
        -13    1    1    2    0    0 -0.12022637774E+02  0.18982076594E+03  0.43010156356E+03  0.47028058980E+03  0.10566000000E+00 0.  1.
         13    1    1    2    0    0 -0.43336857042E+03 -0.18132517710E+02 -0.84016343945E+02  0.44180975911E+03  0.10566000000E+00 0. -1.
         -4    1    1    2    0  502  0.44539120820E+03 -0.17168824823E+03 -0.59974884603E+03  0.76651735873E+03  0.00000000000E+00 0. -1.
</event>
<event>
 5    1  0.1196676E-004  0.7596861E+02  0.7818608E-02  0.1211885E+00
          4   -1    0    0  502    0 -0.00000000000E+00  0.00000000000E+00  0.20585719782E+02  0.20585719782E+02  0.00000000000E+00 0.  1.
         21   -1    0    0  501  502  0.00000000000E+00 -0.00000000000E+00 -0.63252275336E+03  0.63252275336E+03  0.00000000000E+00 0.  1.
        -13    1    1    2    0    0 -0.83537169292E+02 -0.27599412177E+02 -0.11261400205E+03  0.14290595099E+03  0.10566000000E+00 0.  1.
         13    1    1    2    0    0  0.59066275475E+02 -0.46270259021E+00 -0.19903452327E+03  0.20761452649E+03  0.10566000000E+00 0. -1.
          4    1    1    2  501    0  0.24470893816E+02  0.28062114767E+02 -0.30028850826E+03  0.30258799566E+03  0.00000000000E+00 0.  1.
</event>
<event>
 5    1  0.1196676E-004  0.4222259E+03  0.7818608E-02  0.9666966E-01
         21   -1    0    0  501  502  0.00000000000E+00  0.00000000000E+00  0.47782141951E+03  0.47782141951E+03  0.00000000000E+00 0.  1.
          4   -1    0    0  502    0 -0.00000000000E+00 -0.00000000000E+00 -0.20670527634E+04  0.20670527634E+04  0.00000000000E+00 0.  1.
        -13    1    1    2    0    0 -0.20096416153E+03 -0.36790821282E+03 -0.15761409539E+04  0.16309394119E+04  0.10566000000E+00 0.  1.
         13    1    1    2    0    0  0.22521294128E+03  0.37068396603E+03 -0.36152376575E+03  0.56464760334E+03  0.10566000000E+00 0. -1.
          4    1    1    2  501    0 -0.24248779753E+02 -0.27757532073E+01  0.34843337583E+03  0.34928716769E+03  0.00000000000E+00 0.  1.
</event>
<event>
 5    1  0.1196676E-004  0.2126851E+03  0.7818608E-02  0.1051771E+00
         21   -1    0    0  501  502  0.00000000000E+00  0.00000000000E+00  0.15390176210E+03  0.15390176210E+03  0.00000000000E+00 0. -1.
         -4   -1    0    0    0  501 -0.00000000000E+00 -0.00000000000E+00 -0.13061811491E+04  0.13061811491E+04  0.00000000000E+00 0. -1.
        -13    1    1    2    0    0 -0.19752524559E+03  0.60424798912E+02 -0.51996495516E+03  0.55949168423E+03  0.10566000000E+00 0.  1.
         13    1    1    2    0    0  0.20274831841E+03 -0.79437420273E+02 -0.75015074499E+03  0.78111672351E+03  0.10566000000E+00 0. -1.
         -4    1    1    2    0  502 -0.52230728246E+01  0.19012621362E+02  0.11783631320E+03  0.11947450343E+03  0.00000000000E+00 0. -1.
</event>
<event>
 5    1  0.1196676E-004  0.1802462E+03  0.7818608E-02  0.1101374E+00
         -4   -1    0    0    0  501 -0.00000000000E+00  0.00000000000E+00  0.19451636685E+03  0.19451636685E+03  0.00000000000E+00 0. -1.
         21   -1    0    0  501  502  0.00000000000E+00 -0.00000000000E+00 -0.44281957823E+03  0.44281957823E+03  0.00000000000E+00 0. -1.
        -13    1    1    2    0    0 -0.68891879294E+02 -0.51207855709E+02 -0.29335714937E+02  0.90713454647E+02  0.10566000000E+00 0.  1.
         13    1    1    2    0    0 -0.49818444033E+02  0.18755519932E+03  0.69549218718E+02  0.20614542233E+03  0.10566000000E+00 0. -1.
         -4    1    1    2    0  502  0.11871032333E+03 -0.13634734362E+03 -0.28851671516E+03  0.34047706810E+03  0.00000000000E+00 0. -1.
</event>
<event>
 5    1  0.1196676E-004  0.2398232E+03  0.7818608E-02  0.1035806E+00
          4   -1    0    0  502    0 -0.00000000000E+00  0.00000000000E+00  0.21665401940E+04  0.21665401940E+04  0.00000000000E+00 0.  1.
         21   -1    0    0  501  502  0.00000000000E+00 -0.00000000000E+00 -0.48414566072E+02  0.48414566072E+02  0.00000000000E+00 0.  1.
        -13    1    1    2    0    0 -0.23438020216E+03 -0.37037645557E+02  0.11337295289E+04  0.11582955246E+04  0.10566000000E+00 0.  1.
         13    1    1    2    0    0  0.23796686964E+03  0.48957241405E+02  0.10042533972E+04  0.10332230831E+04  0.10566000000E+00 0. -1.
          4    1    1    2  501    0 -0.35866674805E+01 -0.11919595848E+02 -0.19857298167E+02  0.23436152399E+02  0.00000000000E+00 0.  1.
</event>
<event>
 5    1  0.1196676E-004  0.6900700E+02  0.7818608E-02  0.1229357E+00
         -4   -1    0    0    0  501 -0.00000000000E+00  0.00000000000E+00  0.60318148480E+02  0.60318148480E+02  0.00000000000E+00 0. -1.
         21   -1    0    0  501  502  0.00000000000E+00 -0.00000000000E+00 -0.15150357857E+03  0.15150357857E+03  0.00000000000E+00 0.  1.
        -13    1    1    2    0    0 -0.24645524734E+02  0.45641209591E+02 -0.93649498188E+02  0.10705494653E+03  0.10566000000E+00 0.  1.
         13    1    1    2    0    0  0.48543337342E+02 -0.56601880693E+02  0.14313606094E+02  0.75928380608E+02  0.10566000000E+00 0. -1.
         -4    1    1    2    0  502 -0.23897812608E+02  0.10960671103E+02 -0.11849537991E+02  0.28838399905E+02  0.00000000000E+00 0. -1.
</event>
<event>
 5    1  0.1196676E-004  0.8587790E+02  0.7818608E-02  0.1190305E+00
         21   -1    0    0  501  502  0.00000000000E+00  0.00000000000E+00  0.12268753568E+03  0.12268753568E+03  0.00000000000E+00 0.  1.
          4   -1    0    0  502    0 -0.00000000000E+00 -0.00000000000E+00 -0.11580025140E+03  0.11580025140E+03  0.00000000000E+00 0.  1.
        -13    1    1    2    0    0 -0.32296359295E+02 -0.90336355776E+02  0.70576035622E+02  0.11909953806E+03  0.10566000000E+00 0.  1.
         13    1    1    2    0    0  0.18218095370E+02  0.81418093854E+02 -0.46798839501E+02  0.95660585135E+02  0.10566000000E+00 0. -1.
          4    1    1    2  501    0  0.14078263924E+02  0.89182619221E+01 -0.16889911841E+02  0.23727663872E+02  0.00000000000E+00 0.  1.
</event>
<event>
 5    1  0.1196676E-004  0.4823106E+03  0.7818608E-02  0.9865876E-01
          4   -1    0    0  502    0 -0.00000000000E+00  0.00000000000E+00  0.15423513568E+04  0.15423513568E+04  0.00000000000E+00 0.  1.
         21   -1    0    0  501  502  0.00000000000E+00 -0.00000000000E+00 -0.21153757381E+03  0.21153757381E+03  0.00000000000E+00 0.  1.
        -13    1    1    2    0    0  0.35168804326E+03 -0.31686479886E+03  0.57398305304E+03  0.74400560271E+03  0.10566000000E+00 0.  1.
         13    1    1    2    0    0  0.99434503508E+02  0.10274636958E+03  0.30328879063E+03  0.33530305492E+03  0.10566000000E+00 0. -1.
          4    1    1    2  501    0 -0.45112254677E+03  0.21411842929E+03  0.45354193927E+03  0.67458027294E+03  0.00000000000E+00 0.  1.
</event>
<event>
 5    1  0.1196676E-004  0.3013891E+02  0.7818608E-02  0.1454433E+00
         21   -1    0    0  501  502  0.00000000000E+00  0.00000000000E+00  0.91854182710E+02  0.91854182710E+02  0.00000000000E+00 0. -1.
         -4   -1    0    0    0  501 -0.00000000000E+00 -0.00000000000E+00 -0.99367673104E+02  0.99367673104E+02  0.00000000000E+00 0. -1.
        -13    1    1    2    0    0 -0.12968560583E+02 -0.32393331687E+01  0.71972584627E+01  0.15181848912E+02  0.10566000000E+00 0.  1.
         13    1    1    2    0    0  0.36411600391E+02  0.21578832825E+02 -0.87610105315E+02  0.97298470627E+02  0.10566000000E+00 0. -1.
         -4    1    1    2    0  502 -0.23443039808E+02 -0.18339499656E+02  0.72899356458E+02  0.78741536276E+02  0.00000000000E+00 0. -1.
</event>
<event>
 5    1  0.1196676E-004  0.5268349E+02  0.7818608E-02  0.1281233E+00
         -4   -1    0    0    0  501 -0.00000000000E+00  0.00000000000E+00  0.61712045509E+01  0.61712045509E+01  0.00000000000E+00 0. -1.
         21   -1    0    0  501  502  0.00000000000E+00 -0.00000000000E+00 -0.10690642066E+04  0.10690642066E+04  0.00000000000E+00 0.  1.
        -13    1    1    2    0    0 -0.40968504220E+02  0.25820576349E+02 -0.20833210458E+03  0.21388641252E+03  0.10566000000E+00 0.  1.
         13    1    1    2    0    0  0.54509235089E+02 -0.21065057998E+02 -0.25476182814E+03  0.26137825775E+03  0.10566000000E+00 0. -1.
         -4    1    1    2    0  502 -0.13540730870E+02 -0.47555183511E+01 -0.59979906932E+03  0.59997074087E+03  0.00000000000E+00 0. -1.
</event>
<event>
 5    1  0.1196676E-004  0.5299318E+03  0.7818608E-02  0.9414675E-01
         -4   -1    0    0    0  501 -0.00000000000E+00  0.00000000000E+00  0.18280160411E+04  0.18280160411E+04  0.00000000000E+00 0. -1.
         21   -1    0    0  501  502  0.00000000000E+00 -0.00000000000E+00 -0.28146250721E+03  0.28146250721E+03  0.00000000000E+00 0.  1.
        -13    1    1    2    0    0 -0.24523624869E+03 -0.28764450859E+03  0.16946620024E+03  0.41424507865E+03  0.10566000000E+00 0.  1.
         13    1    1    2    0    0  0.28519359627E+03  0.60477131677E+03  0.95355225124E+03  0.11646225311E+04  0.10566000000E+00 0. -1.
         -4    1    1    2    0  502 -0.39957347582E+02 -0.31712680818E+03  0.42353508239E+03  0.53061093855E+03  0.00000000000E+00 0. -1.
</event>
<event>
 5    1  0.1196676E-004  0.3673276E+03  0.7818608E-02  0.1035462E+00
          4   -1    0    0  502    0 -0.00000000000E+00  0.00000000000E+00  0.10905137601E+04  0.10905137601E+04  0.00000000000E+00 0.  1.
         21   -1    0    0  501  502  0.00000000000E+00 -0.00000000000E+00 -0.26675173384E+03  0.26675173384E+03  0.00000000000E+00 0.  1.
        -13    1    1    2    0    0  0.21598270528E+03 -0.34656507999E+03  0.74107329317E+03  0.84613563963E+03  0.10566000000E+00 0.  1.
         13    1    1    2    0    0  0.99900985145E+01  0.66703098199E+02  0.13183332492E+03  0.14808491517E+03  0.10566000000E+00 0. -1.
          4    1    1    2  501    0 -0.22597280380E+03  0.27986198179E+03 -0.49144591856E+02  0.36304493912E+03  0.00000000000E+00 0.  1.
</event>
<event>
 5    1  0.1196676E-004  0.5842770E+03  0.7818608E-02  0.9334420E-01
         -4   -1    0    0    0  501 -0.00000000000E+00  0.00000000000E+00  0.70203182132E+03  0.70203182132E+03  0.00000000000E+00 0. -1.
         21   -1    0    0  501  502  0.00000000000E+00 -0.00000000000E+00 -0.16723024106E+04  0.16723024106E+04  0.00000000000E+00 0. -1.
        -13    1    1    2    0    0 -0.28767872276E+03  0.54961606972E+03  0.21115977960E+03  0.65530552822E+03  0.10566000000E+00 0.  1.
         13    1    1    2    0    0 -0.31508561637E+03 -0.44634673936E+03 -0.88346089789E+03  0.10387528708E+04  0.10566000000E+00 0. -1.
         -4    1    1    2    0  502  0.60276433913E+03 -0.10326933036E+03 -0.29796947096E+03  0.68027583284E+03  0.00000000000E+00 0. -1.
</event>
<event>
 5    1  0.1196676E-004  0.2830700E+03  0.7818608E-02  0.1014549E+00
         -4   -1    0    0    0  501 -0.00000000000E+00  0.00000000000E+00  0.97151008934E+03  0.97151008934E+03  0.00000000000E+00 0. -1.
         21   -1    0    0  501  502  0.00000000000E+00 -0.00000000000E+00 -0.15044526704E+03  0.15044526704E+03  0.00000000000E+00 0.  1.
        -13    1    1    2    0    0 -0.10577325793E+03  0.22780413875E+03  0.21720412462E+03  0.33205474043E+03  0.10566000000E+00 0.  1.
         13    1    1    2    0    0  0.69476340901E+02 -0.29630701883E+03  0.63670600115E+03  0.70570486353E+03  0.10566000000E+00 0. -1.
         -4    1    1    2    0  502  0.36296917026E+02  0.68502880079E+02 -0.32845303479E+02  0.84195752419E+02  0.00000000000E+00 0. -1.
</event>
<event>
 5    1  0.1196676E-004  0.2984064E+03  0.7818608E-02  0.1007966E+00
         21   -1    0    0  501  502  0.00000000000E+00  0.00000000000E+00  0.21289425623E+03  0.21289425623E+03  0.00000000000E+00 0. -1.
         -4   -1    0    0    0  501 -0.00000000000E+00 -0.00000000000E+00 -0.72367942470E+03  0.72367942470E+03  0.00000000000E+00 0. -1.
        -13    1    1    2    0    0 -0.27327251665E+03  0.13658995780E+03 -0.20712539499E+03  0.36910110450E+03  0.10566000000E+00 0.  1.
         13    1    1    2    0    0  0.25830510378E+03 -0.14065143960E+03 -0.38510033971E+03  0.48456850589E+03  0.10566000000E+00 0. -1.
         -4    1    1    2    0  502  0.14967412869E+02  0.40614817953E+01  0.81440566231E+02  0.82904070530E+02  0.00000000000E+00 0. -1.
</event>
<event>
 5    1  0.1258798E-004  0.3535889E+03  0.7818608E-02  0.1003389E+00
         21   -1    0    0  501  502  0.00000000000E+00  0.00000000000E+00  0.37605218282E+03  0.37605218282E+03  0.00000000000E+00 0. -1.
         -4   -1    0    0    0  501 -0.00000000000E+00 -0.00000000000E+00 -0.13062853503E+04  0.13062853503E+04  0.00000000000E+00 0. -1.
        -13    1    1    2    0    0 -0.17421493957E+03  0.11370806059E+03 -0.54297427088E+03  0.58146490712E+03  0.10566000000E+00 0.  1.
         13    1    1    2    0    0  0.11237532118E+03  0.25424136911E+03 -0.60717202129E+03  0.66777598128E+03  0.10566000000E+00 0. -1.
         -4    1    1    2    0  502  0.61839618394E+02 -0.36794942970E+03  0.21991312472E+03  0.43309664469E+03  0.00000000000E+00 0. -1.
</event>
<event>
 5    1  0.1196676E-004  0.7410046E+02  0.7818608E-02  0.1216362E+00
          4   -1    0    0  502    0 -0.00000000000E+00  0.00000000000E+00  0.47847851380E+03  0.47847851380E+03  0.00000000000E+00 0.  1.
         21   -1    0    0  501  502  0.00000000000E+00 -0.00000000000E+00 -0.72701845923E+02  0.72701845923E+02  0.00000000000E+00 0. -1.
        -13    1    1    2    0    0 -0.47806355398E+02 -0.55277486561E+02  0.43025592274E+03  0.43641862742E+03  0.10566000000E+00 0.  1.
         13    1    1    2    0    0  0.61057499041E+02  0.69419406603E+02 -0.17067144859E+02  0.94012609792E+02  0.10566000000E+00 0. -1.
          4    1    1    2  501    0 -0.13251143643E+02 -0.14141920042E+02 -0.74121100078E+01  0.20749122514E+02  0.00000000000E+00 0.  1.
</event>
<event>
 5    1  0.1196676E-004  0.2107005E+03  0.7818608E-02  0.1053038E+00
         -4   -1    0    0    0  501 -0.00000000000E+00  0.00000000000E+00  0.17239022778E+03  0.17239022778E+03  0.00000000000E+00 0. -1.
         21   -1    0    0  501  502  0.00000000000E+00 -0.00000000000E+00 -0.34945632943E+03  0.34945632943E+03  0.00000000000E+00 0.  1.
        -13    1    1    2    0    0  0.70608379619E+02  0.19354797040E+03 -0.72126812458E+02  0.21828570351E+03  0.10566000000E+00 0.  1.
         13    1    1    2    0    0 -0.67787275972E+02 -0.20348329274E+03 -0.17145519330E+02  0.21516167225E+03  0.10566000000E+00 0. -1.
         -4    1    1    2    0  502 -0.28211036472E+01  0.99353223365E+01 -0.87793769856E+02  0.88399181451E+02  0.00000000000E+00 0. -1.
</event>
<event>
 5    1  0.1196676E-004  0.4942464E+03  0.7818608E-02  0.9812181E-01
         -4   -1    0    0    0  501 -0.00000000000E+00  0.00000000000E+00  0.40441621213E+03  0.40441621213E+03  0.00000000000E+00 0. -1.
         21   -1    0    0  501  502  0.00000000000E+00 -0.00000000000E+00 -0.92600724136E+03  0.92600724136E+03  0.00000000000E+00 0. -1.
        -13    1    1    2    0    0  0.15513929321E+03 -0.36500291683E+02  0.52299526002E+02  0.16773706560E+03  0.10566000000E+00 0.  1.
         13    1    1    2    0    0 -0.31582730841E+03 -0.41113561015E+03 -0.40538089274E+03  0.65811325624E+03  0.10566000000E+00 0. -1.
         -4    1    1    2    0  502  0.16068801520E+03  0.44763590183E+03 -0.16850966248E+03  0.50457313166E+03  0.00000000000E+00 0. -1.
</event>
<event>
 5    1  0.1196676E-004  0.3240241E+03  0.7818608E-02  0.1021099E+00
         -4   -1    0    0    0  501 -0.00000000000E+00  0.00000000000E+00  0.19343061152E+04  0.19343061152E+04  0.00000000000E+00 0. -1.
         21   -1    0    0  501  502  0.00000000000E+00 -0.00000000000E+00 -0.22643478139E+03  0.22643478139E+03  0.00000000000E+00 0. -1.
        -13    1    1    2    0    0 -0.15299707964E+03 -0.11007369784E+02  0.76125568829E+03  0.77655618128E+03  0.10566000000E+00 0.  1.
         13    1    1    2    0    0  0.41696498203E+03  0.16877546502E+03  0.97658695415E+03  0.10752055822E+04  0.10566000000E+00 0. -1.
         -4    1    1    2    0  502 -0.26396790240E+03 -0.15776809523E+03 -0.29971308609E+02  0.30897913313E+03  0.00000000000E+00 0. -1.
</event>
<event>
 5    1  0.1196676E-004  0.1957326E+03  0.7818608E-02  0.1063101E+00
         21   -1    0    0  501  502  0.00000000000E+00  0.00000000000E+00  0.11553102232E+04  0.11553102232E+04  0.00000000000E+00 0.  1.
          4   -1    0    0  502    0 -0.00000000000E+00 -0.00000000000E+00 -0.13207360442E+03  0.13207360442E+03  0.00000000000E+00 0.  1.
        -13    1    1    2    0    0 -0.13145947952E+03 -0.13143410715E+03 -0.92700533320E+01  0.18612486220E+03  0.10566000000E+00 0.  1.
         13    1    1    2    0    0  0.17712886762E+03  0.17347118970E+03  0.43623110805E+03  0.50176137774E+03  0.10566000000E+00 0. -1.
          4    1    1    2  501    0 -0.45669388094E+02 -0.42037082555E+02  0.59627556412E+03  0.59949758772E+03  0.00000000000E+00 0.  1.
</event>
<event>
 5    1  0.1196676E-004  0.4555556E+03  0.7818608E-02  0.9774391E-01
          4   -1    0    0  502    0 -0.00000000000E+00  0.00000000000E+00  0.12865892063E+04  0.12865892063E+04  0.00000000000E+00 0.  1.
         21   -1    0    0  501  502  0.00000000000E+00 -0.00000000000E+00 -0.35116074403E+03  0.35116074403E+03  0.00000000000E+00 0.  1.
        -13    1    1    2    0    0 -0.60631917753E+03 -0.86674314861E+02  0.40500928187E+03  0.73428054003E+03  0.10566000000E+00 0.  1.
         13    1    1    2    0    0  0.23068493868E+03 -0.20526070315E+02  0.44787612073E+03  0.50421214898E+03  0.10566000000E+00 0. -1.
          4    1    1    2  501    0  0.37563423885E+03  0.10720038518E+03  0.82543059619E+02  0.39925726126E+03  0.00000000000E+00 0.  1.
</event>
<event>
 5    1  0.1196676E-004  0.4865604E+03  0.7818608E-02  0.9678267E-01
         21   -1    0    0  501  502  0.00000000000E+00  0.00000000000E+00  0.19482159602E+03  0.19482159602E+03  0.00000000000E+00 0.  1.
          4   -1    0    0  502    0 -0.00000000000E+00 -0.00000000000E+00 -0.24691328080E+04  0.24691328080E+04  0.00000000000E+00 0.  1.
        -13    1    1    2    0    0  0.31019957054E+03  0.57466566285E+03 -0.85744290181E+03  0.10778092311E+04  0.10566000000E+00 0.  1.
         13    1    1    2    0    0 -0.11912344843E+03 -0.23694253656E+03 -0.90966856393E+03  0.94753842612E+03  0.10566000000E+00 0. -1.
          4    1    1    2  501    0 -0.19107612211E+03 -0.33772312629E+03 -0.50719974626E+03  0.63860674682E+03  0.00000000000E+00 0.  1.
</event>
<event>
 5    1  0.1196676E-004  0.3855693E+03  0.7818608E-02  0.9771672E-01
          4   -1    0    0  502    0 -0.00000000000E+00  0.00000000000E+00  0.22035898900E+04  0.22035898900E+04  0.00000000000E+00 0.  1.
         21   -1    0    0  501  502  0.00000000000E+00 -0.00000000000E+00 -0.16894437742E+03  0.16894437742E+03  0.00000000000E+00 0. -1.
        -13    1    1    2    0    0  0.56617600460E+03  0.60388559594E+02  0.72477228571E+03  0.92168157387E+03  0.10566000000E+00 0.  1.
         13    1    1    2    0    0 -0.29497719853E+03  0.16666764873E+02  0.39336451239E+03  0.49196034339E+03  0.10566000000E+00 0. -1.
          4    1    1    2  501    0 -0.27119880607E+03 -0.77055324468E+02  0.91650871446E+03  0.95889235012E+03  0.00000000000E+00 0.  1.
</event>
<event>
 5    1  0.1196676E-004  0.3495275E+02  0.7818608E-02  0.1372333E+00
          4   -1    0    0  502    0 -0.00000000000E+00  0.00000000000E+00  0.86296439334E+02  0.86296439334E+02  0.00000000000E+00 0.  1.
         21   -1    0    0  501  502  0.00000000000E+00 -0.00000000000E+00 -0.86948753702E+02  0.86948753702E+02  0.00000000000E+00 0.  1.
        -13    1    1    2    0    0 -0.30102268714E+02 -0.51538993212E+02  0.54714740065E+02  0.80969922486E+02  0.10566000000E+00 0.  1.
         13    1    1    2    0    0  0.27540520985E+02  0.18191492931E+02 -0.74442886427E+01  0.33835474115E+02  0.10566000000E+00 0. -1.
          4    1    1    2  501    0  0.25617477289E+01  0.33347500280E+02 -0.47922765790E+02  0.58439796434E+02  0.00000000000E+00 0.  1.
</event>
<event>
 5    1  0.1196676E-004  0.5215031E+03  0.7818608E-02  0.9520161E-01
         -4   -1    0    0    0  501 -0.00000000000E+00  0.00000000000E+00  0.19857064610E+04  0.19857064610E+04  0.00000000000E+00 0. -1.
         21   -1    0    0  501  502  0.00000000000E+00 -0.00000000000E+00 -0.32315130451E+03  0.32315130451E+03  0.00000000000E+00 0.  1.
        -13    1    1    2    0    0 -0.22684407318E+01 -0.55018597367E+03  0.85567317556E+03  0.10172936380E+04  0.10566000000E+00 0.  1.
         13    1    1    2    0    0  0.34729398993E+03  0.15913245986E+03  0.63758343102E+03  0.74326906158E+03  0.10566000000E+00 0. -1.
         -4    1    1    2    0  502 -0.34502554920E+03  0.39105351381E+03  0.16929854989E+03  0.54829506587E+03  0.00000000000E+00 0. -1.
</event>
<event>
 5    1  0.1196676E-004  0.3632005E+02  0.7818608E-02  0.1360329E+00
         21   -1    0    0  501  502  0.00000000000E+00  0.00000000000E+00  0.69731969172E+03  0.69731969172E+03  0.00000000000E+00 0.  1.
          4   -1    0    0  502    0 -0.00000000000E+00 -0.00000000000E+00 -0.43852118793E+02  0.43852118793E+02  0.00000000000E+00 0.  1.
        -13    1    1    2    0    0 -0.97054005186E+01  0.36429477549E+02 -0.32584925564E+02  0.49830614805E+02  0.10566000000E+00 0.  1.
         13    1    1    2    0    0  0.25075744360E+01 -0.25964516831E+02  0.63366583032E+02  0.68525754815E+02  0.10566000000E+00 0. -1.
          4    1    1    2  501    0  0.71978260826E+01 -0.10464960719E+02  0.62268591546E+03  0.62281544089E+03  0.00000000000E+00 0.  1.
</event>
<event>
 5    1  0.1196676E-004  0.1509934E+03  0.7818608E-02  0.1100136E+00
          4   -1    0    0  502    0 -0.00000000000E+00  0.00000000000E+00  0.27174919369E+03  0.27174919369E+03  0.00000000000E+00 0.  1.
         21   -1    0    0  501  502  0.00000000000E+00 -0.00000000000E+00 -0.54167710542E+03  0.54167710542E+03  0.00000000000E+00 0.  1.
        -13    1    1    2    0    0  0.28413448693E+02 -0.17129037542E+03  0.20411574082E+03  0.26797567724E+03  0.10566000000E+00 0.  1.
         13    1    1    2    0    0 -0.23364518695E+02  0.95502734988E+02 -0.42225503508E+02  0.10700316554E+03  0.10566000000E+00 0. -1.
          4    1    1    2  501    0 -0.50489299977E+01  0.75787640431E+02 -0.43181814903E+03  0.43844745634E+03  0.00000000000E+00 0.  1.
</event>
<event>
 5    1  0.1196676E-004  0.5525165E+02  0.7818608E-02  0.1271768E+00
         21   -1    0    0  501  502  0.00000000000E+00  0.00000000000E+00  0.60742167496E+02  0.60742167496E+02  0.00000000000E+00 0.  1.
         -4   -1    0    0    0  501 -0.00000000000E+00 -0.00000000000E+00 -0.10439724568E+03  0.10439724568E+03  0.00000000000E+00 0. -1.
        -13    1    1    2    0    0  0.53512782425E+02 -0.33685139455E+02  0.15972976733E+02  0.65218506980E+02  0.10566000000E+00 0.  1.
         13    1    1    2    0    0 -0.36948550142E+02  0.38925555908E+02 -0.62424467655E+02  0.82323870089E+02  0.10566000000E+00 0. -1.
         -4    1    1    2    0  502 -0.16564232283E+02 -0.52404164535E+01  0.27964127337E+01  0.17597036112E+02  0.00000000000E+00 0. -1.
</event>
<event>
 5    1  0.1196676E-004  0.4451547E+03  0.7818608E-02  0.1001828E+00
         21   -1    0    0  501  502  0.00000000000E+00  0.00000000000E+00  0.10733508823E+03  0.10733508823E+03  0.00000000000E+00 0.  1.
          4   -1    0    0  502    0 -0.00000000000E+00 -0.00000000000E+00 -0.29216037919E+04  0.29216037919E+04  0.00000000000E+00 0.  1.
        -13    1    1    2    0    0  0.43669553387E+03 -0.80429024484E+02 -0.64190559940E+03  0.78052202210E+03  0.10566000000E+00 0.  1.
         13    1    1    2    0    0  0.19206983850E+02  0.10800528323E+03 -0.64367958704E+03  0.65296054350E+03  0.10566000000E+00 0. -1.
          4    1    1    2  501    0 -0.45590251772E+03 -0.27576258744E+02 -0.15286835172E+04  0.15954563145E+04  0.00000000000E+00 0.  1.
</event>
<event>
 5    1  0.1196676E-004  0.6959669E+02  0.7818608E-02  0.1227789E+00
          4   -1    0    0  502    0 -0.00000000000E+00  0.00000000000E+00  0.23998977133E+03  0.23998977133E+03  0.00000000000E+00 0.  1.
         21   -1    0    0  501  502  0.00000000000E+00 -0.00000000000E+00 -0.26667020956E+03  0.26667020956E+03  0.00000000000E+00 0.  1.
        -13    1    1    2    0    0  0.68407464781E+02 -0.51810547564E+00  0.19622871324E+03  0.20781137778E+03  0.10566000000E+00 0.  1.
         13    1    1    2    0    0 -0.77786006263E+02  0.94914387459E+01 -0.28581467126E+01  0.78415115548E+02  0.10566000000E+00 0. -1.
          4    1    1    2  501    0  0.93785414823E+01 -0.89733332702E+01 -0.22005100475E+03  0.22043348757E+03  0.00000000000E+00 0.  1.
</event>
<event>
 5    1  0.1196676E-004  0.1184649E+03  0.7818608E-02  0.1146075E+00
          4   -1    0    0  502    0 -0.00000000000E+00  0.00000000000E+00  0.32364485696E+03  0.32364485696E+03  0.00000000000E+00 0.  1.
         21   -1    0    0  501  502  0.00000000000E+00 -0.00000000000E+00 -0.10807285947E+03  0.10807285947E+03  0.00000000000E+00 0.  1.
        -13    1    1    2    0    0  0.89020980941E+02 -0.93253545573E+01  0.16939917714E+03  0.19159277039E+03  0.10566000000E+00 0.  1.
         13    1    1    2    0    0  0.21638997185E+02  0.92191274055E+02  0.36677744897E+02  0.10155168805E+03  0.10566000000E+00 0. -1.
          4    1    1    2  501    0 -0.11065997813E+03 -0.82865919498E+02  0.94950754506E+01  0.13857325799E+03  0.00000000000E+00 0.  1.
</event>
<event>
 5    1  0.1196676E-004  0.7390046E+03  0.7818608E-02  0.9068239E-01
         21   -1    0    0  501  502  0.00000000000E+00  0.00000000000E+00  0.46113328878E+03  0.46113328878E+03  0.00000000000E+00 0. -1.
          4   -1    0    0  502    0 -0.00000000000E+00 -0.00000000000E+00 -0.29973599059E+04  0.29973599059E+04  0.00000000000E+00 0.  1.
        -13    1    1    2    0    0 -0.17669633488E+03 -0.73458791934E+03 -0.42723412823E+03  0.86796890352E+03  0.10566000000E+00 0.  1.
         13    1    1    2    0    0 -0.32624252883E+03  0.70476623143E+03 -0.18858473289E+04  0.20394974351E+04  0.10566000000E+00 0. -1.
          4    1    1    2  501    0  0.50293886371E+03  0.29821687904E+02 -0.22314516000E+03  0.55102685609E+03  0.00000000000E+00 0.  1.
</event>
<event>
 5    1  0.1196676E-004  0.3128836E+03  0.7818608E-02  0.1026963E+00
          4   -1    0    0  502    0 -0.00000000000E+00  0.00000000000E+00  0.68578457912E+03  0.68578457912E+03  0.00000000000E+00 0.  1.
         21   -1    0    0  501  502  0.00000000000E+00 -0.00000000000E+00 -0.10935440587E+04  0.10935440587E+04  0.00000000000E+00 0. -1.
        -13    1    1    2    0    0 -0.59234574313E+02 -0.18223037697E+03  0.32291462583E+03  0.37548703283E+03  0.10566000000E+00 0.  1.
         13    1    1    2    0    0 -0.26308467098E+03  0.51701520423E+03 -0.53531606272E+02  0.58256665674E+03  0.10566000000E+00 0. -1.
          4    1    1    2  501    0  0.32231924530E+03 -0.33478482726E+03 -0.67714249912E+03  0.82127494822E+03  0.00000000000E+00 0.  1.
</event>
<event>
 5    1  0.1196676E-004  0.4075848E+03  0.7818608E-02  0.1011420E+00
         21   -1    0    0  501  502  0.00000000000E+00  0.00000000000E+00  0.24437631818E+03  0.24437631818E+03  0.00000000000E+00 0.  1.
          4   -1    0    0  502    0 -0.00000000000E+00 -0.00000000000E+00 -0.13030572507E+04  0.13030572507E+04  0.00000000000E+00 0.  1.
        -13    1    1    2    0    0 -0.37179797893E+03  0.12613902428E+03 -0.69999647611E+02  0.39880415296E+03  0.10566000000E+00 0.  1.
         13    1    1    2    0    0 -0.45275978291E+02  0.94510512595E+02 -0.11436653244E+03  0.15511887734E+03  0.10566000000E+00 0. -1.
          4    1    1    2  501    0  0.41707395722E+03 -0.22064953688E+03 -0.87431475251E+03  0.99351053863E+03  0.00000000000E+00 0.  1.
</event>
<event>
 5    1  0.1196676E-004  0.4919372E+03  0.7818608E-02  0.9495821E-01
         -4   -1    0    0    0  501 -0.00000000000E+00  0.00000000000E+00  0.23174139808E+04  0.23174139808E+04  0.00000000000E+00 0. -1.
         21   -1    0    0  501  502  0.00000000000E+00 -0.00000000000E+00 -0.14045624173E+03  0.14045624173E+03  0.00000000000E+00 0.  1.
        -13    1    1    2    0    0 -0.36973671491E+02 -0.47903658539E+03  0.11197271711E+04  0.12184547802E+04  0.10566000000E+00 0.  1.
         13    1    1    2    0    0 -0.65873919999E+01  0.50615330250E+03  0.10724364121E+04  0.11858981527E+04  0.10566000000E+00 0. -1.
         -4    1    1    2    0  502  0.43561063491E+02 -0.27116717116E+02 -0.15205844101E+02  0.53517289678E+02  0.00000000000E+00 0. -1.
</event>
<event>
 5    1  0.1196676E-004  0.5283779E+03  0.7818608E-02  0.9417852E-01
         21   -1    0    0  501  502  0.00000000000E+00  0.00000000000E+00  0.78882177569E+03  0.78882177569E+03  0.00000000000E+00 0. -1.
         -4   -1    0    0    0  501 -0.00000000000E+00 -0.00000000000E+00 -0.10972857893E+04  0.10972857893E+04  0.00000000000E+00 0. -1.
        -13    1    1    2    0    0 -0.13922353120E+03 -0.62461705017E+03  0.73965068264E+01  0.63998778932E+03  0.10566000000E+00 0.  1.
         13    1    1    2    0    0  0.21190832418E+03  0.45572246085E+03 -0.67564627235E+03  0.84207244088E+03  0.10566000000E+00 0. -1.
         -4    1    1    2    0  502 -0.72684792982E+02  0.16889458932E+03  0.35978575194E+03  0.40404733477E+03  0.00000000000E+00 0. -1.
</event>
<event>
 5    1  0.1196676E-004  0.2637609E+03  0.7818608E-02  0.1039876E+00
         21   -1    0    0  501  502  0.00000000000E+00  0.00000000000E+00  0.50086324349E+03  0.50086324349E+03  0.00000000000E+00 0. -1.
         -4   -1    0    0    0  501 -0.00000000000E+00 -0.00000000000E+00 -0.87792397955E+03  0.87792397955E+03  0.00000000000E+00 0. -1.
        -13    1    1    2    0    0 -0.95047010605E+02  0.12781206858E+03 -0.32878062539E+03  0.36533076779E+03  0.10566000000E+00 0.  1.
         13    1    1    2    0    0 -0.92653100032E+02  0.74093905412E+02 -0.48373742074E+03  0.49807269263E+03  0.10566000000E+00 0. -1.
         -4    1    1    2    0  502  0.18770011064E+03 -0.20190597399E+03  0.43545731007E+03  0.51538376261E+03  0.00000000000E+00 0. -1.
</event>
<event>
 5    1  0.1196676E-004  0.4846266E+03  0.7818608E-02  0.9652096E-01
         21   -1    0    0  501  502  0.00000000000E+00  0.00000000000E+00  0.47664629944E+03  0.47664629944E+03  0.00000000000E+00 0.  1.
          4   -1    0    0  502    0 -0.00000000000E+00 -0.00000000000E+00 -0.10802395880E+04  0.10802395880E+04  0.00000000000E+00 0.  1.
        -13    1    1    2    0    0  0.41625143742E+03 -0.17251635878E+03 -0.31002835880E+02  0.45165068382E+03  0.10566000000E+00 0.  1.
         13    1    1    2    0    0 -0.59335139124E+02 -0.28815271497E+03 -0.40175277113E+03  0.49795375905E+03  0.10566000000E+00 0. -1.
          4    1    1    2  501    0 -0.35691629829E+03  0.46066907375E+03 -0.17083768158E+03  0.60728144459E+03  0.00000000000E+00 0.  1.
</event>
<event>
 5    1  0.1196676E-004  0.3793993E+03  0.7818608E-02  0.1017862E+00
         -4   -1    0    0    0  501 -0.00000000000E+00  0.00000000000E+00  0.90163118225E+03  0.90163118225E+03  0.00000000000E+00 0. -1.
         21   -1    0    0  501  502  0.00000000000E+00 -0.00000000000E+00 -0.36421471915E+03  0.36421471915E+03  0.00000000000E+00 0. -1.
        -13    1    1    2    0    0  0.28958582755E+02 -0.10178798958E+03  0.15435172908E+03  0.18714663174E+03  0.10566000000E+00 0.  1.
         13    1    1    2    0    0 -0.37439320515E+03  0.22953232128E+03  0.52459279570E+03  0.68414396952E+03  0.10566000000E+00 0. -1.
         -4    1    1    2    0  502  0.34543462239E+03 -0.12774433170E+03 -0.14152806167E+03  0.39455530014E+03  0.00000000000E+00 0. -1.
</event>
<event>
 5    1  0.1196676E-004  0.1193114E+03  0.7818608E-02  0.1150358E+00
         21   -1    0    0  501  502  0.00000000000E+00  0.00000000000E+00  0.15054265710E+03  0.15054265710E+03  0.00000000000E+00 0. -1.
         -4   -1    0    0    0  501 -0.00000000000E+00 -0.00000000000E+00 -0.19801620561E+04  0.19801620561E+04  0.00000000000E+00 0. -1.
        -13    1    1    2    0    0 -0.83235029278E+02  0.40675941175E+01 -0.91926554280E+02  0.12407706463E+03  0.10566000000E+00 0.  1.
         13    1    1    2    0    0  0.52632232607E+02  0.10759878537E+03  0.10561075696E+03  0.15969124483E+03  0.10566000000E+00 0. -1.
         -4    1    1    2    0  502  0.30602796671E+02 -0.11166637949E+03 -0.18433036017E+04  0.18469364038E+04  0.00000000000E+00 0. -1.
</event>
<event>
 5    1  0.1196676E-004  0.4049498E+02  0.7818608E-02  0.1336196E+00
          4   -1    0    0  502    0 -0.00000000000E+00  0.00000000000E+00  0.70604184090E+02  0.70604184090E+02  0.00000000000E+00 0.  1.
         21   -1    0    0  501  502  0.00000000000E+00 -0.00000000000E+00 -0.15032747711E+03  0.15032747711E+03  0.00000000000E+00 0.  1.
        -13    1    1    2    0    0  0.30291557274E+02 -0.27949676935E+02  0.38126419129E+02  0.56146218773E+02  0.10566000000E+00 0.  1.
         13    1    1    2    0    0 -0.51695416553E+02 -0.64072830562E+01 -0.14925119968E+02  0.54187080922E+02  0.10566000000E+00 0. -1.
          4    1    1    2  501    0  0.21403859279E+02  0.34356959991E+02 -0.10292459218E+03  0.11059836150E+03  0.00000000000E+00 0.  1.
</event>
<event>
 5    1  0.1196676E-004  0.5783319E+03  0.7818608E-02  0.9321060E-01
          4   -1    0    0  502    0 -0.00000000000E+00  0.00000000000E+00  0.94292428298E+03  0.94292428298E+03  0.00000000000E+00 0.  1.
         21   -1    0    0  501  502  0.00000000000E+00 -0.00000000000E+00 -0.90521553599E+03  0.90521553599E+03  0.00000000000E+00 0. -1.
        -13    1    1    2    0    0 -0.27752422949E+03 -0.49855207964E+03  0.31274684992E+03  0.65068001150E+03  0.10566000000E+00 0.  1.
         13    1    1    2    0    0  0.49094496450E+03  0.37371214497E+03  0.21105458730E+03  0.65209797995E+03  0.10566000000E+00 0. -1.
          4    1    1    2  501    0 -0.21342073502E+03  0.12483993468E+03 -0.48609269023E+03  0.54536182752E+03  0.00000000000E+00 0.  1.
</event>
<event>
 5    1  0.1196676E-004  0.6125007E+03  0.7818608E-02  0.9260600E-01
         21   -1    0    0  501  502  0.00000000000E+00  0.00000000000E+00  0.24226257105E+03  0.24226257105E+03  0.00000000000E+00 0.  1.
          4   -1    0    0  502    0 -0.00000000000E+00 -0.00000000000E+00 -0.27401478952E+04  0.27401478952E+04  0.00000000000E+00 0.  1.
        -13    1    1    2    0    0 -0.54231635298E+03  0.41606439274E+03 -0.19696363359E+04  0.20848702387E+04  0.10566000000E+00 0.  1.
         13    1    1    2    0    0  0.34006406176E+03 -0.35001007237E+03 -0.46862176541E+03  0.67657740654E+03  0.10566000000E+00 0. -1.
          4    1    1    2  501    0  0.20225229123E+03 -0.66054320378E+02 -0.59627222863E+02  0.22096282098E+03  0.00000000000E+00 0.  1.
</event>
<event>
 5    1  0.1196676E-004  0.8565300E+02  0.7818608E-02  0.1235767E+00
         21   -1    0    0  501  502  0.00000000000E+00  0.00000000000E+00  0.46086926457E+02  0.46086926457E+02  0.00000000000E+00 0.  1.
          4   -1    0    0  502    0 -0.00000000000E+00 -0.00000000000E+00 -0.52000968370E+03  0.52000968370E+03  0.00000000000E+00 0.  1.
        -13    1    1    2    0    0  0.10374491928E+03 -0.39272226243E+02 -0.42681509484E+03  0.44099484394E+03  0.10566000000E+00 0.  1.
         13    1    1    2    0    0 -0.31398380856E+02  0.13140361354E+01 -0.13368019733E+01  0.31454462560E+02  0.10566000000E+00 0. -1.
          4    1    1    2  501    0 -0.72346538425E+02  0.37958190108E+02 -0.45770860425E+02  0.93647303658E+02  0.00000000000E+00 0.  1.
</event>
<event>
 5    1  0.1196676E-004  0.1698867E+03  0.7818608E-02  0.1083000E+00
          4   -1    0    0  502    0 -0.00000000000E+00  0.00000000000E+00  0.10790916254E+04  0.10790916254E+04  0.00000000000E+00 0.  1.
         21   -1    0    0  501  502  0.00000000000E+00 -0.00000000000E+00 -0.13901678068E+03  0.13901678068E+03  0.00000000000E+00 0.  1.
        -13    1    1    2    0    0 -0.21428604331E+03 -0.16532353381E+03  0.53103384724E+02  0.27580855647E+03  0.10566000000E+00 0.  1.
         13    1    1    2    0    0  0.11015066794E+03  0.10198472097E+03  0.23372286475E+03  0.27777768382E+03  0.10566000000E+00 0. -1.
          4    1    1    2  501    0  0.10413537537E+03  0.63338812840E+02  0.65324859523E+03  0.66452216576E+03  0.00000000000E+00 0.  1.
</event>
<event>
 5    1  0.1196676E-004  0.5000404E+03  0.7818608E-02  0.9703594E-01
         -4   -1    0    0    0  501 -0.00000000000E+00  0.00000000000E+00  0.13110737221E+04  0.13110737221E+04  0.00000000000E+00 0. -1.
         21   -1    0    0  501  502  0.00000000000E+00 -0.00000000000E+00 -0.30692881442E+03  0.30692881442E+03  0.00000000000E+00 0. -1.
        -13    1    1    2    0    0  0.22363520470E+03  0.35558164891E+01  0.14720505918E+03  0.26775863987E+03  0.10566000000E+00 0.  1.
         13    1    1    2    0    0 -0.49781460813E+03  0.34026409537E+03  0.52009523174E+03  0.79630276900E+03  0.10566000000E+00 0. -1.
         -4    1    1    2    0  502  0.27417940343E+03 -0.34381991186E+03  0.33684461672E+03  0.55394112762E+03  0.00000000000E+00 0. -1.
</event>
<event>
 5    1  0.1196676E-004  0.1200074E+02  0.7818608E-02  0.1671462E+00
         21   -1    0    0  501  502  0.00000000000E+00  0.00000000000E+00  0.47405477532E+02  0.47405477532E+02  0.00000000000E+00 0. -1.
          4   -1    0    0  502    0 -0.00000000000E+00 -0.00000000000E+00 -0.42915383911E+02  0.42915383911E+02  0.00000000000E+00 0.  1.
        -13    1    1    2    0    0  0.80531085469E+01  0.82121986596E+01 -0.38734058742E+02  0.40405831693E+02  0.10566000000E+00 0.  1.
         13    1    1    2    0    0  0.31326713627E+01 -0.12559165689E+02  0.21468693747E+02  0.25069149326E+02  0.10566000000E+00 0. -1.
          4    1    1    2  501    0 -0.11185779910E+02  0.43469670289E+01  0.21755458615E+02  0.24845880425E+02  0.00000000000E+00 0.  1.
</event>
<event>
 5    1  0.1196676E-004  0.3705993E+03  0.7818608E-02  0.9818021E-01
         -4   -1    0    0    0  501 -0.00000000000E+00  0.00000000000E+00  0.22859308176E+04  0.22859308176E+04  0.00000000000E+00 0. -1.
         21   -1    0    0  501  502  0.00000000000E+00 -0.00000000000E+00 -0.25557669517E+03  0.25557669517E+03  0.00000000000E+00 0. -1.
        -13    1    1    2    0    0 -0.18551098332E+03 -0.29895519713E+03  0.15612566572E+04  0.16004096025E+04  0.10566000000E+00 0.  1.
         13    1    1    2    0    0  0.14747759585E+03  0.42591263655E+03  0.60290933954E+03  0.75276217899E+03  0.10566000000E+00 0. -1.
         -4    1    1    2    0  502  0.38033387465E+02 -0.12695743942E+03 -0.13381187431E+03  0.18833573132E+03  0.00000000000E+00 0. -1.
</event>
<event>
 5    1  0.1196676E-004  0.1412061E+03  0.7818608E-02  0.1110123E+00
         -4   -1    0    0    0  501 -0.00000000000E+00  0.00000000000E+00  0.27875625461E+03  0.27875625461E+03  0.00000000000E+00 0. -1.
         21   -1    0    0  501  502  0.00000000000E+00 -0.00000000000E+00 -0.14400593506E+03  0.14400593506E+03  0.00000000000E+00 0. -1.
        -13    1    1    2    0    0  0.94740384194E+02 -0.54778009593E+02  0.41978917904E+02  0.11721182297E+03  0.10566000000E+00 0.  1.
         13    1    1    2    0    0 -0.14847428184E+03  0.10071078335E+03  0.13380792582E+03  0.22381207838E+03  0.10566000000E+00 0. -1.
         -4    1    1    2    0  502  0.53733897648E+02 -0.45932773760E+02 -0.41036524168E+02  0.81738288320E+02  0.00000000000E+00 0. -1.
</event>
<event>
 5    1  0.1196676E-004  0.2475914E+03  0.7818608E-02  0.1031648E+00
         -4   -1    0    0    0  501 -0.00000000000E+00  0.00000000000E+00  0.29276394925E+03  0.29276394925E+03  0.00000000000E+00 0. -1.
         21   -1    0    0  501  502  0.00000000000E+00 -0.00000000000E+00 -0.29028020481E+03  0.29028020481E+03  0.00000000000E+00 0.  1.
        -13    1    1    2    0    0  0.22986059377E+03 -0.11045798954E+03 -0.28382624675E+02  0.25659782651E+03  0.10566000000E+00 0.  1.
         13    1    1    2    0    0 -0.22301776917E+03  0.97281399163E+02  0.94563331795E+02  0.26104181825E+03  0.10566000000E+00 0. -1.
         -4    1    1    2    0  502 -0.68428245950E+01  0.13176590379E+02 -0.63696962678E+02  0.65404509301E+02  0.00000000000E+00 0. -1.
</event>
<event>
 5    1  0.1196676E-004  0.5108141E+02  0.7818608E-02  0.1287447E+00
         21   -1    0    0  501  502  0.00000000000E+00  0.00000000000E+00  0.85671544824E+02  0.85671544824E+02  0.00000000000E+00 0.  1.
         -4   -1    0    0    0  501 -0.00000000000E+00 -0.00000000000E+00 -0.18764580126E+03  0.18764580126E+03  0.00000000000E+00 0. -1.
        -13    1    1    2    0    0  0.25406035984E+02  0.50626382338E+02  0.40886866394E+02  0.69858745055E+02  0.10566000000E+00 0.  1.
         13    1    1    2    0    0 -0.39399717809E+02 -0.32397323297E+02 -0.16429635882E+03  0.17203263936E+03  0.10566000000E+00 0. -1.
         -4    1    1    2    0  502  0.13993681825E+02 -0.18229059041E+02  0.21435235992E+02  0.31425961665E+02  0.00000000000E+00 0. -1.
</event>
<event>
 5    1  0.1196676E-004  0.3109552E+03  0.7818608E-02  0.1027707E+00
         21   -1    0    0  501  502  0.00000000000E+00  0.00000000000E+00  0.20738455808E+03  0.20738455808E+03  0.00000000000E+00 0.  1.
          4   -1    0    0  502    0 -0.00000000000E+00 -0.00000000000E+00 -0.16278282402E+04  0.16278282402E+04  0.00000000000E+00 0.  1.
        -13    1    1    2    0    0  0.88150976121E+01 -0.26400150986E+03 -0.12415024665E+04  0.12692922786E+04  0.10566000000E+00 0.  1.
         13    1    1    2    0    0  0.13994976866E+03 -0.18611909235E+02 -0.20117427899E+03  0.24577111833E+03  0.10566000000E+00 0. -1.
          4    1    1    2  501    0 -0.14876486627E+03  0.28261341910E+03  0.22233063303E+02  0.32014940136E+03  0.00000000000E+00 0.  1.
</event>
<event>
 5    1  0.1196676E-004  0.6403515E+02  0.7818608E-02  0.1243305E+00
          4   -1    0    0  502    0 -0.00000000000E+00  0.00000000000E+00  0.63682196279E+02  0.63682196279E+02  0.00000000000E+00 0.  1.
         21   -1    0    0  501  502  0.00000000000E+00 -0.00000000000E+00 -0.64228494473E+03  0.64228494473E+03  0.00000000000E+00 0.  1.
        -13    1    1    2    0    0 -0.59992574794E+02 -0.24919168369E+02  0.42221490611E+02  0.77477347761E+02  0.10566000000E+00 0.  1.
         13    1    1    2    0    0  0.56346219884E+02 -0.13059876692E+02 -0.31182722476E+03  0.31714615896E+03  0.10566000000E+00 0. -1.
          4    1    1    2  501    0  0.36463549097E+01  0.37979045061E+02 -0.30899701430E+03  0.31134363429E+03  0.00000000000E+00 0.  1.
</event>
<event>
 5    1  0.1196676E-004  0.5723008E+03  0.7818608E-02  0.9332190E-01
          4   -1    0    0  502    0 -0.00000000000E+00  0.00000000000E+00  0.15911108416E+04  0.15911108416E+04  0.00000000000E+00 0.  1.
         21   -1    0    0  501  502  0.00000000000E+00 -0.00000000000E+00 -0.45978309617E+03  0.45978309617E+03  0.00000000000E+00 0.  1.
        -13    1    1    2    0    0  0.32130568564E+03 -0.55752050283E+03  0.38906747595E+03  0.75195742347E+03  0.10566000000E+00 0.  1.
         13    1    1    2    0    0 -0.29748311830E+03  0.45519581352E+03  0.93373218643E+03  0.10805347016E+04  0.10566000000E+00 0. -1.
          4    1    1    2  501    0 -0.23822567339E+02  0.10232468931E+03 -0.19147191699E+03  0.21840181261E+03  0.00000000000E+00 0.  1.
</event>
<event>
 5    1  0.1196676E-004  0.5299503E+03  0.7818608E-02  0.9488015E-01
         21   -1    0    0  501  502  0.00000000000E+00  0.00000000000E+00  0.57329994443E+03  0.57329994443E+03  0.00000000000E+00 0. -1.
         -4   -1    0    0    0  501 -0.00000000000E+00 -0.00000000000E+00 -0.17521589667E+04  0.17521589667E+04  0.00000000000E+00 0. -1.
        -13    1    1    2    0    0 -0.10419695800E+03 -0.39119007804E+03 -0.11170830883E+04  0.11881756270E+04  0.10566000000E+00 0.  1.
         13    1    1    2    0    0  0.33594803442E+03 -0.24453772012E+03 -0.17563569077E+03  0.45111826102E+03  0.10566000000E+00 0. -1.
         -4    1    1    2    0  502 -0.23175107642E+03  0.63572779816E+03  0.11385975678E+03  0.68616502315E+03  0.00000000000E+00 0. -1.
</event>
<event>
 5    1  0.1196676E-004  0.1503941E+03  0.7818608E-02  0.1100724E+00
         21   -1    0    0  501  502  0.00000000000E+00  0.00000000000E+00  0.13879508132E+03  0.13879508132E+03  0.00000000000E+00 0.  1.
         -4   -1    0    0    0  501 -0.00000000000E+00 -0.00000000000E+00 -0.18868002894E+03  0.18868002894E+03  0.00000000000E+00 0. -1.
        -13    1    1    2    0    0  0.95929463559E+02  0.12129363226E+03 -0.62256824274E+02  0.16670492056E+03  0.10566000000E+00 0.  1.
         13    1    1    2    0    0 -0.88843681108E+02 -0.11399623926E+03 -0.29057914398E+00  0.14452832884E+03  0.10566000000E+00 0. -1.
         -4    1    1    2    0  502 -0.70857824508E+01 -0.72973930007E+01  0.12662455797E+02  0.16241860865E+02  0.00000000000E+00 0. -1.
</event>
<event>
 5    1  0.1196676E-004  0.2385067E+03  0.7818608E-02  0.1036527E+00
          4   -1    0    0  502    0 -0.00000000000E+00  0.00000000000E+00  0.16959178511E+04  0.16959178511E+04  0.00000000000E+00 0.  1.
         21   -1    0    0  501  502  0.00000000000E+00 -0.00000000000E+00 -0.12497254731E+03  0.12497254731E+03  0.00000000000E+00 0. -1.
        -13    1    1    2    0    0  0.13210772211E+03  0.19296997587E+03  0.13793532578E+04  0.13990372700E+04  0.10566000000E+00 0.  1.
         13    1    1    2    0    0 -0.97067063092E+02 -0.26241210243E+03  0.19955699668E+03  0.34366427270E+03  0.10566000000E+00 0. -1.
          4    1    1    2  501    0 -0.35040659020E+02  0.69442126559E+02 -0.79649506698E+01  0.78188855758E+02  0.00000000000E+00 0.  1.
</event>
<event>
 5    1  0.1196676E-004  0.4894494E+03  0.7818608E-02  0.9779329E-01
         -4   -1    0    0    0  501 -0.00000000000E+00  0.00000000000E+00  0.15674560938E+04  0.15674560938E+04  0.00000000000E+00 0. -1.
         21   -1    0    0  501  502  0.00000000000E+00 -0.00000000000E+00 -0.22731914560E+03  0.22731914560E+03  0.00000000000E+00 0. -1.
        -13    1    1    2    0    0  0.17668233637E+03 -0.49931036694E+02  0.16008443954E+03  0.24359145174E+03  0.10566000000E+00 0.  1.
         13    1    1    2    0    0 -0.46553082286E+03  0.31654675328E+03  0.44489242232E+03  0.71753053778E+03  0.10566000000E+00 0. -1.
         -4    1    1    2    0  502  0.28884848649E+03 -0.26661571658E+03  0.73516008630E+03  0.83365324984E+03  0.00000000000E+00 0. -1.
</event>
<event>
 5    1  0.1196676E-004  0.3218711E+03  0.7818608E-02  0.9986652E-01
         -4   -1    0    0    0  501 -0.00000000000E+00  0.00000000000E+00  0.18840420341E+04  0.18840420341E+04  0.00000000000E+00 0. -1.
         21   -1    0    0  501  502  0.00000000000E+00 -0.00000000000E+00 -0.24713650555E+03  0.24713650555E+03  0.00000000000E+00 0.  1.
        -13    1    1    2    0    0 -0.20021789838E+03  0.47452295475E+03  0.77321326400E+03  0.92904144375E+03  0.10566000000E+00 0.  1.
         13    1    1    2    0    0  0.21797587185E+03 -0.17390844364E+03  0.85667581997E+03  0.90091681035E+03  0.10566000000E+00 0. -1.
         -4    1    1    2    0  502 -0.17757973470E+02 -0.30061451111E+03  0.70164445295E+01  0.30122028551E+03  0.00000000000E+00 0. -1.
</event>
<event>
 5    1  0.1196676E-004  0.7541304E+02  0.7818608E-02  0.1213201E+00
         21   -1    0    0  501  502  0.00000000000E+00  0.00000000000E+00  0.83942277227E+03  0.83942277227E+03  0.00000000000E+00 0. -1.
          4   -1    0    0  502    0 -0.00000000000E+00 -0.00000000000E+00 -0.12497760562E+02  0.12497760562E+02  0.00000000000E+00 0.  1.
        -13    1    1    2    0    0 -0.57683501828E+02  0.47578158655E+02  0.14858806985E+03  0.16634149581E+03  0.10566000000E+00 0.  1.
         13    1    1    2    0    0  0.70062680505E+02 -0.35848549162E+02  0.46984868249E+03  0.47639447234E+03  0.10566000000E+00 0. -1.
          4    1    1    2  501    0 -0.12379178677E+02 -0.11729609493E+02  0.20848825937E+03  0.20918456468E+03  0.00000000000E+00 0.  1.
</event>
<event>
 5    1  0.1196676E-004  0.6843506E+03  0.7818608E-02  0.9145994E-01
         21   -1    0    0  501  502  0.00000000000E+00  0.00000000000E+00  0.47360197406E+03  0.47360197406E+03  0.00000000000E+00 0.  1.
          4   -1    0    0  502    0 -0.00000000000E+00 -0.00000000000E+00 -0.18558564849E+04  0.18558564849E+04  0.00000000000E+00 0.  1.
        -13    1    1    2    0    0  0.43092067353E+03  0.69194320388E+03 -0.55335325443E+03  0.98522985116E+03  0.10566000000E+00 0.  1.
         13    1    1    2    0    0 -0.98229697441E+02 -0.62831525931E+03 -0.77291350446E+03  0.10009118018E+04  0.10566000000E+00 0. -1.
          4    1    1    2  501    0 -0.33269097609E+03 -0.63627944566E+02 -0.55987751974E+02  0.34331680598E+03  0.00000000000E+00 0.  1.
</event>
<event>
 5    1  0.1196676E-004  0.4923631E+03  0.7818608E-02  0.9550349E-01
         21   -1    0    0  501  502  0.00000000000E+00  0.00000000000E+00  0.77590697347E+03  0.77590697347E+03  0.00000000000E+00 0. -1.
         -4   -1    0    0    0  501 -0.00000000000E+00 -0.00000000000E+00 -0.87929672675E+03  0.87929672675E+03  0.00000000000E+00 0. -1.
        -13    1    1    2    0    0  0.62329441153E+02  0.39801249575E+03 -0.38217031920E+03  0.55529547995E+03  0.10566000000E+00 0.  1.
         13    1    1    2    0    0  0.45601076328E+03 -0.27012005942E+03  0.13144492460E+03  0.54606633489E+03  0.10566000000E+00 0. -1.
         -4    1    1    2    0  502 -0.51834020443E+03 -0.12789243632E+03  0.14733564133E+03  0.55384188538E+03  0.00000000000E+00 0. -1.
</event>
<event>
 5    1  0.1196676E-004  0.9674355E+02  0.7818608E-02  0.1170059E+00
         21   -1    0    0  501  502  0.00000000000E+00  0.00000000000E+00  0.98929776894E+02  0.98929776894E+02  0.00000000000E+00 0. -1.
          4   -1    0    0  502    0 -0.00000000000E+00 -0.00000000000E+00 -0.18787626500E+03  0.18787626500E+03  0.00000000000E+00 0.  1.
        -13    1    1    2    0    0  0.93890884167E+02  0.32647522415E+02 -0.13957120979E+03  0.17135195539E+03  0.10566000000E+00 0.  1.
         13    1    1    2    0    0 -0.83590132964E+02 -0.21927521985E+02  0.33268237614E+02  0.92600828006E+02  0.10566000000E+00 0. -1.
          4    1    1    2  501    0 -0.10300751202E+02 -0.10720000430E+02  0.17356484073E+02  0.22853258497E+02  0.00000000000E+00 0.  1.
</event>
<event>
 5    1  0.1196676E-004  0.2740076E+03  0.7818608E-02  0.1018651E+00
         -4   -1    0    0    0  501 -0.00000000000E+00  0.00000000000E+00  0.12921379809E+03  0.12921379809E+03  0.00000000000E+00 0. -1.
         21   -1    0    0  501  502  0.00000000000E+00 -0.00000000000E+00 -0.83510777986E+03  0.83510777986E+03  0.00000000000E+00 0.  1.
        -13    1    1    2    0    0  0.23216168419E+03  0.13158684988E+03 -0.14164106958E+03  0.30211976172E+03  0.10566000000E+00 0.  1.
         13    1    1    2    0    0 -0.25328608916E+03 -0.13676798284E+03 -0.38024348374E+03  0.47691135674E+03  0.10566000000E+00 0. -1.
         -4    1    1    2    0  502  0.21124404977E+02  0.51811329651E+01 -0.18400942844E+03  0.18529045950E+03  0.00000000000E+00 0. -1.
</event>
<event>
 5    1  0.1196676E-004  0.4936575E+03  0.7818608E-02  0.9733276E-01
          4   -1    0    0  502    0 -0.00000000000E+00  0.00000000000E+00  0.15387695910E+04  0.15387695910E+04  0.00000000000E+00 0.  1.
         21   -1    0    0  501  502  0.00000000000E+00 -0.00000000000E+00 -0.30780918066E+03  0.30780918066E+03  0.00000000000E+00 0.  1.
        -13    1    1    2    0    0 -0.48742943939E+03  0.11763781203E+03  0.41951614952E+03  0.65377360308E+03  0.10566000000E+00 0.  1.
         13    1    1    2    0    0  0.86231007573E+02  0.19115317394E+03  0.61497699910E+03  0.64974767654E+03  0.10566000000E+00 0. -1.
          4    1    1    2  501    0  0.40119843182E+03 -0.30879098597E+03  0.19646726166E+03  0.54305749200E+03  0.00000000000E+00 0.  1.
</event>
<event>
 5    1  0.1196676E-004  0.6074458E+02  0.7818608E-02  0.1253333E+00
         21   -1    0    0  501  502  0.00000000000E+00  0.00000000000E+00  0.75160507469E+02  0.75160507469E+02  0.00000000000E+00 0.  1.
         -4   -1    0    0    0  501 -0.00000000000E+00 -0.00000000000E+00 -0.73571740077E+02  0.73571740077E+02  0.00000000000E+00 0. -1.
        -13    1    1    2    0    0  0.46968009763E+02  0.41231815739E+02  0.22042608745E+02  0.66271746126E+02  0.10566000000E+00 0.  1.
         13    1    1    2    0    0 -0.36191781482E+02 -0.48344441028E+02 -0.28983426515E+02  0.66985671615E+02  0.10566000000E+00 0. -1.
         -4    1    1    2    0  502 -0.10776228281E+02  0.71126252882E+01  0.85295851624E+01  0.15474829805E+02  0.00000000000E+00 0. -1.
</event>
<event>
 5    1  0.1196676E-004  0.2652536E+03  0.7818608E-02  0.1022778E+00
         -4   -1    0    0    0  501 -0.00000000000E+00  0.00000000000E+00  0.10395203400E+04  0.10395203400E+04  0.00000000000E+00 0. -1.
         21   -1    0    0  501  502  0.00000000000E+00 -0.00000000000E+00 -0.24401051009E+03  0.24401051009E+03  0.00000000000E+00 0. -1.
        -13    1    1    2    0    0 -0.21671046080E+03  0.10116786849E+03  0.18064501300E+03  0.29971818984E+03  0.10566000000E+00 0.  1.
         13    1    1    2    0    0  0.23452224803E+03 -0.14604636660E+03  0.77172530235E+03  0.81968907488E+03  0.10566000000E+00 0. -1.
         -4    1    1    2    0  502 -0.17811787228E+02  0.44878498118E+02 -0.15686048549E+03  0.16412358534E+03  0.00000000000E+00 0. -1.
</event>
<event>
 5    1  0.1196676E-004  0.4363538E+03  0.7818608E-02  0.9629574E-01
         -4   -1    0    0    0  501 -0.00000000000E+00  0.00000000000E+00  0.23534397923E+04  0.23534397923E+04  0.00000000000E+00 0. -1.
         21   -1    0    0  501  502  0.00000000000E+00 -0.00000000000E+00 -0.12689058142E+04  0.12689058142E+04  0.00000000000E+00 0. -1.
        -13    1    1    2    0    0 -0.33549577797E+03 -0.26472591847E+03  0.20970306616E+04  0.21401343032E+04  0.10566000000E+00 0.  1.
         13    1    1    2    0    0  0.58196081656E+03  0.45588339735E+03 -0.53769663475E+03  0.91412567307E+03  0.10566000000E+00 0. -1.
         -4    1    1    2    0  502 -0.24646503859E+03 -0.19115747887E+03 -0.47480004871E+03  0.56808563019E+03  0.00000000000E+00 0. -1.
</event>
<event>
 5    1  0.1196676E-004  0.4997010E+03  0.7818608E-02  0.9679743E-01
         21   -1    0    0  501  502  0.00000000000E+00  0.00000000000E+00  0.18269983886E+03  0.18269983886E+03  0.00000000000E+00 0. -1.
         -4   -1    0    0    0  501 -0.00000000000E+00 -0.00000000000E+00 -0.25478945035E+04  0.25478945035E+04  0.00000000000E+00 0. -1.
        -13    1    1    2    0    0 -0.16843493581E+03 -0.17593620483E+03 -0.14452295201E+03  0.28321506067E+03  0.10566000000E+00 0.  1.
         13    1    1    2    0    0  0.55050453387E+03  0.26378142896E+03 -0.10716311251E+04  0.12333001109E+04  0.10566000000E+00 0. -1.
         -4    1    1    2    0  502 -0.38206959806E+03 -0.87845224124E+02 -0.11490405875E+04  0.12140791708E+04  0.00000000000E+00 0. -1.
</event>
<event>
 5    1  0.1196676E-004  0.6623723E+03  0.7818608E-02  0.9179425E-01
          4   -1    0    0  502    0 -0.00000000000E+00  0.00000000000E+00  0.26116000016E+04  0.26116000016E+04  0.00000000000E+00 0.  1.
         21   -1    0    0  501  502  0.00000000000E+00 -0.00000000000E+00 -0.52481769770E+03  0.52481769770E+03  0.00000000000E+00 0.  1.
        -13    1    1    2    0    0 -0.66869782650E+03 -0.31992400921E+03  0.15001158648E+03  0.75631451267E+03  0.10566000000E+00 0.  1.
         13    1    1    2    0    0  0.31829926212E+03  0.58979891128E+03  0.17943954356E+04  0.19154717870E+04  0.10566000000E+00 0. -1.
          4    1    1    2  501    0  0.35039856438E+03 -0.26987490206E+03  0.14237528176E+03  0.46463139965E+03  0.00000000000E+00 0.  1.
</event>
<event>
 5    1  0.1196676E-004  0.1839139E+03  0.7818608E-02  0.1089814E+00
         21   -1    0    0  501  502  0.00000000000E+00  0.00000000000E+00  0.74607957193E+03  0.74607957193E+03  0.00000000000E+00 0.  1.
          4   -1    0    0  502    0 -0.00000000000E+00 -0.00000000000E+00 -0.40467513156E+03  0.40467513156E+03  0.00000000000E+00 0.  1.
        -13    1    1    2    0    0 -0.10244974436E+03  0.20695274848E+03 -0.27439828464E+03  0.35863605507E+03  0.10566000000E+00 0.  1.
         13    1    1    2    0    0 -0.46541100418E+02 -0.10056199432E+03 -0.34880948877E+02  0.11617004988E+03  0.10566000000E+00 0. -1.
          4    1    1    2  501    0  0.14899084478E+03 -0.10639075415E+03  0.65068367389E+03  0.67594859853E+03  0.00000000000E+00 0.  1.
</event>
<event>
 5    1  0.1196676E-004  0.4523955E+03  0.7818608E-02  0.1051680E+00
         21   -1    0    0  501  502  0.00000000000E+00  0.00000000000E+00  0.98831329819E+03  0.98831329819E+03  0.00000000000E+00 0.  1.
          4   -1    0    0  502    0 -0.00000000000E+00 -0.00000000000E+00 -0.26497558994E+03  0.26497558994E+03  0.00000000000E+00 0.  1.
        -13    1    1    2    0    0 -0.77399557459E+02  0.43404577948E+03  0.86257125070E+02  0.44925130269E+03  0.10566000000E+00 0.  1.
         13    1    1    2    0    0  0.12289962248E+02  0.18439425104E+02  0.30225538147E+01  0.22365208826E+02  0.10566000000E+00 0. -1.
          4    1    1    2  501    0  0.65109595210E+02 -0.45248520458E+03  0.63405802937E+03  0.78167237661E+03  0.00000000000E+00 0.  1.
</event>
<event>
 5    1  0.1196676E-004  0.8986668E+02  0.7818608E-02  0.1182506E+00
         21   -1    0    0  501  502  0.00000000000E+00  0.00000000000E+00  0.15883545002E+03  0.15883545002E+03  0.00000000000E+00 0. -1.
         -4   -1    0    0    0  501 -0.00000000000E+00 -0.00000000000E+00 -0.26360633879E+03  0.26360633879E+03  0.00000000000E+00 0. -1.
        -13    1    1    2    0    0 -0.76421224294E+02 -0.49794645275E+02  0.28172979256E+02  0.95464329175E+02  0.10566000000E+00 0.  1.
         13    1    1    2    0    0  0.42793942481E+02  0.80489113874E+02 -0.21478237267E+03  0.23332659029E+03  0.10566000000E+00 0. -1.
         -4    1    1    2    0  502  0.33627281813E+02 -0.30694468600E+02  0.81838504644E+02  0.93650869334E+02  0.00000000000E+00 0. -1.
</event>
<event>
 5    1  0.1196676E-004  0.4922923E+03  0.7818608E-02  0.9655490E-01
         21   -1    0    0  501  502  0.00000000000E+00  0.00000000000E+00  0.21786336298E+03  0.21786336298E+03  0.00000000000E+00 0.  1.
          4   -1    0    0  502    0 -0.00000000000E+00 -0.00000000000E+00 -0.20199508190E+04  0.20199508190E+04  0.00000000000E+00 0.  1.
        -13    1    1    2    0    0  0.29735217824E+03 -0.35113332264E+03 -0.51272575957E+03  0.68891265329E+03  0.10566000000E+00 0.  1.
         13    1    1    2    0    0  0.24119094098E+03  0.13690584494E+03 -0.45869241963E+03  0.53601774913E+03  0.10566000000E+00 0. -1.
          4    1    1    2  501    0 -0.53854311922E+03  0.21422747770E+03 -0.83066927682E+03  0.10128837796E+04  0.00000000000E+00 0.  1.
</event>
<event>
 5    1  0.1196676E-004  0.4974710E+03  0.7818608E-02  0.9684901E-01
         -4   -1    0    0    0  501 -0.00000000000E+00  0.00000000000E+00  0.12182679553E+04  0.12182679553E+04  0.00000000000E+00 0. -1.
         21   -1    0    0  501  502  0.00000000000E+00 -0.00000000000E+00 -0.33017179701E+03  0.33017179701E+03  0.00000000000E+00 0. -1.
        -13    1    1    2    0    0 -0.20531849299E+03 -0.12893238140E+03  0.19697783032E+03  0.31237720681E+03  0.10566000000E+00 0.  1.
         13    1    1    2    0    0 -0.15426954492E+03 -0.35655111390E+03  0.42527484417E+03  0.57600910893E+03  0.10566000000E+00 0. -1.
         -4    1    1    2    0  502  0.35958803791E+03  0.48548349530E+03  0.26584348376E+03  0.66005343653E+03  0.00000000000E+00 0. -1.
</event>
<event>
 5    1  0.1196676E-004  0.3242619E+03  0.7818608E-02  0.9977653E-01
         -4   -1    0    0    0  501 -0.00000000000E+00  0.00000000000E+00  0.11201214690E+04  0.11201214690E+04  0.00000000000E+00 0. -1.
         21   -1    0    0  501  502  0.00000000000E+00 -0.00000000000E+00 -0.15302934191E+03  0.15302934191E+03  0.00000000000E+00 0.  1.
        -13    1    1    2    0    0  0.17443641220E+03 -0.20233910969E+03  0.26526757835E+03  0.37647852063E+03  0.10566000000E+00 0.  1.
         13    1    1    2    0    0 -0.33093769916E+03  0.22212258063E+03  0.53406089942E+03  0.66639271980E+03  0.10566000000E+00 0. -1.
         -4    1    1    2    0  502  0.15650128696E+03 -0.19783470939E+02  0.16776364933E+03  0.23027957048E+03  0.00000000000E+00 0. -1.
</event>
<event>
 5    1  0.1196676E-004  0.4469395E+03  0.7818608E-02  0.9689100E-01
         21   -1    0    0  501  502  0.00000000000E+00  0.00000000000E+00  0.41597756784E+03  0.41597756784E+03  0.00000000000E+00 0.  1.
          4   -1    0    0  502    0 -0.00000000000E+00 -0.00000000000E+00 -0.11722617840E+04  0.11722617840E+04  0.00000000000E+00 0.  1.
        -13    1    1    2    0    0 -0.21484567506E+03  0.39619485237E+03  0.11951022627E+01  0.45069997179E+03  0.10566000000E+00 0.  1.
         13    1    1    2    0    0 -0.26434041844E+03 -0.19664017635E+03 -0.28473324744E+03  0.43544947943E+03  0.10566000000E+00 0. -1.
          4    1    1    2  501    0  0.47918609351E+03 -0.19955467602E+03 -0.47274607101E+03  0.70208990065E+03  0.00000000000E+00 0.  1.
</event>
<event>
 5    1  0.1196676E-004  0.1526907E+03  0.7818608E-02  0.1098488E+00
          4   -1    0    0  502    0 -0.00000000000E+00  0.00000000000E+00  0.25121878997E+03  0.25121878997E+03  0.00000000000E+00 0.  1.
         21   -1    0    0  501  502  0.00000000000E+00 -0.00000000000E+00 -0.14111108443E+03  0.14111108443E+03  0.00000000000E+00 0.  1.
        -13    1    1    2    0    0 -0.14931692536E+03 -0.47336288000E+02  0.14789651281E+03  0.21542900925E+03  0.10566000000E+00 0.  1.
         13    1    1    2    0    0  0.13603969534E+03  0.46728119568E+02 -0.77465046718E+01  0.14404976698E+03  0.10566000000E+00 0. -1.
          4    1    1    2  501    0  0.13277230020E+02  0.60816843198E+00 -0.30042302596E+02  0.32851098172E+02  0.00000000000E+00 0.  1.
</event>
<event>
 5    1  0.1196676E-004  0.2228372E+03  0.7818608E-02  0.1067710E+00
          4   -1    0    0  502    0 -0.00000000000E+00  0.00000000000E+00  0.46236249807E+03  0.46236249807E+03  0.00000000000E+00 0.  1.
         21   -1    0    0  501  502  0.00000000000E+00 -0.00000000000E+00 -0.25903301417E+03  0.25903301417E+03  0.00000000000E+00 0.  1.
        -13    1    1    2    0    0  0.29244793362E+03 -0.40734870314E+02  0.43339282998E+02  0.29843496470E+03  0.10566000000E+00 0.  1.
         13    1    1    2    0    0 -0.11320294753E+03 -0.25830865334E+02  0.19655532951E+03  0.22828961793E+03  0.10566000000E+00 0. -1.
          4    1    1    2  501    0 -0.17924498609E+03  0.66565735648E+02 -0.36565128607E+02  0.19467092960E+03  0.00000000000E+00 0.  1.
</event>
<event>
 5    1  0.1196676E-004  0.4706783E+03  0.7818608E-02  0.9674568E-01
         -4   -1    0    0    0  501 -0.00000000000E+00  0.00000000000E+00  0.40207634221E+03  0.40207634221E+03  0.00000000000E+00 0. -1.
         21   -1    0    0  501  502  0.00000000000E+00 -0.00000000000E+00 -0.12522463072E+04  0.12522463072E+04  0.00000000000E+00 0. -1.
        -13    1    1    2    0    0  0.14442169638E+03 -0.25927149237E+03  0.91261895131E+01  0.29692192853E+03  0.10566000000E+00 0.  1.
         13    1    1    2    0    0 -0.59542715201E+02  0.64509238668E+03 -0.45159136501E+03  0.78969886311E+03  0.10566000000E+00 0. -1.
         -4    1    1    2    0  502 -0.84878981181E+02 -0.38582089431E+03 -0.40770478945E+03  0.56770185773E+03  0.00000000000E+00 0. -1.
</event>
<event>
 5    1  0.1196676E-004  0.4369559E+03  0.7818608E-02  0.9752478E-01
         -4   -1    0    0    0  501 -0.00000000000E+00  0.00000000000E+00  0.12416948043E+04  0.12416948043E+04  0.00000000000E+00 0. -1.
         21   -1    0    0  501  502  0.00000000000E+00 -0.00000000000E+00 -0.36435868608E+03  0.36435868608E+03  0.00000000000E+00 0.  1.
        -13    1    1    2    0    0 -0.26513568307E+03 -0.98926391799E+02  0.70957749867E+02  0.29175053532E+03  0.10566000000E+00 0.  1.
         13    1    1    2    0    0  0.62440317971E+02  0.46244918045E+03  0.74784475853E+02  0.47260000719E+03  0.10566000000E+00 0. -1.
         -4    1    1    2    0  502  0.20269536510E+03 -0.36352278865E+03  0.73159389250E+03  0.84170294786E+03  0.00000000000E+00 0. -1.
</event>
<event>
 5    1  0.1196676E-004  0.2825271E+02  0.7818608E-02  0.1419512E+00
          4   -1    0    0  502    0 -0.00000000000E+00  0.00000000000E+00  0.13219632560E+03  0.13219632560E+03  0.00000000000E+00 0.  1.
         21   -1    0    0  501  502  0.00000000000E+00 -0.00000000000E+00 -0.58445121843E+02  0.58445121843E+02  0.00000000000E+00 0.  1.
        -13    1    1    2    0    0 -0.32195447674E+02 -0.13936447797E+02  0.10367482393E+03  0.10944976797E+03  0.10566000000E+00 0.  1.
         13    1    1    2    0    0  0.18400257063E+02  0.58152553744E+01  0.20579648324E+02  0.28212049628E+02  0.10566000000E+00 0. -1.
          4    1    1    2  501    0  0.13795190611E+02  0.81211924222E+01 -0.50503268493E+02  0.52979629848E+02  0.00000000000E+00 0.  1.
</event>
<event>
 5    1  0.1196676E-004  0.3143468E+03  0.7818608E-02  0.1001553E+00
         21   -1    0    0  501  502  0.00000000000E+00  0.00000000000E+00  0.27054253693E+03  0.27054253693E+03  0.00000000000E+00 0.  1.
          4   -1    0    0  502    0 -0.00000000000E+00 -0.00000000000E+00 -0.18252255599E+04  0.18252255599E+04  0.00000000000E+00 0.  1.
        -13    1    1    2    0    0  0.37611241229E+03 -0.14650200629E+02 -0.10500743439E+04  0.11154959946E+04  0.10566000000E+00 0.  1.
         13    1    1    2    0    0 -0.21385077131E+03 -0.21894315446E+03 -0.60552835309E+03  0.67847833778E+03  0.10566000000E+00 0. -1.
          4    1    1    2  501    0 -0.16226164098E+03  0.23359335509E+03  0.10091967401E+03  0.30179376448E+03  0.00000000000E+00 0.  1.
</event>
<event>
 5    1  0.1196676E-004  0.7043999E+03  0.7818608E-02  0.9116620E-01
         -4   -1    0    0    0  501 -0.00000000000E+00  0.00000000000E+00  0.30841024407E+04  0.30841024407E+04  0.00000000000E+00 0. -1.
         21   -1    0    0  501  502  0.00000000000E+00 -0.00000000000E+00 -0.36432171196E+03  0.36432171196E+03  0.00000000000E+00 0.  1.
        -13    1    1    2    0    0  0.20736082613E+03 -0.68666142258E+03  0.17503631883E+04  0.18916325551E+04  0.10566000000E+00 0.  1.
         13    1    1    2    0    0 -0.54963848507E+03  0.49964217030E+03  0.34136455439E+03  0.81748060086E+03  0.10566000000E+00 0. -1.
         -4    1    1    2    0  502  0.34227765894E+03  0.18701925228E+03  0.62805298606E+03  0.73931099670E+03  0.00000000000E+00 0. -1.
</event>
<event>
 5    1  0.1196676E-004  0.3787770E+02  0.7818608E-02  0.1350910E+00
         -4   -1    0    0    0  501 -0.00000000000E+00  0.00000000000E+00  0.42520450144E+03  0.42520450144E+03  0.00000000000E+00 0. -1.
         21   -1    0    0  501  502  0.00000000000E+00 -0.00000000000E+00 -0.94418597373E+01  0.94418597373E+01  0.00000000000E+00 0. -1.
        -13    1    1    2    0    0  0.97299910077E+01 -0.32634239743E+02  0.17721556185E+03  0.18045784232E+03  0.10566000000E+00 0.  1.
         13    1    1    2    0    0 -0.38446189602E+01  0.42597019622E+02  0.23881441863E+03  0.24261414816E+03  0.10566000000E+00 0. -1.
         -4    1    1    2    0  502 -0.58853720475E+01 -0.99627798794E+01 -0.26733878071E+00  0.11574370699E+02  0.00000000000E+00 0. -1.
</event>
<event>
 5    1  0.1196676E-004  0.4692198E+03  0.7818608E-02  0.9926679E-01
         21   -1    0    0  501  502  0.00000000000E+00  0.00000000000E+00  0.54846217769E+03  0.54846217769E+03  0.00000000000E+00 0.  1.
          4   -1    0    0  502    0 -0.00000000000E+00 -0.00000000000E+00 -0.10378712418E+04  0.10378712418E+04  0.00000000000E+00 0.  1.
        -13    1    1    2    0    0 -0.85355112618E+02 -0.41720257064E+03  0.13022960598E+03  0.44531252131E+03  0.10566000000E+00 0.  1.
         13    1    1    2    0    0 -0.11757245330E+02 -0.12613893067E+03 -0.57329652238E+03  0.58712705301E+03  0.10566000000E+00 0. -1.
          4    1    1    2  501    0  0.97112357948E+02  0.54334150131E+03 -0.46342147755E+02  0.55389384521E+03  0.00000000000E+00 0.  1.
</event>
<event>
 5    1  0.1196676E-004  0.4032613E+03  0.7818608E-02  0.9782743E-01
         21   -1    0    0  501  502  0.00000000000E+00  0.00000000000E+00  0.15006546730E+04  0.15006546730E+04  0.00000000000E+00 0. -1.
         -4   -1    0    0    0  501 -0.00000000000E+00 -0.00000000000E+00 -0.32071118124E+03  0.32071118124E+03  0.00000000000E+00 0. -1.
        -13    1    1    2    0    0  0.26135503118E+03  0.19226887984E+03  0.18371052658E+03  0.37285834203E+03  0.10566000000E+00 0.  1.
         13    1    1    2    0    0 -0.58455139190E+03 -0.87622935128E+01  0.29490397287E+03  0.65478658503E+03  0.10566000000E+00 0. -1.
         -4    1    1    2    0  502  0.32319636071E+03 -0.18350658633E+03  0.70132899230E+03  0.79372092718E+03  0.00000000000E+00 0. -1.
</event>
<event>
 5    1  0.1196676E-004  0.4558796E+03  0.7818608E-02  0.9825104E-01
         21   -1    0    0  501  502  0.00000000000E+00  0.00000000000E+00  0.15745553231E+03  0.15745553231E+03  0.00000000000E+00 0. -1.
         -4   -1    0    0    0  501 -0.00000000000E+00 -0.00000000000E+00 -0.24927246038E+04  0.24927246038E+04  0.00000000000E+00 0. -1.
        -13    1    1    2    0    0  0.11035205165E+02 -0.19404898095E+03 -0.59962649146E+03  0.63034016466E+03  0.10566000000E+00 0.  1.
         13    1    1    2    0    0  0.26424723317E+03 -0.31480900974E+03 -0.44675436270E+03  0.60705912777E+03  0.10566000000E+00 0. -1.
         -4    1    1    2    0  502 -0.27528243833E+03  0.50885799068E+03 -0.12888882173E+04  0.14127808437E+04  0.00000000000E+00 0. -1.
</event>
<event>
 5    1  0.1196676E-004  0.2230400E+03  0.7818608E-02  0.1070748E+00
         -4   -1    0    0    0  501 -0.00000000000E+00  0.00000000000E+00  0.18687023269E+04  0.18687023269E+04  0.00000000000E+00 0. -1.
         21   -1    0    0  501  502  0.00000000000E+00 -0.00000000000E+00 -0.57155123154E+02  0.57155123154E+02  0.00000000000E+00 0. -1.
        -13    1    1    2    0    0  0.38286321728E+02 -0.98991651574E+02  0.63109161017E+03  0.63995454612E+03  0.10566000000E+00 0.  1.
         13    1    1    2    0    0  0.14178437074E+03 -0.13554092821E+03  0.31245046871E+03  0.36891659975E+03  0.10566000000E+00 0. -1.
         -4    1    1    2    0  502 -0.18007069247E+03  0.23453257978E+03  0.86800512483E+03  0.91698630415E+03  0.00000000000E+00 0. -1.
</event>
<event>
 5    1  0.1196676E-004  0.3843820E+02  0.7818608E-02  0.1375764E+00
          4   -1    0    0  502    0 -0.00000000000E+00  0.00000000000E+00  0.29308475931E+02  0.29308475931E+02  0.00000000000E+00 0.  1.
         21   -1    0    0  501  502  0.00000000000E+00 -0.00000000000E+00 -0.20205517461E+03  0.20205517461E+03  0.00000000000E+00 0. -1.
        -13    1    1    2    0    0 -0.51203976987E+02 -0.23863826176E+02 -0.12652534503E+02  0.57891512784E+02  0.10566000000E+00 0.  1.
         13    1    1    2    0    0  0.18318038771E+02  0.14530843355E+02 -0.11231619931E+03  0.11472417246E+03  0.10566000000E+00 0. -1.
          4    1    1    2  501    0  0.32885938216E+02  0.93329828206E+01 -0.47777964859E+02  0.58747965299E+02  0.00000000000E+00 0.  1.
</event>
<event>
 5    1  0.1196676E-004  0.3212625E+03  0.7818608E-02  0.9988956E-01
         21   -1    0    0  501  502  0.00000000000E+00  0.00000000000E+00  0.22835939563E+03  0.22835939563E+03  0.00000000000E+00 0.  1.
          4   -1    0    0  502    0 -0.00000000000E+00 -0.00000000000E+00 -0.16130385265E+04  0.16130385265E+04  0.00000000000E+00 0.  1.
        -13    1    1    2    0    0 -0.58698870857E+02  0.21899964586E+03  0.11686436497E+03  0.25507585792E+03  0.10566000000E+00 0.  1.
         13    1    1    2    0    0  0.80658507503E+02 -0.33102588037E+03 -0.72069987327E+03  0.79717767580E+03  0.10566000000E+00 0. -1.
          4    1    1    2  501    0 -0.21959636647E+02  0.11202623451E+03 -0.78084362259E+03  0.78914438843E+03  0.00000000000E+00 0.  1.
</event>
<event>
 5    1  0.1196676E-004  0.4984176E+03  0.7818608E-02  0.9748373E-01
         21   -1    0    0  501  502  0.00000000000E+00  0.00000000000E+00  0.30032426603E+03  0.30032426603E+03  0.00000000000E+00 0. -1.
         -4   -1    0    0    0  501 -0.00000000000E+00 -0.00000000000E+00 -0.12252998935E+04  0.12252998935E+04  0.00000000000E+00 0. -1.
        -13    1    1    2    0    0 -0.18852212363E+03  0.43151120337E+02 -0.14528016274E+03  0.24188622767E+03  0.10566000000E+00 0.  1.
         13    1    1    2    0    0 -0.49776316698E+02 -0.49798456743E+03 -0.45377229819E+03  0.67555578665E+03  0.10566000000E+00 0. -1.
         -4    1    1    2    0  502  0.23829844033E+03  0.45483344709E+03 -0.32592316652E+03  0.60818214519E+03  0.00000000000E+00 0. -1.
</event>
<event>
 5    1  0.1196676E-004  0.4895110E+03  0.7818608E-02  0.9713833E-01
         -4   -1    0    0    0  501 -0.00000000000E+00  0.00000000000E+00  0.17398554546E+04  0.17398554546E+04  0.00000000000E+00 0. -1.
         21   -1    0    0  501  502  0.00000000000E+00 -0.00000000000E+00 -0.24370540417E+03  0.24370540417E+03  0.00000000000E+00 0. -1.
        -13    1    1    2    0    0  0.14584588937E+03 -0.17793847015E+03  0.54396119350E+03  0.59061570738E+03  0.10566000000E+00 0.  1.
         13    1    1    2    0    0 -0.57134691241E+03  0.14724823671E+03  0.54549921160E+03  0.80354759570E+03  0.10566000000E+00 0. -1.
         -4    1    1    2    0  502  0.42550102303E+03  0.30690233436E+02  0.40668964528E+03  0.58939755565E+03  0.00000000000E+00 0. -1.
</event>
<event>
 5    1  0.1196676E-004  0.4176759E+03  0.7818608E-02  0.9679340E-01
         21   -1    0    0  501  502  0.00000000000E+00  0.00000000000E+00  0.90020609432E+02  0.90020609432E+02  0.00000000000E+00 0. -1.
          4   -1    0    0  502    0 -0.00000000000E+00 -0.00000000000E+00 -0.32954675675E+04  0.32954675675E+04  0.00000000000E+00 0.  1.
        -13    1    1    2    0    0  0.32550318710E+03 -0.30319903620E+03 -0.25269932743E+04  0.25658482028E+04  0.10566000000E+00 0.  1.
         13    1    1    2    0    0 -0.26334948953E+03  0.23320959444E+03 -0.60821842613E+03  0.70261606416E+03  0.10566000000E+00 0. -1.
          4    1    1    2  501    0 -0.62153697570E+02  0.69989441756E+02 -0.70235257574E+02  0.11702390989E+03  0.00000000000E+00 0.  1.
</event>
<event>
 5    1  0.1196676E-004  0.3211801E+03  0.7818608E-02  0.9989268E-01
          4   -1    0    0  502    0 -0.00000000000E+00  0.00000000000E+00  0.77299830985E+03  0.77299830985E+03  0.00000000000E+00 0.  1.
         21   -1    0    0  501  502  0.00000000000E+00 -0.00000000000E+00 -0.72529921913E+03  0.72529921913E+03  0.00000000000E+00 0.  1.
        -13    1    1    2    0    0 -0.18347527509E+03  0.13319083228E+03 -0.61589888361E+03  0.65630360380E+03  0.10566000000E+00 0.  1.
         13    1    1    2    0    0  0.27524074313E+03 -0.18816690326E+03  0.25534516490E+03  0.41995882485E+03  0.10566000000E+00 0. -1.
          4    1    1    2  501    0 -0.91765468044E+02  0.54976070982E+02  0.40825280943E+03  0.42203510034E+03  0.00000000000E+00 0.  1.
</event>
<event>
 5    1  0.1196676E-004  0.5034810E+03  0.7818608E-02  0.9470375E-01
         -4   -1    0    0    0  501 -0.00000000000E+00  0.00000000000E+00  0.12076691089E+04  0.12076691089E+04  0.00000000000E+00 0. -1.
         21   -1    0    0  501  502  0.00000000000E+00 -0.00000000000E+00 -0.41939865480E+03  0.41939865480E+03  0.00000000000E+00 0.  1.
        -13    1    1    2    0    0 -0.29491759566E+03  0.27120088260E+03  0.23898711880E+03  0.46652026866E+03  0.10566000000E+00 0.  1.
         13    1    1    2    0    0  0.34909271018E+03 -0.59242859962E+03  0.44259646069E+03  0.81775852433E+03  0.10566000000E+00 0. -1.
         -4    1    1    2    0  502 -0.54175114513E+02  0.32122771701E+03  0.10668687460E+03  0.34278897068E+03  0.00000000000E+00 0. -1.
</event>
<event>
 5    1  0.1196676E-004  0.5267473E+03  0.7818608E-02  0.9812049E-01
          4   -1    0    0  502    0 -0.00000000000E+00  0.00000000000E+00  0.11454064348E+04  0.11454064348E+04  0.00000000000E+00 0.  1.
         21   -1    0    0  501  502  0.00000000000E+00 -0.00000000000E+00 -0.33391834016E+03  0.33391834016E+03  0.00000000000E+00 0.  1.
        -13    1    1    2    0    0 -0.31217968488E+03  0.39054329986E+03  0.25993177668E+03  0.56351110407E+03  0.10566000000E+00 0.  1.
         13    1    1    2    0    0  0.62208793584E+02  0.11610011612E+03  0.23190103088E+03  0.26669696333E+03  0.10566000000E+00 0. -1.
          4    1    1    2  501    0  0.24997089129E+03 -0.50664341598E+03  0.31965528705E+03  0.64911670753E+03  0.00000000000E+00 0.  1.
</event>
<event>
 5    1  0.1196676E-004  0.6147175E+02  0.7818608E-02  0.1252711E+00
         21   -1    0    0  501  502  0.00000000000E+00  0.00000000000E+00  0.52339202599E+03  0.52339202599E+03  0.00000000000E+00 0.  1.
          4   -1    0    0  502    0 -0.00000000000E+00 -0.00000000000E+00 -0.28133777628E+02  0.28133777628E+02  0.00000000000E+00 0.  1.
        -13    1    1    2    0    0 -0.13222994760E+02 -0.68183195507E+02  0.54061651203E+02  0.88014027489E+02  0.10566000000E+00 0.  1.
         13    1    1    2    0    0 -0.45188868846E+02  0.43241109781E+02  0.11233435621E+03  0.12857233836E+03  0.10566000000E+00 0. -1.
          4    1    1    2  501    0  0.58411863605E+02  0.24942085726E+02  0.32886224095E+03  0.33493943777E+03  0.00000000000E+00 0.  1.
</event>
<event>
 5    1  0.1196676E-004  0.5994157E+02  0.7818608E-02  0.1255889E+00
         21   -1    0    0  501  502  0.00000000000E+00  0.00000000000E+00  0.11635851846E+03  0.11635851846E+03  0.00000000000E+00 0.  1.
         -4   -1    0    0    0  501 -0.00000000000E+00 -0.00000000000E+00 -0.19924168995E+03  0.19924168995E+03  0.00000000000E+00 0. -1.
        -13    1    1    2    0    0 -0.51301992035E+02  0.46822721774E+02  0.82734461849E+02  0.10802436763E+03  0.10566000000E+00 0.  1.
         13    1    1    2    0    0  0.45099030830E+02 -0.38759575445E+02 -0.18022098326E+03  0.18977840036E+03  0.10566000000E+00 0. -1.
         -4    1    1    2    0  502  0.62029612054E+01 -0.80631463284E+01  0.14603349920E+02  0.17797440415E+02  0.00000000000E+00 0. -1.
</event>
<event>
 5    1  0.1196676E-004  0.4316364E+03  0.7818608E-02  0.9641890E-01
          4   -1    0    0  502    0 -0.00000000000E+00  0.00000000000E+00  0.27860983473E+04  0.27860983473E+04  0.00000000000E+00 0.  1.
         21   -1    0    0  501  502  0.00000000000E+00 -0.00000000000E+00 -0.22695505149E+03  0.22695505149E+03  0.00000000000E+00 0.  1.
        -13    1    1    2    0    0  0.77865489204E+02  0.41707832231E+03  0.19437907633E+04  0.19895577157E+04  0.10566000000E+00 0.  1.
         13    1    1    2    0    0  0.43028887443E+02 -0.46495338474E+03  0.71892747831E+03  0.85725717575E+03  0.10566000000E+00 0. -1.
          4    1    1    2  501    0 -0.12089437665E+03  0.47875062430E+02 -0.10357494585E+03  0.16623850732E+03  0.00000000000E+00 0.  1.
</event>
<event>
 5    1  0.1196676E-004  0.5177866E+03  0.7818608E-02  0.9462880E-01
         -4   -1    0    0    0  501 -0.00000000000E+00  0.00000000000E+00  0.21014830613E+04  0.21014830613E+04  0.00000000000E+00 0. -1.
         21   -1    0    0  501  502  0.00000000000E+00 -0.00000000000E+00 -0.52209408595E+03  0.52209408595E+03  0.00000000000E+00 0. -1.
        -13    1    1    2    0    0 -0.51930667160E+03 -0.14868090718E+03  0.13698256979E+04  0.14724835772E+04  0.10566000000E+00 0.  1.
         13    1    1    2    0    0 -0.69571397325E+02 -0.27718244996E+03  0.30518347173E+03  0.41809957244E+03  0.10566000000E+00 0. -1.
         -4    1    1    2    0  502  0.58887806892E+03  0.42586335714E+03 -0.95620194265E+02  0.73299399763E+03  0.00000000000E+00 0. -1.
</event>
<event>
 5    1  0.1196676E-004  0.4134953E+03  0.7818608E-02  0.9817249E-01
         21   -1    0    0  501  502  0.00000000000E+00  0.00000000000E+00  0.20407217481E+03  0.20407217481E+03  0.00000000000E+00 0.  1.
          4   -1    0    0  502    0 -0.00000000000E+00 -0.00000000000E+00 -0.16537630318E+04  0.16537630318E+04  0.00000000000E+00 0.  1.
        -13    1    1    2    0    0  0.32061165549E+03 -0.24517392093E+03 -0.38764254009E+03  0.55961489901E+03  0.10566000000E+00 0.  1.
         13    1    1    2    0    0  0.15321761970E+03  0.21929114465E+03 -0.45351359943E+03  0.52653474827E+03  0.10566000000E+00 0. -1.
          4    1    1    2  501    0 -0.47382927519E+03  0.25882776284E+02 -0.60853471751E+03  0.77168555938E+03  0.00000000000E+00 0.  1.
</event>
<event>
 5    1  0.1196676E-004  0.1475157E+03  0.7818608E-02  0.1103588E+00
         21   -1    0    0  501  502  0.00000000000E+00  0.00000000000E+00  0.10265281349E+03  0.10265281349E+03  0.00000000000E+00 0. -1.
         -4   -1    0    0    0  501 -0.00000000000E+00 -0.00000000000E+00 -0.84332445262E+03  0.84332445262E+03  0.00000000000E+00 0. -1.
        -13    1    1    2    0    0  0.11354988394E+03 -0.94426722335E+02 -0.13950971358E+03  0.20315745958E+03  0.10566000000E+00 0.  1.
         13    1    1    2    0    0 -0.10283626972E+03  0.10594019476E+03 -0.66288313130E+03  0.67912640956E+03  0.10566000000E+00 0. -1.
         -4    1    1    2    0  502 -0.10713614220E+02 -0.11513472427E+02  0.61721205756E+02  0.63693396965E+02  0.00000000000E+00 0. -1.
</event>
<event>
 5    1  0.1196676E-004  0.3911496E+03  0.7818608E-02  0.9754959E-01
         -4   -1    0    0    0  501 -0.00000000000E+00  0.00000000000E+00  0.13741298253E+04  0.13741298253E+04  0.00000000000E+00 0. -1.
         21   -1    0    0  501  502  0.00000000000E+00 -0.00000000000E+00 -0.45992317701E+03  0.45992317701E+03  0.00000000000E+00 0. -1.
        -13    1    1    2    0    0  0.33747527694E+03 -0.15330336252E+03  0.83611112523E+03  0.91458914732E+03  0.10566000000E+00 0.  1.
         13    1    1    2    0    0 -0.41217035996E+03  0.16351210407E+03  0.39492412756E+03  0.59378926522E+03  0.10566000000E+00 0. -1.
         -4    1    1    2    0  502  0.74695083014E+02 -0.10208741548E+02 -0.31682860447E+03  0.32567458980E+03  0.00000000000E+00 0. -1.
</event>
<event>
 5    1  0.1196676E-004  0.4731296E+03  0.7818608E-02  0.9538894E-01
         21   -1    0    0  501  502  0.00000000000E+00  0.00000000000E+00  0.55137265505E+03  0.55137265505E+03  0.00000000000E+00 0.  1.
          4   -1    0    0  502    0 -0.00000000000E+00 -0.00000000000E+00 -0.13280634798E+04  0.13280634798E+04  0.00000000000E+00 0.  1.
        -13    1    1    2    0    0 -0.52179929008E+02  0.66560910579E+03 -0.26357141155E+03  0.71779393063E+03  0.10566000000E+00 0.  1.
         13    1    1    2    0    0 -0.60110542371E+02 -0.42140334210E+03 -0.71044118661E+03  0.82820332337E+03  0.10566000000E+00 0. -1.
          4    1    1    2  501    0  0.11229047138E+03 -0.24420576368E+03  0.19732177343E+03  0.33343888083E+03  0.00000000000E+00 0.  1.
</event>
<event>
 5    1  0.1196676E-004  0.1391665E+03  0.7818608E-02  0.1139101E+00
          4   -1    0    0  502    0 -0.00000000000E+00  0.00000000000E+00  0.12125877776E+03  0.12125877776E+03  0.00000000000E+00 0.  1.
         21   -1    0    0  501  502  0.00000000000E+00 -0.00000000000E+00 -0.44622331381E+03  0.44622331381E+03  0.00000000000E+00 0.  1.
        -13    1    1    2    0    0  0.13579989599E+03 -0.38868130468E+02  0.36267064060E+02  0.14583433895E+03  0.10566000000E+00 0.  1.
         13    1    1    2    0    0 -0.34246371253E+02 -0.60581548155E+02 -0.16736929214E+03  0.18126066599E+03  0.10566000000E+00 0. -1.
          4    1    1    2  501    0 -0.10155352474E+03  0.99449678623E+02 -0.19386230798E+03  0.24038708663E+03  0.00000000000E+00 0.  1.
</event>
<event>
 5    1  0.1196676E-004  0.4231420E+03  0.7818608E-02  0.1000681E+00
         21   -1    0    0  501  502  0.00000000000E+00  0.00000000000E+00  0.19093459544E+04  0.19093459544E+04  0.00000000000E+00 0. -1.
         -4   -1    0    0    0  501 -0.00000000000E+00 -0.00000000000E+00 -0.18111751326E+03  0.18111751326E+03  0.00000000000E+00 0. -1.
        -13    1    1    2    0    0  0.13257502059E+03 -0.27491692084E+01  0.26784649958E+03  0.29887363971E+03  0.10566000000E+00 0.  1.
         13    1    1    2    0    0 -0.14302104915E+03  0.40795735191E+03  0.12741928058E+04  0.13455302073E+04  0.10566000000E+00 0. -1.
         -4    1    1    2    0  502  0.10446028562E+02 -0.40520818270E+03  0.18618913582E+03  0.44605962061E+03  0.00000000000E+00 0. -1.
</event>
<event>
 5    1  0.1196676E-004  0.9863262E+02  0.7818608E-02  0.1184815E+00
         21   -1    0    0  501  502  0.00000000000E+00  0.00000000000E+00  0.15702464369E+03  0.15702464369E+03  0.00000000000E+00 0.  1.
          4   -1    0    0  502    0 -0.00000000000E+00 -0.00000000000E+00 -0.21433752150E+03  0.21433752150E+03  0.00000000000E+00 0.  1.
        -13    1    1    2    0    0  0.45170545753E+02  0.12805534294E+03 -0.13576279876E+03  0.19201587891E+03  0.10566000000E+00 0.  1.
         13    1    1    2    0    0 -0.53568566456E+02 -0.35741188265E+02  0.52503047005E+02  0.83087935102E+02  0.10566000000E+00 0. -1.
          4    1    1    2  501    0  0.83980207028E+01 -0.92314154678E+02  0.25946873949E+02  0.96258351187E+02  0.00000000000E+00 0.  1.
</event>
<event>
 5    1  0.1196676E-004  0.3784752E+03  0.7818608E-02  0.1008797E+00
          4   -1    0    0  502    0 -0.00000000000E+00  0.00000000000E+00  0.13897955852E+04  0.13897955852E+04  0.00000000000E+00 0.  1.
         21   -1    0    0  501  502  0.00000000000E+00 -0.00000000000E+00 -0.49889314413E+03  0.49889314413E+03  0.00000000000E+00 0.  1.
        -13    1    1    2    0    0 -0.27647547207E+03  0.23947759305E+03  0.36197649672E+03  0.51460198171E+03  0.10566000000E+00 0.  1.
         13    1    1    2    0    0  0.98748746476E+02  0.10258499109E+03  0.85648009604E+03  0.86823566006E+03  0.10566000000E+00 0. -1.
          4    1    1    2  501    0  0.17772672560E+03 -0.34206258415E+03 -0.32755415172E+03  0.50585108754E+03  0.00000000000E+00 0.  1.
</event>
<event>
 5    1  0.1196676E-004  0.4631495E+02  0.7818608E-02  0.1307566E+00
         -4   -1    0    0    0  501 -0.00000000000E+00  0.00000000000E+00  0.42272087175E+02  0.42272087175E+02  0.00000000000E+00 0. -1.
         21   -1    0    0  501  502  0.00000000000E+00 -0.00000000000E+00 -0.10907844475E+03  0.10907844475E+03  0.00000000000E+00 0.  1.
        -13    1    1    2    0    0  0.18556741120E+02  0.35333288834E+02 -0.68322823815E+02  0.79125301636E+02  0.10566000000E+00 0.  1.
         13    1    1    2    0    0 -0.90017343606E+00 -0.49538570593E+02  0.87053430214E+00  0.49554508197E+02  0.10566000000E+00 0. -1.
         -4    1    1    2    0  502 -0.17656567683E+02  0.14205281760E+02  0.64593193557E+00  0.22670722095E+02  0.00000000000E+00 0. -1.
</event>
<event>
 5    1  0.1196676E-004  0.1639689E+03  0.7818608E-02  0.1088097E+00
         21   -1    0    0  501  502  0.00000000000E+00  0.00000000000E+00  0.71040963191E+03  0.71040963191E+03  0.00000000000E+00 0. -1.
         -4   -1    0    0    0  501 -0.00000000000E+00 -0.00000000000E+00 -0.14693875481E+03  0.14693875481E+03  0.00000000000E+00 0. -1.
        -13    1    1    2    0    0  0.63704053381E+02  0.14607754770E+03  0.12662709715E+03  0.20354677412E+03  0.10566000000E+00 0.  1.
         13    1    1    2    0    0 -0.47144504666E+02 -0.15925607233E+03 -0.44537357957E+02  0.17195548352E+03  0.10566000000E+00 0. -1.
         -4    1    1    2    0  502 -0.16559548715E+02  0.13178524627E+02  0.48138113791E+03  0.48184612907E+03  0.00000000000E+00 0. -1.
</event>
<event>
 5    1  0.1196676E-004  0.2303679E+03  0.7818608E-02  0.1041101E+00
         21   -1    0    0  501  502  0.00000000000E+00  0.00000000000E+00  0.86890507721E+02  0.86890507721E+02  0.00000000000E+00 0.  1.
          4   -1    0    0  502    0 -0.00000000000E+00 -0.00000000000E+00 -0.17463763124E+04  0.17463763124E+04  0.00000000000E+00 0.  1.
        -13    1    1    2    0    0  0.56544262450E+02 -0.22886732794E+03 -0.11237641898E+04  0.11482262290E+04  0.10566000000E+00 0.  1.
         13    1    1    2    0    0 -0.89013064325E+02  0.20477541679E+03 -0.58213431699E+03  0.62348750679E+03  0.10566000000E+00 0. -1.
          4    1    1    2  501    0  0.32468801874E+02  0.24091911155E+02  0.46412702116E+02  0.61553084374E+02  0.00000000000E+00 0.  1.
</event>
<event>
 5    1  0.1196676E-004  0.4263857E+03  0.7818608E-02  0.9693106E-01
         21   -1    0    0  501  502  0.00000000000E+00  0.00000000000E+00  0.43757308113E+03  0.43757308113E+03  0.00000000000E+00 0. -1.
         -4   -1    0    0    0  501 -0.00000000000E+00 -0.00000000000E+00 -0.16988664332E+04  0.16988664332E+04  0.00000000000E+00 0. -1.
        -13    1    1    2    0    0  0.37211548773E+03 -0.39176567205E+02 -0.94981828926E+03  0.10208621520E+04  0.10566000000E+00 0.  1.
         13    1    1    2    0    0  0.26509573251E+03  0.24838332148E+03  0.27099641139E+02  0.36428618351E+03  0.10566000000E+00 0. -1.
         -4    1    1    2    0  502 -0.63721122023E+03 -0.20920675428E+03 -0.33857470397E+03  0.75129117883E+03  0.00000000000E+00 0. -1.
</event>
<event>
 5    1  0.1196676E-004  0.6798639E+02  0.7818608E-02  0.1239101E+00
         21   -1    0    0  501  502  0.00000000000E+00  0.00000000000E+00  0.41394690817E+03  0.41394690817E+03  0.00000000000E+00 0.  1.
         -4   -1    0    0    0  501 -0.00000000000E+00 -0.00000000000E+00 -0.49048812710E+02  0.49048812710E+02  0.00000000000E+00 0. -1.
        -13    1    1    2    0    0 -0.57506562730E+02  0.10807080757E+02  0.18130639190E+03  0.19051461009E+03  0.10566000000E+00 0.  1.
         13    1    1    2    0    0  0.99230797509E+02 -0.55180954127E+02  0.46925869346E+02  0.12285657187E+03  0.10566000000E+00 0. -1.
         -4    1    1    2    0  502 -0.41724234779E+02  0.44373873370E+02  0.13666583421E+03  0.14962453892E+03  0.00000000000E+00 0. -1.
</event>
<event>
 5    1  0.1720120E-004  0.3694321E+03  0.7818608E-02  0.9953460E-01
         -4   -1    0    0    0  501 -0.00000000000E+00  0.00000000000E+00  0.68808001672E+03  0.68808001672E+03  0.00000000000E+00 0. -1.
         21   -1    0    0  501  502  0.00000000000E+00 -0.00000000000E+00 -0.58993886592E+03  0.58993886592E+03  0.00000000000E+00 0. -1.
        -13    1    1    2    0    0  0.16168911589E+03 -0.17395975829E+03  0.93651268247E+02  0.25529578709E+03  0.10566000000E+00 0.  1.
         13    1    1    2    0    0  0.17916224751E+03 -0.27800687142E+03 -0.23740371904E+03  0.40712095066E+03  0.10566000000E+00 0. -1.
         -4    1    1    2    0  502 -0.34085136340E+03  0.45196662971E+03  0.24189360158E+03  0.61560214488E+03  0.00000000000E+00 0. -1.
</event>
<event>
 5    1  0.1196676E-004  0.5117420E+03  0.7818608E-02  0.9459472E-01
         21   -1    0    0  501  502  0.00000000000E+00  0.00000000000E+00  0.51849205367E+03  0.51849205367E+03  0.00000000000E+00 0. -1.
          4   -1    0    0  502    0 -0.00000000000E+00 -0.00000000000E+00 -0.14317295697E+04  0.14317295697E+04  0.00000000000E+00 0.  1.
        -13    1    1    2    0    0  0.14338886711E+03 -0.60993910835E+03 -0.23006815346E+03  0.66747093533E+03  0.10566000000E+00 0.  1.
         13    1    1    2    0    0 -0.47941979035E+03  0.21542030574E+03 -0.52020593335E+03  0.73950217563E+03  0.10566000000E+00 0. -1.
          4    1    1    2  501    0  0.33603092324E+03  0.39451880261E+03 -0.16296342921E+03  0.54324851242E+03  0.00000000000E+00 0.  1.
</event>
<event>
 5    1  0.1196676E-004  0.1367506E+03  0.7818608E-02  0.1114968E+00
          4   -1    0    0  502    0 -0.00000000000E+00  0.00000000000E+00  0.13016831136E+03  0.13016831136E+03  0.00000000000E+00 0.  1.
         21   -1    0    0  501  502  0.00000000000E+00 -0.00000000000E+00 -0.69057977627E+03  0.69057977627E+03  0.00000000000E+00 0. -1.
        -13    1    1    2    0    0 -0.13561813109E+03 -0.25781231837E+02  0.52183246569E+02  0.14758066195E+03  0.10566000000E+00 0.  1.
         13    1    1    2    0    0  0.13890832939E+03 -0.85452105742E+02 -0.42266665048E+03  0.45303939667E+03  0.10566000000E+00 0. -1.
          4    1    1    2  501    0 -0.32901983018E+01  0.11123333758E+03 -0.18992806101E+03  0.22012802900E+03  0.00000000000E+00 0.  1.
</event>
<event>
 5    1  0.1196676E-004  0.3400012E+03  0.7818608E-02  0.1003596E+00
         21   -1    0    0  501  502  0.00000000000E+00  0.00000000000E+00  0.13422343688E+04  0.13422343688E+04  0.00000000000E+00 0.  1.
          4   -1    0    0  502    0 -0.00000000000E+00 -0.00000000000E+00 -0.33806876308E+03  0.33806876308E+03  0.00000000000E+00 0.  1.
        -13    1    1    2    0    0  0.87641872035E+02  0.14961395272E+03 -0.24137958356E+03  0.29720287197E+03  0.10566000000E+00 0.  1.
         13    1    1    2    0    0 -0.77767653876E+02  0.21902279196E+03  0.46759888866E+03  0.52217575894E+03  0.10566000000E+00 0. -1.
          4    1    1    2  501    0 -0.98742181598E+01 -0.36863674467E+03  0.77794630060E+03  0.86092450094E+03  0.00000000000E+00 0.  1.
</event>
<event>
 5    1  0.1196676E-004  0.4989408E+03  0.7818608E-02  0.9493341E-01
         21   -1    0    0  501  502  0.00000000000E+00  0.00000000000E+00  0.94131397124E+03  0.94131397124E+03  0.00000000000E+00 0.  1.
          4   -1    0    0  502    0 -0.00000000000E+00 -0.00000000000E+00 -0.67807661085E+03  0.67807661085E+03  0.00000000000E+00 0.  1.
        -13    1    1    2    0    0 -0.28589867793E+02  0.25863222989E+03 -0.13500124068E+03  0.29314391863E+03  0.10566000000E+00 0.  1.
         13    1    1    2    0    0 -0.37495451565E+02  0.47430390979E+03 -0.26572000202E+02  0.47652512010E+03  0.10566000000E+00 0. -1.
          4    1    1    2  501    0  0.66085319357E+02 -0.73293613968E+03  0.42481060128E+03  0.84972154336E+03  0.00000000000E+00 0.  1.
</event>
<event>
 5    1  0.1196676E-004  0.4468593E+03  0.7818608E-02  0.9863698E-01
         21   -1    0    0  501  502  0.00000000000E+00  0.00000000000E+00  0.86505320064E+03  0.86505320064E+03  0.00000000000E+00 0. -1.
         -4   -1    0    0    0  501 -0.00000000000E+00 -0.00000000000E+00 -0.41868610399E+03  0.41868610399E+03  0.00000000000E+00 0. -1.
        -13    1    1    2    0    0 -0.53594762890E+02  0.17299659403E+03  0.18982729449E+03  0.26236355130E+03  0.10566000000E+00 0.  1.
         13    1    1    2    0    0 -0.24215679099E+03  0.31204697821E+03  0.21995792631E+03  0.45210035229E+03  0.10566000000E+00 0. -1.
         -4    1    1    2    0  502  0.29575155388E+03 -0.48504357224E+03  0.36581875848E+02  0.56927540104E+03  0.00000000000E+00 0. -1.
</event>
<event>
 5    1  0.1196676E-004  0.4333015E+03  0.7818608E-02  0.1042894E+00
          4   -1    0    0  502    0 -0.00000000000E+00  0.00000000000E+00  0.36467970245E+03  0.36467970245E+03  0.00000000000E+00 0.  1.
         21   -1    0    0  501  502  0.00000000000E+00 -0.00000000000E+00 -0.95404077128E+03  0.95404077128E+03  0.00000000000E+00 0.  1.
        -13    1    1    2    0    0  0.28075147563E+03  0.31650038199E+03 -0.43687759249E+03  0.60815781245E+03  0.10566000000E+00 0.  1.
         13    1    1    2    0    0 -0.96292761699E+00  0.32780411033E+02  0.16090906488E+03  0.16421699334E+03  0.10566000000E+00 0. -1.
          4    1    1    2  501    0 -0.27978854801E+03 -0.34928079302E+03 -0.31339254122E+03  0.54634566793E+03  0.00000000000E+00 0.  1.
</event>
<event>
 5    1  0.1196676E-004  0.7206903E+02  0.7818608E-02  0.1221401E+00
         21   -1    0    0  501  502  0.00000000000E+00  0.00000000000E+00  0.16040285416E+03  0.16040285416E+03  0.00000000000E+00 0.  1.
         -4   -1    0    0    0  501 -0.00000000000E+00 -0.00000000000E+00 -0.17302180033E+03  0.17302180033E+03  0.00000000000E+00 0. -1.
        -13    1    1    2    0    0  0.63437987623E+02 -0.35065118758E+02  0.88948962557E+02  0.11474262474E+03  0.10566000000E+00 0.  1.
         13    1    1    2    0    0 -0.38772236511E+02  0.61544161466E+02 -0.14495658869E+03  0.16218321092E+03  0.10566000000E+00 0. -1.
         -4    1    1    2    0  502 -0.24665751112E+02 -0.26479042708E+02  0.43388679970E+02  0.56498818838E+02  0.00000000000E+00 0. -1.
</event>
<event>
 5    1  0.1196676E-004  0.3228722E+03  0.7818608E-02  0.1019225E+00
         21   -1    0    0  501  502  0.00000000000E+00  0.00000000000E+00  0.19316067216E+03  0.19316067216E+03  0.00000000000E+00 0. -1.
         -4   -1    0    0    0  501 -0.00000000000E+00 -0.00000000000E+00 -0.21079226787E+04  0.21079226787E+04  0.00000000000E+00 0. -1.
        -13    1    1    2    0    0  0.23901949786E+02  0.16272388492E+03 -0.70137208853E+03  0.72039793424E+03  0.10566000000E+00 0.  1.
         13    1    1    2    0    0  0.29370628466E+03 -0.21530200517E+03 -0.12048056861E+04  0.12586401739E+04  0.10566000000E+00 0. -1.
         -4    1    1    2    0  502 -0.31760823445E+03  0.52578120257E+02 -0.85842319624E+01  0.32204524272E+03  0.00000000000E+00 0. -1.
</event>
<event>
 5    1  0.1196676E-004  0.2018159E+03  0.7818608E-02  0.1058898E+00
         21   -1    0    0  501  502  0.00000000000E+00  0.00000000000E+00  0.22842359608E+03  0.22842359608E+03  0.00000000000E+00 0.  1.
          4   -1    0    0  502    0 -0.00000000000E+00 -0.00000000000E+00 -0.19697679765E+04  0.19697679765E+04  0.00000000000E+00 0.  1.
        -13    1    1    2    0    0 -0.11634988054E+03  0.43441835888E+02  0.19091647897E+03  0.22775776807E+03  0.10566000000E+00 0.  1.
         13    1    1    2    0    0  0.19864186353E+03  0.66307785673E+02 -0.70260027823E+03  0.73314560254E+03  0.10566000000E+00 0. -1.
          4    1    1    2  501    0 -0.82291982983E+02 -0.10974962156E+03 -0.12296605812E+04  0.12372882020E+04  0.00000000000E+00 0.  1.
</event>
<event>
 5    1  0.1196676E-004  0.7927404E+03  0.7818608E-02  0.8998326E-01
         21   -1    0    0  501  502  0.00000000000E+00  0.00000000000E+00  0.40503939751E+03  0.40503939751E+03  0.00000000000E+00 0. -1.
          4   -1    0    0  502    0 -0.00000000000E+00 -0.00000000000E+00 -0.22751509145E+04  0.22751509145E+04  0.00000000000E+00 0.  1.
        -13    1    1    2    0    0  0.69924520912E+03  0.38015374692E+03 -0.14169090301E+04  0.16251436689E+04  0.10566000000E+00 0.  1.
         13    1    1    2    0    0 -0.68740990486E+03 -0.38223058128E+03 -0.54856190150E+03  0.95893313922E+03  0.10566000000E+00 0. -1.
          4    1    1    2  501    0 -0.11835304263E+02  0.20768343573E+01  0.95359414632E+02  0.96113503874E+02  0.00000000000E+00 0.  1.
</event>
<event>
 5    1  0.1196676E-004  0.1560946E+03  0.7818608E-02  0.1095252E+00
         21   -1    0    0  501  502  0.00000000000E+00  0.00000000000E+00  0.25757334892E+03  0.25757334892E+03  0.00000000000E+00 0.  1.
          4   -1    0    0  502    0 -0.00000000000E+00 -0.00000000000E+00 -0.54008702386E+03  0.54008702386E+03  0.00000000000E+00 0.  1.
        -13    1    1    2    0    0 -0.14377614301E+03  0.68860974402E+02 -0.45326397578E+03  0.48048065102E+03  0.10566000000E+00 0.  1.
         13    1    1    2    0    0  0.11352022787E+03 -0.84084143944E+02 -0.18563147645E+01  0.14128143002E+03  0.10566000000E+00 0. -1.
          4    1    1    2  501    0  0.30255915143E+02  0.15223169542E+02  0.17260661560E+03  0.17589829175E+03  0.00000000000E+00 0.  1.
</event>
<event>
 5    1  0.1196676E-004  0.4651322E+03  0.7818608E-02  0.9790537E-01
          4   -1    0    0  502    0 -0.00000000000E+00  0.00000000000E+00  0.28447759529E+03  0.28447759529E+03  0.00000000000E+00 0.  1.
         21   -1    0    0  501  502  0.00000000000E+00 -0.00000000000E+00 -0.14240038712E+04  0.14240038712E+04  0.00000000000E+00 0.  1.
        -13    1    1    2    0    0 -0.23286512025E+03  0.35998905688E+03 -0.11716278061E+03  0.44446081225E+03  0.10566000000E+00 0.  1.
         13    1    1    2    0    0 -0.18134850030E+03 -0.97453627372E+02 -0.12348901921E+03  0.24007090011E+03  0.10566000000E+00 0. -1.
          4    1    1    2  501    0  0.41421362056E+03 -0.26253542951E+03 -0.89887447612E+03  0.10239497542E+04  0.00000000000E+00 0.  1.
</event>
<event>
 5    1  0.1196676E-004  0.1124007E+03  0.7818608E-02  0.1145524E+00
         21   -1    0    0  501  502  0.00000000000E+00  0.00000000000E+00  0.11538046020E+03  0.11538046020E+03  0.00000000000E+00 0. -1.
         -4   -1    0    0    0  501 -0.00000000000E+00 -0.00000000000E+00 -0.17925822683E+03  0.17925822683E+03  0.00000000000E+00 0. -1.
        -13    1    1    2    0    0  0.10009697156E+03  0.15614069813E+01 -0.21645812324E+02  0.10242262476E+03  0.10566000000E+00 0.  1.
         13    1    1    2    0    0 -0.12981225088E+03  0.34506084761E+02 -0.85134283691E+01  0.13458967268E+03  0.10566000000E+00 0. -1.
         -4    1    1    2    0  502  0.29715279320E+02 -0.36067491742E+02 -0.33718525945E+02  0.57626389593E+02  0.00000000000E+00 0. -1.
</event>
<event>
 5    1  0.1196676E-004  0.6406247E+03  0.7818608E-02  0.9213869E-01
         -4   -1    0    0    0  501 -0.00000000000E+00  0.00000000000E+00  0.11911274223E+04  0.11911274223E+04  0.00000000000E+00 0. -1.
         21   -1    0    0  501  502  0.00000000000E+00 -0.00000000000E+00 -0.37750024286E+03  0.37750024286E+03  0.00000000000E+00 0.  1.
        -13    1    1    2    0    0 -0.11027365290E+03  0.63344754190E+03  0.32509023181E+03  0.72048576450E+03  0.10566000000E+00 0.  1.
         13    1    1    2    0    0  0.97190242442E+02 -0.63142325552E+03  0.51365690746E+03  0.81974672953E+03  0.10566000000E+00 0. -1.
         -4    1    1    2    0  502  0.13083410463E+02 -0.20242863760E+01 -0.25119959797E+02  0.28395171154E+02  0.00000000000E+00 0. -1.
</event>
<event>
 5    1  0.1196676E-004  0.2314225E+03  0.7818608E-02  0.1040497E+00
         -4   -1    0    0    0  501 -0.00000000000E+00  0.00000000000E+00  0.55223479128E+03  0.55223479128E+03  0.00000000000E+00 0. -1.
         21   -1    0    0  501  502  0.00000000000E+00 -0.00000000000E+00 -0.18653898730E+03  0.18653898730E+03  0.00000000000E+00 0.  1.
        -13    1    1    2    0    0  0.89710935729E+02 -0.20985785205E+03 -0.32345514599E+02  0.23050946518E+03  0.10566000000E+00 0.  1.
         13    1    1    2    0    0 -0.10001042780E+03  0.20953959729E+03  0.42229360319E+03  0.48191371319E+03  0.10566000000E+00 0. -1.
         -4    1    1    2    0  502  0.10299492073E+02  0.31825475791E+00 -0.24252284603E+02  0.26350600212E+02  0.00000000000E+00 0. -1.
</event>
<event>
 5    1  0.1196676E-004  0.4289269E+03  0.7818608E-02  0.9649040E-01
          4   -1    0    0  502    0 -0.00000000000E+00  0.00000000000E+00  0.21834420400E+04  0.21834420400E+04  0.00000000000E+00 0.  1.
         21   -1    0    0  501  502  0.00000000000E+00 -0.00000000000E+00 -0.86048193834E+03  0.86048193834E+03  0.00000000000E+00 0.  1.
        -13    1    1    2    0    0  0.39352364234E+03 -0.33683014879E+03 -0.71245896991E+03  0.88085935380E+03  0.10566000000E+00 0.  1.
         13    1    1    2    0    0 -0.40811219387E+03  0.12693596578E+03  0.17875654466E+04  0.18379495475E+04  0.10566000000E+00 0. -1.
          4    1    1    2  501    0  0.14588551524E+02  0.20989418301E+03  0.24785362494E+03  0.32511507700E+03  0.00000000000E+00 0.  1.
</event>
<event>
 5    1  0.1196676E-004  0.9713477E+02  0.7818608E-02  0.1169385E+00
         21   -1    0    0  501  502  0.00000000000E+00  0.00000000000E+00  0.46923049642E+02  0.46923049642E+02  0.00000000000E+00 0. -1.
          4   -1    0    0  502    0 -0.00000000000E+00 -0.00000000000E+00 -0.24663117855E+03  0.24663117855E+03  0.00000000000E+00 0.  1.
        -13    1    1    2    0    0  0.39871918009E+02 -0.89825659528E+02 -0.91012211643E+02  0.13394645493E+03  0.10566000000E+00 0.  1.
         13    1    1    2    0    0 -0.23600568730E+02  0.93875114088E+02 -0.10425374772E+03  0.14226165670E+03  0.10566000000E+00 0. -1.
          4    1    1    2  501    0 -0.16271349279E+02 -0.40494545600E+01 -0.44421695433E+01  0.17346116564E+02  0.00000000000E+00 0.  1.
</event>
<event>
 5    1  0.1196676E-004  0.3087872E+03  0.7818608E-02  0.1029371E+00
         21   -1    0    0  501  502  0.00000000000E+00  0.00000000000E+00  0.54072216456E+03  0.54072216456E+03  0.00000000000E+00 0. -1.
         -4   -1    0    0    0  501 -0.00000000000E+00 -0.00000000000E+00 -0.46404874274E+03  0.46404874274E+03  0.00000000000E+00 0. -1.
        -13    1    1    2    0    0  0.12705757679E+03  0.51050336841E+02 -0.21574845327E+02  0.13861908175E+03  0.10566000000E+00 0.  1.
         13    1    1    2    0    0 -0.39003946461E+03  0.80747224113E+02 -0.20132735898E+03  0.44629991575E+03  0.10566000000E+00 0. -1.
         -4    1    1    2    0  502  0.26298188783E+03 -0.13179756095E+03  0.29957562612E+03  0.41985190980E+03  0.00000000000E+00 0. -1.
</event>
<event>
 5    1  0.1196676E-004  0.4195157E+03  0.7818608E-02  0.9674316E-01
         21   -1    0    0  501  502  0.00000000000E+00  0.00000000000E+00  0.73040917583E+02  0.73040917583E+02  0.00000000000E+00 0.  1.
          4   -1    0    0  502    0 -0.00000000000E+00 -0.00000000000E+00 -0.31281753127E+04  0.31281753127E+04  0.00000000000E+00 0.  1.
        -13    1    1    2    0    0  0.24683836602E+03 -0.36428027588E+03 -0.14804077293E+04  0.15444210419E+04  0.10566000000E+00 0.  1.
         13    1    1    2    0    0 -0.26540106585E+03  0.30463702251E+03 -0.15230371186E+04  0.15757168264E+04  0.10566000000E+00 0. -1.
          4    1    1    2  501    0  0.18562699827E+02  0.59643253364E+02 -0.51689547176E+02  0.81078361996E+02  0.00000000000E+00 0.  1.
</event>
<event>
 5    1  0.1196676E-004  0.4079668E+03  0.7818608E-02  0.9876823E-01
         21   -1    0    0  501  502  0.00000000000E+00  0.00000000000E+00  0.47783116701E+03  0.47783116701E+03  0.00000000000E+00 0. -1.
         -4   -1    0    0    0  501 -0.00000000000E+00 -0.00000000000E+00 -0.88097486165E+03  0.88097486165E+03  0.00000000000E+00 0. -1.
        -13    1    1    2    0    0  0.12914034392E+03 -0.18755537171E+03 -0.78117832679E+02  0.24074188010E+03  0.10566000000E+00 0.  1.
         13    1    1    2    0    0  0.29811161358E+03  0.21560321646E+03 -0.52854604556E+03  0.64398463844E+03  0.10566000000E+00 0. -1.
         -4    1    1    2    0  502 -0.42725195750E+03 -0.28047844751E+02  0.20352018360E+03  0.47407951012E+03  0.00000000000E+00 0. -1.
</event>
<event>
 5    1  0.1196676E-004  0.1681163E+03  0.7818608E-02  0.1084501E+00
         -4   -1    0    0    0  501 -0.00000000000E+00  0.00000000000E+00  0.15486078488E+04  0.15486078488E+04  0.00000000000E+00 0. -1.
         21   -1    0    0  501  502  0.00000000000E+00 -0.00000000000E+00 -0.23289077420E+02  0.23289077420E+02  0.00000000000E+00 0. -1.
        -13    1    1    2    0    0 -0.16685443650E+03 -0.23664392804E+02  0.73538599497E+03  0.75444879166E+03  0.10566000000E+00 0.  1.
         13    1    1    2    0    0  0.16936099635E+03 -0.13570809960E+02  0.58621959273E+03  0.61034476817E+03  0.10566000000E+00 0. -1.
         -4    1    1    2    0  502 -0.25065598521E+01  0.37235202763E+02  0.20371318365E+03  0.20710336637E+03  0.00000000000E+00 0. -1.
</event>
<event>
 5    1  0.1196676E-004  0.4693062E+03  0.7818608E-02  0.1002116E+00
         21   -1    0    0  501  502  0.00000000000E+00  0.00000000000E+00  0.14609341520E+03  0.14609341520E+03  0.00000000000E+00 0.  1.
          4   -1    0    0  502    0 -0.00000000000E+00 -0.00000000000E+00 -0.22098314970E+04  0.22098314970E+04  0.00000000000E+00 0.  1.
        -13    1    1    2    0    0 -0.40606967683E+03 -0.28225697280E+03 -0.47340436807E+03  0.68459717207E+03  0.10566000000E+00 0.  1.
         13    1    1    2    0    0  0.39217223317E+02  0.84043307669E+02 -0.38102053744E+03  0.39214529104E+03  0.10566000000E+00 0. -1.
          4    1    1    2  501    0  0.36685245351E+03  0.19821366513E+03 -0.12093131763E+04  0.12791824491E+04  0.00000000000E+00 0.  1.
</event>
<event>
 5    1  0.1196676E-004  0.3781274E+03  0.7818608E-02  0.9794430E-01
          4   -1    0    0  502    0 -0.00000000000E+00  0.00000000000E+00  0.15910050518E+04  0.15910050518E+04  0.00000000000E+00 0.  1.
         21   -1    0    0  501  502  0.00000000000E+00 -0.00000000000E+00 -0.60415291216E+03  0.60415291216E+03  0.00000000000E+00 0. -1.
        -13    1    1    2    0    0 -0.36640649110E+03 -0.45588196012E+02  0.13607920023E+04  0.14099953493E+04  0.10566000000E+00 0.  1.
         13    1    1    2    0    0  0.48893025672E+03  0.70116106008E+02 -0.12948400569E+03  0.51062234886E+03  0.10566000000E+00 0. -1.
          4    1    1    2  501    0 -0.12252376563E+03 -0.24527909997E+02 -0.24445585700E+03  0.27454026578E+03  0.00000000000E+00 0.  1.
</event>
<event>
 5    1  0.1196676E-004  0.4232880E+03  0.7818608E-02  0.9814842E-01
         21   -1    0    0  501  502  0.00000000000E+00  0.00000000000E+00  0.14029740522E+03  0.14029740522E+03  0.00000000000E+00 0.  1.
         -4   -1    0    0    0  501 -0.00000000000E+00 -0.00000000000E+00 -0.32288473931E+04  0.32288473931E+04  0.00000000000E+00 0. -1.
        -13    1    1    2    0    0  0.19996453441E+03 -0.15240989068E+03 -0.15516853315E+03  0.29545198365E+03  0.10566000000E+00 0.  1.
         13    1    1    2    0    0  0.18983621096E+03  0.37696985999E+03 -0.19054220043E+04  0.19516088460E+04  0.10566000000E+00 0. -1.
         -4    1    1    2    0  502 -0.38980074537E+03 -0.22455996931E+03 -0.10279594504E+04  0.11220839686E+04  0.00000000000E+00 0. -1.
</event>
<event>
 5    1  0.1196676E-004  0.4626432E+02  0.7818608E-02  0.1307794E+00
         21   -1    0    0  501  502  0.00000000000E+00  0.00000000000E+00  0.10314789996E+03  0.10314789996E+03  0.00000000000E+00 0. -1.
         -4   -1    0    0    0  501 -0.00000000000E+00 -0.00000000000E+00 -0.39371987430E+02  0.39371987430E+02  0.00000000000E+00 0. -1.
        -13    1    1    2    0    0  0.62142555797E+01  0.33681439409E+02  0.37359777724E+02  0.50683532717E+02  0.10566000000E+00 0.  1.
         13    1    1    2    0    0 -0.30074486649E+02 -0.50418296445E+02  0.19737187361E+02  0.61935830442E+02  0.10566000000E+00 0. -1.
         -4    1    1    2    0  502  0.23860231069E+02  0.16736857035E+02  0.66789474415E+01  0.29900524227E+02  0.00000000000E+00 0. -1.
</event>
<event>
 5    1  0.1196676E-004  0.6357239E+02  0.7818608E-02  0.1244674E+00
         -4   -1    0    0    0  501 -0.00000000000E+00  0.00000000000E+00  0.46059435290E+02  0.46059435290E+02  0.00000000000E+00 0. -1.
         21   -1    0    0  501  502  0.00000000000E+00 -0.00000000000E+00 -0.87159116158E+03  0.87159116158E+03  0.00000000000E+00 0. -1.
        -13    1    1    2    0    0 -0.65924015181E+02 -0.39300115277E+02 -0.59530677866E+02  0.97130775811E+02  0.10566000000E+00 0.  1.
         13    1    1    2    0    0  0.58210850960E+02  0.11393302060E+02 -0.56126426847E+01  0.59580394621E+02  0.10566000000E+00 0. -1.
         -4    1    1    2    0  502  0.77131642212E+01  0.27906813217E+02 -0.76038840574E+03  0.76093942644E+03  0.00000000000E+00 0. -1.
</event>
<event>
 5    1  0.1196676E-004  0.4143893E+03  0.7818608E-02  0.9941644E-01
         21   -1    0    0  501  502  0.00000000000E+00  0.00000000000E+00  0.67654061460E+03  0.67654061460E+03  0.00000000000E+00 0. -1.
         -4   -1    0    0    0  501 -0.00000000000E+00 -0.00000000000E+00 -0.62015261247E+03  0.62015261247E+03  0.00000000000E+00 0. -1.
        -13    1    1    2    0    0 -0.17492296439E+03 -0.52140191596E+01 -0.19949941175E+03  0.26537757237E+03  0.10566000000E+00 0.  1.
         13    1    1    2    0    0  0.40322884769E+03 -0.31148628292E+03 -0.80655213430E+02  0.51587060652E+03  0.10566000000E+00 0. -1.
         -4    1    1    2    0  502 -0.22830588330E+03  0.31670030208E+03  0.33654262731E+03  0.51544504818E+03  0.00000000000E+00 0. -1.
</event>
<event>
 5    1  0.1196676E-004  0.4085111E+03  0.7818608E-02  0.9778864E-01
         21   -1    0    0  501  502  0.00000000000E+00  0.00000000000E+00  0.47178987121E+03  0.47178987121E+03  0.00000000000E+00 0. -1.
         -4   -1    0    0    0  501 -0.00000000000E+00 -0.00000000000E+00 -0.14992859561E+04  0.14992859561E+04  0.00000000000E+00 0. -1.
        -13    1    1    2    0    0  0.44832122979E+03 -0.12061817454E+03 -0.68483164320E+03  0.82736633953E+03  0.10566000000E+00 0.  1.
         13    1    1    2    0    0  0.17698684934E+03 -0.24173429560E+03  0.75198730970E+02  0.30889265904E+03  0.10566000000E+00 0. -1.
         -4    1    1    2    0  502 -0.62530807913E+03  0.36235247014E+03 -0.41786317264E+03  0.83481682870E+03  0.00000000000E+00 0. -1.
</event>
<event>
 5    1  0.1196676E-004  0.4533913E+03  0.7818608E-02  0.9960905E-01
         21   -1    0    0  501  502  0.00000000000E+00  0.00000000000E+00  0.67018219150E+03  0.67018219150E+03  0.00000000000E+00 0.  1.
          4   -1    0    0  502    0 -0.00000000000E+00 -0.00000000000E+00 -0.64380407173E+03  0.64380407173E+03  0.00000000000E+00 0.  1.
        -13    1    1    2    0    0 -0.34480283465E+03  0.16259939423E+03 -0.25400959380E+03  0.45809217707E+03  0.10566000000E+00 0.  1.
         13    1    1    2    0    0 -0.11670301241E+03 -0.45773036906E+02 -0.16279890457E+03  0.20547082155E+03  0.10566000000E+00 0. -1.
          4    1    1    2  501    0  0.46150584707E+03 -0.11682635732E+03  0.44318661814E+03  0.65042326461E+03  0.00000000000E+00 0.  1.
</event>
<event>
 5    1  0.1196676E-004  0.5773829E+03  0.7818608E-02  0.9409305E-01
         -4   -1    0    0    0  501 -0.00000000000E+00  0.00000000000E+00  0.26816230534E+04  0.26816230534E+04  0.00000000000E+00 0. -1.
         21   -1    0    0  501  502  0.00000000000E+00 -0.00000000000E+00 -0.36103467531E+03  0.36103467531E+03  0.00000000000E+00 0. -1.
        -13    1    1    2    0    0 -0.23334979153E+03 -0.63725666654E+03  0.12573066157E+04  0.14287645437E+04  0.10566000000E+00 0.  1.
         13    1    1    2    0    0 -0.28579788401E+03  0.14696415377E+03  0.78370907571E+03  0.84704121477E+03  0.10566000000E+00 0. -1.
         -4    1    1    2    0  502  0.51914767555E+03  0.49029251278E+03  0.27957268666E+03  0.76685197022E+03  0.00000000000E+00 0. -1.
</event>
<event>
 5    1  0.1196676E-004  0.1313247E+03  0.7818608E-02  0.1121143E+00
          4   -1    0    0  502    0 -0.00000000000E+00  0.00000000000E+00  0.29116772172E+02  0.29116772172E+02  0.00000000000E+00 0.  1.
         21   -1    0    0  501  502  0.00000000000E+00 -0.00000000000E+00 -0.76375736683E+03  0.76375736683E+03  0.00000000000E+00 0. -1.
        -13    1    1    2    0    0 -0.13513974922E+03 -0.15345288692E+02 -0.20914136522E+03  0.24947615420E+03  0.10566000000E+00 0.  1.
         13    1    1    2    0    0  0.12029199448E+03  0.20880765363E+02 -0.45110747090E+03  0.46733727838E+03  0.10566000000E+00 0. -1.
          4    1    1    2  501    0  0.14847754740E+02 -0.55354766708E+01 -0.74391758538E+02  0.76060706420E+02  0.00000000000E+00 0.  1.
</event>
<event>
 5    1  0.1196676E-004  0.8991873E+02  0.7818608E-02  0.1182407E+00
         21   -1    0    0  501  502  0.00000000000E+00  0.00000000000E+00  0.37626259968E+02  0.37626259968E+02  0.00000000000E+00 0.  1.
          4   -1    0    0  502    0 -0.00000000000E+00 -0.00000000000E+00 -0.57992245905E+03  0.57992245905E+03  0.00000000000E+00 0.  1.
        -13    1    1    2    0    0  0.11034783307E+03  0.43531643976E+02 -0.25994410902E+03  0.28573169105E+03  0.10566000000E+00 0.  1.
         13    1    1    2    0    0 -0.39998586196E+02 -0.71506267889E+02 -0.21647188674E+03  0.23145868347E+03  0.10566000000E+00 0. -1.
          4    1    1    2  501    0 -0.70349246876E+02  0.27974623914E+02 -0.65880203322E+02  0.10035834449E+03  0.00000000000E+00 0.  1.
</event>
<event>
 5    1  0.1196676E-004  0.1943026E+03  0.7818608E-02  0.1064113E+00
         -4   -1    0    0    0  501 -0.00000000000E+00  0.00000000000E+00  0.26724454028E+03  0.26724454028E+03  0.00000000000E+00 0. -1.
         21   -1    0    0  501  502  0.00000000000E+00 -0.00000000000E+00 -0.27084831256E+03  0.27084831256E+03  0.00000000000E+00 0.  1.
        -13    1    1    2    0    0  0.14085846703E+03  0.12840959313E+03 -0.17442722676E+03  0.25836988977E+03  0.10566000000E+00 0.  1.
         13    1    1    2    0    0 -0.13673230440E+03 -0.13914342913E+03  0.17967099370E+03  0.26521367627E+03  0.10566000000E+00 0. -1.
         -4    1    1    2    0  502 -0.41261626283E+01  0.10733836006E+02 -0.88475392124E+01  0.14509286804E+02  0.00000000000E+00 0. -1.
</event>
<event>
 5    1  0.2459484E-004  0.4666880E+03  0.7818608E-02  0.9997520E-01
          4   -1    0    0  502    0 -0.00000000000E+00  0.00000000000E+00  0.91257534270E+03  0.91257534270E+03  0.00000000000E+00 0.  1.
         21   -1    0    0  501  502  0.00000000000E+00 -0.00000000000E+00 -0.43056257002E+03  0.43056257002E+03  0.00000000000E+00 0.  1.
        -13    1    1    2    0    0 -0.15548073398E+03  0.37207212456E+03  0.29975107975E+03  0.50245661055E+03  0.10566000000E+00 0.  1.
         13    1    1    2    0    0 -0.74874745689E+02  0.69111387702E+02  0.31044390200E+03  0.32673848703E+03  0.10566000000E+00 0. -1.
          4    1    1    2  501    0  0.23035547967E+03 -0.44118351226E+03 -0.12818220907E+03  0.51394281513E+03  0.00000000000E+00 0.  1.
</event>
<event>
 5    1  0.1196676E-004  0.6355317E+02  0.7818608E-02  0.1244731E+00
         -4   -1    0    0    0  501 -0.00000000000E+00  0.00000000000E+00  0.60000857200E+02  0.60000857200E+02  0.00000000000E+00 0. -1.
         21   -1    0    0  501  502  0.00000000000E+00 -0.00000000000E+00 -0.20489942355E+03  0.20489942355E+03  0.00000000000E+00 0. -1.
        -13    1    1    2    0    0  0.56176362669E+02 -0.37313268941E+02 -0.32398160031E+02  0.74817883552E+02  0.10566000000E+00 0.  1.
         13    1    1    2    0    0 -0.55597513204E+02  0.27276217259E+02  0.13746816120E+02  0.63435491800E+02  0.10566000000E+00 0. -1.
         -4    1    1    2    0  502 -0.57884946511E+00  0.10037051681E+02 -0.12624722244E+03  0.12664690540E+03  0.00000000000E+00 0. -1.
</event>
<event>
 5    1  0.1196676E-004  0.4105846E+03  0.7818608E-02  0.9999557E-01
         -4   -1    0    0    0  501 -0.00000000000E+00  0.00000000000E+00  0.16110050657E+04  0.16110050657E+04  0.00000000000E+00 0. -1.
         21   -1    0    0  501  502  0.00000000000E+00 -0.00000000000E+00 -0.10270825641E+04  0.10270825641E+04  0.00000000000E+00 0.  1.
        -13    1    1    2    0    0 -0.73953047436E+03 -0.35044424169E+03  0.98092070592E+03  0.12774669982E+04  0.10566000000E+00 0.  1.
         13    1    1    2    0    0  0.17256001817E+03 -0.29316972283E+02  0.32377263062E+03  0.36805593628E+03  0.10566000000E+00 0. -1.
         -4    1    1    2    0  502  0.56697045619E+03  0.37976121397E+03 -0.72077083498E+03  0.99256469531E+03  0.00000000000E+00 0. -1.
</event>
<event>
 5    1  0.1196676E-004  0.4865403E+03  0.7818608E-02  0.9507971E-01
          4   -1    0    0  502    0 -0.00000000000E+00  0.00000000000E+00  0.10890456466E+04  0.10890456466E+04  0.00000000000E+00 0.  1.
         21   -1    0    0  501  502  0.00000000000E+00 -0.00000000000E+00 -0.49135704115E+03  0.49135704115E+03  0.00000000000E+00 0.  1.
        -13    1    1    2    0    0  0.52159461492E+02 -0.71639178774E+03  0.25136500352E+03  0.76100077472E+03  0.10566000000E+00 0.  1.
         13    1    1    2    0    0 -0.11406681127E+03  0.37136758101E+03  0.22216257779E+03  0.44752803241E+03  0.10566000000E+00 0. -1.
          4    1    1    2  501    0  0.61907349777E+02  0.34502420673E+03  0.12416102417E+03  0.37187388065E+03  0.00000000000E+00 0.  1.
</event>
<event>
 5    1  0.1196676E-004  0.1448667E+03  0.7818608E-02  0.1106287E+00
         -4   -1    0    0    0  501 -0.00000000000E+00  0.00000000000E+00  0.47970769523E+02  0.47970769523E+02  0.00000000000E+00 0. -1.
         21   -1    0    0  501  502  0.00000000000E+00 -0.00000000000E+00 -0.80284948143E+03  0.80284948143E+03  0.00000000000E+00 0.  1.
        -13    1    1    2    0    0 -0.31099663799E+02  0.14973650035E+03 -0.57767726085E+03  0.59757780873E+03  0.10566000000E+00 0.  1.
         13    1    1    2    0    0  0.24987188127E+02 -0.14081500089E+03 -0.98150899698E+02  0.17345556872E+03  0.10566000000E+00 0. -1.
         -4    1    1    2    0  502  0.61124756722E+01 -0.89214994631E+01 -0.79050551360E+02  0.79786873493E+02  0.00000000000E+00 0. -1.
</event>
<event>
 5    1  0.1196676E-004  0.5061864E+03  0.7818608E-02  0.9523351E-01
         21   -1    0    0  501  502  0.00000000000E+00  0.00000000000E+00  0.47393766491E+03  0.47393766491E+03  0.00000000000E+00 0.  1.
          4   -1    0    0  502    0 -0.00000000000E+00 -0.00000000000E+00 -0.12013456102E+04  0.12013456102E+04  0.00000000000E+00 0.  1.
        -13    1    1    2    0    0  0.28524174114E+03  0.27463259443E+03 -0.29509114238E+03  0.49382659536E+03  0.10566000000E+00 0.  1.
         13    1    1    2    0    0 -0.14802668853E+03  0.38090117698E+03 -0.27776048969E+03  0.49411386131E+03  0.10566000000E+00 0. -1.
          4    1    1    2  501    0 -0.13721505260E+03 -0.65553377142E+03 -0.15455631325E+03  0.68734281847E+03  0.00000000000E+00 0.  1.
</event>
<event>
 5    1  0.1196676E-004  0.8248650E+02  0.7818608E-02  0.1269812E+00
         -4   -1    0    0    0  501 -0.00000000000E+00  0.00000000000E+00  0.10777881383E+03  0.10777881383E+03  0.00000000000E+00 0. -1.
         21   -1    0    0  501  502  0.00000000000E+00 -0.00000000000E+00 -0.90651432397E+02  0.90651432397E+02  0.00000000000E+00 0. -1.
        -13    1    1    2    0    0  0.98420124370E+01  0.14198993367E+02 -0.43249610095E+01  0.17809915026E+02  0.10566000000E+00 0.  1.
         13    1    1    2    0    0 -0.66717349167E+02  0.46880910854E+02  0.46004485297E+02  0.93623972965E+02  0.10566000000E+00 0. -1.
         -4    1    1    2    0  502  0.56875336730E+02 -0.61079904221E+02 -0.24552142853E+02  0.86996358237E+02  0.00000000000E+00 0. -1.
</event>
<event>
 5    1  0.1196676E-004  0.7512158E+03  0.7818608E-02  0.9051818E-01
         -4   -1    0    0    0  501 -0.00000000000E+00  0.00000000000E+00  0.43879855621E+03  0.43879855621E+03  0.00000000000E+00 0. -1.
         21   -1    0    0  501  502  0.00000000000E+00 -0.00000000000E+00 -0.25291973813E+04  0.25291973813E+04  0.00000000000E+00 0. -1.
        -13    1    1    2    0    0  0.32120315916E+03  0.64576874195E+03 -0.26136555888E+03  0.76713799546E+03  0.10566000000E+00 0.  1.
         13    1    1    2    0    0 -0.62967397389E+03 -0.58105333439E+03 -0.10170692506E+04  0.13298654678E+04  0.10566000000E+00 0. -1.
         -4    1    1    2    0  502  0.30847081473E+03 -0.64715407560E+02 -0.81196401559E+03  0.87099247421E+03  0.00000000000E+00 0. -1.
</event>
<event>
 5    1  0.1196676E-004  0.4731836E+03  0.7818608E-02  0.9857523E-01
         -4   -1    0    0    0  501 -0.00000000000E+00  0.00000000000E+00  0.16517870915E+04  0.16517870915E+04  0.00000000000E+00 0. -1.
         21   -1    0    0  501  502  0.00000000000E+00 -0.00000000000E+00 -0.28644121343E+03  0.28644121343E+03  0.00000000000E+00 0. -1.
        -13    1    1    2    0    0 -0.15006583057E+03  0.41664093870E+02  0.78186653191E+03  0.79722702859E+03  0.10566000000E+00 0.  1.
         13    1    1    2    0    0  0.13873772384E+03 -0.48290043502E+03  0.15487905211E+03  0.52576469842E+03  0.10566000000E+00 0. -1.
         -4    1    1    2    0  502  0.11328106731E+02  0.44123634115E+03  0.42860029403E+03  0.61523657791E+03  0.00000000000E+00 0. -1.
</event>
<event>
 5    1  0.1196676E-004  0.3328540E+03  0.7818608E-02  0.9974928E-01
         -4   -1    0    0    0  501 -0.00000000000E+00  0.00000000000E+00  0.18957748636E+04  0.18957748636E+04  0.00000000000E+00 0. -1.
         21   -1    0    0  501  502  0.00000000000E+00 -0.00000000000E+00 -0.26008839111E+03  0.26008839111E+03  0.00000000000E+00 0.  1.
        -13    1    1    2    0    0  0.20153028236E+03  0.22558681099E+03  0.15085850935E+03  0.33802687025E+03  0.10566000000E+00 0.  1.
         13    1    1    2    0    0 -0.82719548798E+01 -0.48462295302E+03  0.14031273304E+04  0.14844844722E+04  0.10566000000E+00 0. -1.
         -4    1    1    2    0  502 -0.19325832748E+03  0.25903614203E+03  0.81700632784E+02  0.33335191228E+03  0.00000000000E+00 0. -1.
</event>
<event>
 5    1  0.1196676E-004  0.4639311E+03  0.7818608E-02  0.9788562E-01
         21   -1    0    0  501  502  0.00000000000E+00  0.00000000000E+00  0.34002889641E+03  0.34002889641E+03  0.00000000000E+00 0. -1.
         -4   -1    0    0    0  501 -0.00000000000E+00 -0.00000000000E+00 -0.11398644322E+04  0.11398644322E+04  0.00000000000E+00 0. -1.
        -13    1    1    2    0    0  0.68507444708E+02  0.19733096983E+03 -0.31678855591E+03  0.37945722019E+03  0.10566000000E+00 0.  1.
         13    1    1    2    0    0  0.23789345729E+03 -0.49485554606E+03 -0.35781671742E+03  0.65536869235E+03  0.10566000000E+00 0. -1.
         -4    1    1    2    0  502 -0.30640090200E+03  0.29752457623E+03 -0.12523026245E+03  0.44506741606E+03  0.00000000000E+00 0. -1.
</event>
<event>
 5    1  0.1196676E-004  0.2245188E+03  0.7818608E-02  0.1044514E+00
          4   -1    0    0  502    0 -0.00000000000E+00  0.00000000000E+00  0.23580887008E+04  0.23580887008E+04  0.00000000000E+00 0.  1.
         21   -1    0    0  501  502  0.00000000000E+00 -0.00000000000E+00 -0.23397196175E+02  0.23397196175E+02  0.00000000000E+00 0. -1.
        -13    1    1    2    0    0  0.13921057264E+03  0.17353222885E+03  0.99825431150E+03  0.10227437116E+04  0.10566000000E+00 0.  1.
         13    1    1    2    0    0 -0.13211305174E+03 -0.18370403976E+03  0.13116526150E+04  0.13310272823E+04  0.10566000000E+00 0. -1.
          4    1    1    2  501    0 -0.70975208964E+01  0.10171810912E+02  0.24784578144E+02  0.27714903101E+02  0.00000000000E+00 0.  1.
</event>
<event>
 5    1  0.1196676E-004  0.1963848E+02  0.7818608E-02  0.1514946E+00
          4   -1    0    0  502    0 -0.00000000000E+00  0.00000000000E+00  0.15536208474E+02  0.15536208474E+02  0.00000000000E+00 0.  1.
         21   -1    0    0  501  502  0.00000000000E+00 -0.00000000000E+00 -0.63415169760E+02  0.63415169760E+02  0.00000000000E+00 0.  1.
        -13    1    1    2    0    0  0.84780743994E+01 -0.21936837008E+02  0.15756949218E+01  0.23571095477E+02  0.10566000000E+00 0.  1.
         13    1    1    2    0    0 -0.59657855903E+01  0.11214960356E+02 -0.17825900989E+02  0.21889263204E+02  0.10566000000E+00 0. -1.
          4    1    1    2  501    0 -0.25122888090E+01  0.10721876652E+02 -0.31628755219E+02  0.33491019553E+02  0.00000000000E+00 0.  1.
</event>
<event>
 5    1  0.1196676E-004  0.1277630E+03  0.7818608E-02  0.1125376E+00
          4   -1    0    0  502    0 -0.00000000000E+00  0.00000000000E+00  0.16120262016E+04  0.16120262016E+04  0.00000000000E+00 0.  1.
         21   -1    0    0  501  502  0.00000000000E+00 -0.00000000000E+00 -0.25164942401E+03  0.25164942401E+03  0.00000000000E+00 0.  1.
        -13    1    1    2    0    0 -0.14984582967E+03 -0.11671833189E+03 -0.20671324062E+03  0.28072640894E+03  0.10566000000E+00 0.  1.
         13    1    1    2    0    0  0.10987200703E+03  0.61868751953E+02  0.58096358477E+03  0.59448994810E+03  0.10566000000E+00 0. -1.
          4    1    1    2  501    0  0.39973822641E+02  0.54849579935E+02  0.98612643340E+03  0.98845926854E+03  0.00000000000E+00 0.  1.
</event>
<event>
 5    1  0.1196676E-004  0.3722044E+03  0.7818608E-02  0.1009688E+00
         -4   -1    0    0    0  501 -0.00000000000E+00  0.00000000000E+00  0.19031663353E+03  0.19031663353E+03  0.00000000000E+00 0. -1.
         21   -1    0    0  501  502  0.00000000000E+00 -0.00000000000E+00 -0.19521575496E+04  0.19521575496E+04  0.00000000000E+00 0. -1.
        -13    1    1    2    0    0  0.92935635679E+01  0.14517956794E+03 -0.43927703788E+02  0.15196424446E+03  0.10566000000E+00 0.  1.
         13    1    1    2    0    0  0.28918120045E+03 -0.34520172443E+03 -0.33386589024E+03  0.56058580170E+03  0.10566000000E+00 0. -1.
         -4    1    1    2    0  502 -0.29847476402E+03  0.20002215649E+03 -0.13840473221E+04  0.14299241370E+04  0.00000000000E+00 0. -1.
</event>
<event>
 5    1  0.1196676E-004  0.1902750E+03  0.7818608E-02  0.1067015E+00
         21   -1    0    0  501  502  0.00000000000E+00  0.00000000000E+00  0.83275703433E+02  0.83275703433E+02  0.00000000000E+00 0.  1.
          4   -1    0    0  502    0 -0.00000000000E+00 -0.00000000000E+00 -0.12308990877E+04  0.12308990877E+04  0.00000000000E+00 0.  1.
        -13    1    1    2    0    0 -0.13048982507E+03  0.15687507359E+03 -0.85935698672E+03  0.88325071466E+03  0.10566000000E+00 0.  1.
         13    1    1    2    0    0  0.11849051858E+03 -0.11866215710E+03 -0.33179986724E+03  0.37176857531E+03  0.10566000000E+00 0. -1.
          4    1    1    2  501    0  0.11999306483E+02 -0.38212916481E+02  0.43533469655E+02  0.59155501200E+02  0.00000000000E+00 0.  1.
</event>
<event>
 5    1  0.1196676E-004  0.5894971E+02  0.7818608E-02  0.1259108E+00
         21   -1    0    0  501  502  0.00000000000E+00  0.00000000000E+00  0.44206361662E+03  0.44206361662E+03  0.00000000000E+00 0.  1.
          4   -1    0    0  502    0 -0.00000000000E+00 -0.00000000000E+00 -0.23249855072E+02  0.23249855072E+02  0.00000000000E+00 0.  1.
        -13    1    1    2    0    0 -0.41745270970E+02 -0.37550802123E+02  0.55734141115E+02  0.79114069788E+02  0.10566000000E+00 0.  1.
         13    1    1    2    0    0  0.57546482526E+02  0.28163876849E+02  0.79858561599E+02  0.10238262858E+03  0.10566000000E+00 0. -1.
          4    1    1    2  501    0 -0.15801211557E+02  0.93869252741E+01  0.28322105884E+03  0.28381677333E+03  0.00000000000E+00 0.  1.
</event>
<event>
 5    1  0.1196676E-004  0.5087102E+03  0.7818608E-02  0.9816122E-01
         21   -1    0    0  501  502  0.00000000000E+00  0.00000000000E+00  0.16543670664E+03  0.16543670664E+03  0.00000000000E+00 0. -1.
         -4   -1    0    0    0  501 -0.00000000000E+00 -0.00000000000E+00 -0.22890794100E+04  0.22890794100E+04  0.00000000000E+00 0. -1.
        -13    1    1    2    0    0 -0.57380690331E+02  0.13230902631E+03 -0.59574085498E+03  0.61294812140E+03  0.10566000000E+00 0.  1.
         13    1    1    2    0    0  0.34487753165E+03  0.33366738007E+03 -0.74642870830E+03  0.88737267261E+03  0.10566000000E+00 0. -1.
         -4    1    1    2    0  502 -0.28749684132E+03 -0.46597640638E+03 -0.78147314006E+03  0.95419532261E+03  0.00000000000E+00 0. -1.
</event>
<event>
 5    1  0.1196676E-004  0.8818211E+02  0.7818608E-02  0.1185744E+00
         -4   -1    0    0    0  501 -0.00000000000E+00  0.00000000000E+00  0.49613715726E+02  0.49613715726E+02  0.00000000000E+00 0. -1.
         21   -1    0    0  501  502  0.00000000000E+00 -0.00000000000E+00 -0.79982444704E+03  0.79982444704E+03  0.00000000000E+00 0.  1.
        -13    1    1    2    0    0 -0.69699147837E+02  0.90491119439E+02 -0.58042005788E+03  0.59155225353E+03  0.10566000000E+00 0.  1.
         13    1    1    2    0    0  0.30641693322E+01 -0.87536889545E+02 -0.14375734600E+02  0.88762430534E+02  0.10566000000E+00 0. -1.
         -4    1    1    2    0  502  0.66634978505E+02 -0.29542298939E+01 -0.15541493883E+03  0.16912347870E+03  0.00000000000E+00 0. -1.
</event>
<event>
 5    1  0.1196676E-004  0.4953989E+02  0.7818608E-02  0.1293673E+00
         21   -1    0    0  501  502  0.00000000000E+00  0.00000000000E+00  0.15978974830E+03  0.15978974830E+03  0.00000000000E+00 0.  1.
         -4   -1    0    0    0  501 -0.00000000000E+00 -0.00000000000E+00 -0.28505603849E+02  0.28505603849E+02  0.00000000000E+00 0. -1.
        -13    1    1    2    0    0 -0.60940272423E+02 -0.79990343493E+01  0.70367229246E+02  0.93430506096E+02  0.10566000000E+00 0.  1.
         13    1    1    2    0    0  0.44738973503E+02 -0.39993107357E+01  0.19833453779E+02  0.49101398038E+02  0.10566000000E+00 0. -1.
         -4    1    1    2    0  502  0.16201298921E+02  0.11998345085E+02  0.41083461426E+02  0.45763448015E+02  0.00000000000E+00 0. -1.
</event>
<event>
 5    1  0.1196676E-004  0.3193762E+03  0.7818608E-02  0.1037716E+00
         21   -1    0    0  501  502  0.00000000000E+00  0.00000000000E+00  0.37956024605E+03  0.37956024605E+03  0.00000000000E+00 0.  1.
          4   -1    0    0  502    0 -0.00000000000E+00 -0.00000000000E+00 -0.48612196289E+03  0.48612196289E+03  0.00000000000E+00 0.  1.
        -13    1    1    2    0    0 -0.25296539356E+03  0.10915722329E+03 -0.21019786490E+03  0.34653995918E+03  0.10566000000E+00 0.  1.
         13    1    1    2    0    0 -0.79388858226E+02 -0.53618733321E+02 -0.89204558229E+02  0.13090081645E+03  0.10566000000E+00 0. -1.
          4    1    1    2  501    0  0.33235425179E+03 -0.55538489966E+02  0.19284070629E+03  0.38824143332E+03  0.00000000000E+00 0.  1.
</event>
<event>
 5    1  0.1196676E-004  0.2739199E+03  0.7818608E-02  0.1018692E+00
         21   -1    0    0  501  502  0.00000000000E+00  0.00000000000E+00  0.26930000343E+03  0.26930000343E+03  0.00000000000E+00 0.  1.
          4   -1    0    0  502    0 -0.00000000000E+00 -0.00000000000E+00 -0.18683505490E+04  0.18683505490E+04  0.00000000000E+00 0.  1.
        -13    1    1    2    0    0  0.12748033610E+03  0.24685677974E+03 -0.15944522042E+04  0.16184768607E+04  0.10566000000E+00 0.  1.
         13    1    1    2    0    0 -0.47040241783E+02 -0.25742116290E+03 -0.18560027475E+03  0.32082068606E+03  0.10566000000E+00 0. -1.
          4    1    1    2  501    0 -0.80440094319E+02  0.10564383163E+02  0.18100193342E+03  0.19835300569E+03  0.00000000000E+00 0.  1.
</event>
<event>
 5    1  0.1196676E-004  0.4603392E+03  0.7818608E-02  0.9827519E-01
         -4   -1    0    0    0  501 -0.00000000000E+00  0.00000000000E+00  0.13458944415E+04  0.13458944415E+04  0.00000000000E+00 0. -1.
         21   -1    0    0  501  502  0.00000000000E+00 -0.00000000000E+00 -0.27822497285E+03  0.27822497285E+03  0.00000000000E+00 0. -1.
        -13    1    1    2    0    0 -0.17885124237E+03 -0.55371127717E+02  0.22098736980E+03  0.28963625025E+03  0.10566000000E+00 0.  1.
         13    1    1    2    0    0 -0.26671005054E+03 -0.31620850227E+03  0.18120861753E+03  0.45161780545E+03  0.10566000000E+00 0. -1.
         -4    1    1    2    0  502  0.44556129292E+03  0.37157962999E+03  0.66547348135E+03  0.88286535867E+03  0.00000000000E+00 0. -1.
</event>
<event>
 5    1  0.1196676E-004  0.4632885E+03  0.7818608E-02  0.9798942E-01
          4   -1    0    0  502    0 -0.00000000000E+00  0.00000000000E+00  0.26408136195E+03  0.26408136195E+03  0.00000000000E+00 0.  1.
         21   -1    0    0  501  502  0.00000000000E+00 -0.00000000000E+00 -0.17624591484E+04  0.17624591484E+04  0.00000000000E+00 0.  1.
        -13    1    1    2    0    0 -0.42748069821E+03 -0.42088305943E+03 -0.36299325227E+03  0.70117502053E+03  0.10566000000E+00 0.  1.
         13    1    1    2    0    0  0.13832806432E+03  0.14781317673E+03 -0.72964854106E+03  0.75721225111E+03  0.10566000000E+00 0. -1.
          4    1    1    2  501    0  0.28915263390E+03  0.27306988270E+03 -0.40573599308E+03  0.56815323866E+03  0.00000000000E+00 0.  1.
</event>
<event>
 5    1  0.1196676E-004  0.2262036E+03  0.7818608E-02  0.1046225E+00
          4   -1    0    0  502    0 -0.00000000000E+00  0.00000000000E+00  0.16542827601E+04  0.16542827601E+04  0.00000000000E+00 0.  1.
         21   -1    0    0  501  502  0.00000000000E+00 -0.00000000000E+00 -0.31818478541E+03  0.31818478541E+03  0.00000000000E+00 0.  1.
        -13    1    1    2    0    0 -0.11301310558E+03 -0.15009537664E+03  0.95768731982E+03  0.97594343987E+03  0.10566000000E+00 0.  1.
         13    1    1    2    0    0  0.40582736626E+02  0.36438932170E+03  0.58485516567E+03  0.69027683740E+03  0.10566000000E+00 0. -1.
          4    1    1    2  501    0  0.72430368958E+02 -0.21429394506E+03 -0.20644451082E+03  0.30624726821E+03  0.00000000000E+00 0.  1.
</event>
<event>
 5    1  0.1196676E-004  0.3899513E+02  0.7818608E-02  0.1344467E+00
          4   -1    0    0  502    0 -0.00000000000E+00  0.00000000000E+00  0.41981677479E+02  0.41981677479E+02  0.00000000000E+00 0.  1.
         21   -1    0    0  501  502  0.00000000000E+00 -0.00000000000E+00 -0.23894626513E+03  0.23894626513E+03  0.00000000000E+00 0. -1.
        -13    1    1    2    0    0 -0.32716446930E+02 -0.19516472134E+02  0.26445238425E+02  0.46374781764E+02  0.10566000000E+00 0.  1.
         13    1    1    2    0    0  0.47648007848E+02  0.19549233547E+02 -0.12784878982E+03  0.13783261372E+03  0.10566000000E+00 0. -1.
          4    1    1    2  501    0 -0.14931560918E+02 -0.32761412825E-01 -0.95561036255E+02  0.96720547119E+02  0.00000000000E+00 0.  1.
</event>
<event>
 5    1  0.1196676E-004  0.4399426E+03  0.7818608E-02  0.9718117E-01
          4   -1    0    0  502    0 -0.00000000000E+00  0.00000000000E+00  0.10464380832E+04  0.10464380832E+04  0.00000000000E+00 0.  1.
         21   -1    0    0  501  502  0.00000000000E+00 -0.00000000000E+00 -0.46128020309E+03  0.46128020309E+03  0.00000000000E+00 0.  1.
        -13    1    1    2    0    0  0.25171021432E+03  0.21658433432E+03  0.44453265664E+03  0.55486583950E+03  0.10566000000E+00 0.  1.
         13    1    1    2    0    0 -0.15018604638E+03  0.27376075973E+03  0.29427241895E+03  0.42906534445E+03  0.10566000000E+00 0. -1.
          4    1    1    2  501    0 -0.10152416795E+03 -0.49034509405E+03 -0.15364719545E+03  0.52378710236E+03  0.00000000000E+00 0.  1.
</event>
<event>
 5    1  0.1196676E-004  0.4736572E+03  0.7818608E-02  0.9657792E-01
         21   -1    0    0  501  502  0.00000000000E+00  0.00000000000E+00  0.34401835520E+03  0.34401835520E+03  0.00000000000E+00 0. -1.
         -4   -1    0    0    0  501 -0.00000000000E+00 -0.00000000000E+00 -0.13492974540E+04  0.13492974540E+04  0.00000000000E+00 0. -1.
        -13    1    1    2    0    0  0.30455054096E+03 -0.51457899196E+02 -0.35610512837E+03  0.47139136712E+03  0.10566000000E+00 0.  1.
         13    1    1    2    0    0  0.16062955540E+03 -0.27918066706E+03 -0.55755521463E+03  0.64390335257E+03  0.10566000000E+00 0. -1.
         -4    1    1    2    0  502 -0.46518009636E+03  0.33063856625E+03 -0.91618755855E+02  0.57802108955E+03  0.00000000000E+00 0. -1.
</event>
<event>
 5    1  0.1196676E-004  0.4067219E+03  0.7818608E-02  0.1016049E+00
         21   -1    0    0  501  502  0.00000000000E+00  0.00000000000E+00  0.65293789384E+03  0.65293789384E+03  0.00000000000E+00 0. -1.
         -4   -1    0    0    0  501 -0.00000000000E+00 -0.00000000000E+00 -0.32120714794E+03  0.32120714794E+03  0.00000000000E+00 0. -1.
        -13    1    1    2    0    0  0.82878706730E+02 -0.37539027806E+02  0.26525982955E+01  0.91022558081E+02  0.10566000000E+00 0.  1.
         13    1    1    2    0    0 -0.20046050770E+03  0.39491966115E+03  0.19182985543E+03  0.48264340719E+03  0.10566000000E+00 0. -1.
         -4    1    1    2    0  502  0.11758180097E+03 -0.35738063334E+03  0.13724829217E+03  0.40047907650E+03  0.00000000000E+00 0. -1.
</event>
<event>
 5    1  0.1196676E-004  0.1495004E+03  0.7818608E-02  0.1101605E+00
          4   -1    0    0  502    0 -0.00000000000E+00  0.00000000000E+00  0.11284737675E+04  0.11284737675E+04  0.00000000000E+00 0.  1.
         21   -1    0    0  501  502  0.00000000000E+00 -0.00000000000E+00 -0.41639488031E+02  0.41639488031E+02  0.00000000000E+00 0. -1.
        -13    1    1    2    0    0 -0.13537412977E+03  0.49297745818E+02  0.62816762156E+03  0.64447730348E+03  0.10566000000E+00 0.  1.
         13    1    1    2    0    0  0.14529398318E+03 -0.62509534178E+02  0.47605911567E+03  0.50164736239E+03  0.10566000000E+00 0. -1.
          4    1    1    2  501    0 -0.99198534067E+01  0.13211788360E+02 -0.17392457811E+02  0.23988589621E+02  0.00000000000E+00 0.  1.
</event>
<event>
 5    1  0.1196676E-004  0.9649887E+02  0.7818608E-02  0.1170482E+00
         -4   -1    0    0    0  501 -0.00000000000E+00  0.00000000000E+00  0.18396185812E+03  0.18396185812E+03  0.00000000000E+00 0. -1.
         21   -1    0    0  501  502  0.00000000000E+00 -0.00000000000E+00 -0.18886245413E+03  0.18886245413E+03  0.00000000000E+00 0.  1.
        -13    1    1    2    0    0 -0.19721423396E+02  0.10447689029E+03  0.36270313407E+02  0.11233833693E+03  0.10566000000E+00 0.  1.
         13    1    1    2    0    0  0.49388122740E+01 -0.91669957570E+02  0.89588020498E+02  0.12827235699E+03  0.10566000000E+00 0. -1.
         -4    1    1    2    0  502  0.14782611122E+02 -0.12806932719E+02 -0.13075892992E+03  0.13221361832E+03  0.00000000000E+00 0. -1.
</event>
<event>
 5    1  0.1196676E-004  0.9151046E+02  0.7818608E-02  0.1179421E+00
          4   -1    0    0  502    0 -0.00000000000E+00  0.00000000000E+00  0.40824351720E+03  0.40824351720E+03  0.00000000000E+00 0.  1.
         21   -1    0    0  501  502  0.00000000000E+00 -0.00000000000E+00 -0.15406082078E+03  0.15406082078E+03  0.00000000000E+00 0.  1.
        -13    1    1    2    0    0  0.19813072841E+01 -0.93532860530E+02  0.37258370603E+03  0.38414964629E+03  0.10566000000E+00 0.  1.
         13    1    1    2    0    0  0.15458629004E+02  0.73813941786E+02 -0.22491134531E+02  0.78697709682E+02  0.10566000000E+00 0. -1.
          4    1    1    2  501    0 -0.17439936288E+02  0.19718918744E+02 -0.95909875076E+02  0.99456982014E+02  0.00000000000E+00 0.  1.
</event>
<event>
 5    1  0.1196676E-004  0.2378684E+02  0.7818608E-02  0.1463115E+00
         21   -1    0    0  501  502  0.00000000000E+00  0.00000000000E+00  0.66299766031E+02  0.66299766031E+02  0.00000000000E+00 0.  1.
         -4   -1    0    0    0  501 -0.00000000000E+00 -0.00000000000E+00 -0.81603905329E+02  0.81603905329E+02  0.00000000000E+00 0. -1.
        -13    1    1    2    0    0 -0.23690630399E+02  0.84693761754E+01  0.46533737057E+02  0.52899680056E+02  0.10566000000E+00 0.  1.
         13    1    1    2    0    0  0.12516423009E+02 -0.20409945965E+02 -0.71914392452E+02  0.75795235635E+02  0.10566000000E+00 0. -1.
         -4    1    1    2    0  502  0.11174207390E+02  0.11940569789E+02  0.10076516098E+02  0.19208755669E+02  0.00000000000E+00 0. -1.
</event>
<event>
 5    1  0.1196676E-004  0.8370913E+02  0.7818608E-02  0.1194745E+00
         -4   -1    0    0    0  501 -0.00000000000E+00  0.00000000000E+00  0.23974002536E+03  0.23974002536E+03  0.00000000000E+00 0. -1.
         21   -1    0    0  501  502  0.00000000000E+00 -0.00000000000E+00 -0.13460504314E+03  0.13460504314E+03  0.00000000000E+00 0. -1.
        -13    1    1    2    0    0 -0.11500785535E+02  0.56578479818E+02 -0.56328287344E+02  0.80661512294E+02  0.10566000000E+00 0.  1.
         13    1    1    2    0    0 -0.12001042782E+02 -0.86531753650E+02  0.21264699809E+03  0.22989242349E+03  0.10566000000E+00 0. -1.
         -4    1    1    2    0  502  0.23501828316E+02  0.29953273832E+02 -0.51183728523E+02  0.63791132714E+02  0.00000000000E+00 0. -1.
</event>
<event>
 5    1  0.1196676E-004  0.2488917E+03  0.7818608E-02  0.1030969E+00
         21   -1    0    0  501  502  0.00000000000E+00  0.00000000000E+00  0.31470276775E+03  0.31470276775E+03  0.00000000000E+00 0. -1.
          4   -1    0    0  502    0 -0.00000000000E+00 -0.00000000000E+00 -0.37687915166E+03  0.37687915166E+03  0.00000000000E+00 0.  1.
        -13    1    1    2    0    0 -0.21679856830E+03 -0.10336528705E+03 -0.18140082446E+03  0.30098550141E+03  0.10566000000E+00 0.  1.
         13    1    1    2    0    0  0.28109141187E+03  0.45462077580E+02  0.81275195500E+02  0.29611627934E+03  0.10566000000E+00 0. -1.
          4    1    1    2  501    0 -0.64292843568E+02  0.57903209465E+02  0.37949245038E+02  0.94480138651E+02  0.00000000000E+00 0.  1.
</event>
<event>
 5    1  0.1196676E-004  0.3043960E+03  0.7818608E-02  0.1029416E+00
         -4   -1    0    0    0  501 -0.00000000000E+00  0.00000000000E+00  0.15767905215E+04  0.15767905215E+04  0.00000000000E+00 0. -1.
         21   -1    0    0  501  502  0.00000000000E+00 -0.00000000000E+00 -0.26925602268E+03  0.26925602268E+03  0.00000000000E+00 0. -1.
        -13    1    1    2    0    0  0.91289095469E+02  0.10973583883E+03  0.52389365008E+03  0.54299191617E+03  0.10566000000E+00 0.  1.
         13    1    1    2    0    0 -0.34988589755E+03 -0.24460086836E+03  0.89441504697E+03  0.99107417155E+03  0.10566000000E+00 0. -1.
         -4    1    1    2    0  502  0.25859680208E+03  0.13486502954E+03 -0.11077419820E+03  0.31198045648E+03  0.00000000000E+00 0. -1.
</event>
<event>
 5    1  0.1196676E-004  0.1477778E+03  0.7818608E-02  0.1173900E+00
         -4   -1    0    0    0  501 -0.00000000000E+00  0.00000000000E+00  0.17800292439E+03  0.17800292439E+03  0.00000000000E+00 0. -1.
         21   -1    0    0  501  502  0.00000000000E+00 -0.00000000000E+00 -0.17501218636E+03  0.17501218636E+03  0.00000000000E+00 0. -1.
        -13    1    1    2    0    0  0.13973406608E+02 -0.20445606177E+02  0.33929088345E+01  0.24996037657E+02  0.10566000000E+00 0.  1.
         13    1    1    2    0    0 -0.15614083973E+03 -0.71954402722E+01  0.64778385130E+02  0.16919806895E+03  0.10566000000E+00 0. -1.
         -4    1    1    2    0  502  0.14216743312E+03  0.27641046449E+02 -0.65180555928E+02  0.15882100415E+03  0.00000000000E+00 0. -1.
</event>
<event>
 5    1  0.1196676E-004  0.6064933E+02  0.7818608E-02  0.1253634E+00
         -4   -1    0    0    0  501 -0.00000000000E+00  0.00000000000E+00  0.11139825637E+03  0.11139825637E+03  0.00000000000E+00 0. -1.
         21   -1    0    0  501  502  0.00000000000E+00 -0.00000000000E+00 -0.54714815201E+03  0.54714815201E+03  0.00000000000E+00 0. -1.
        -13    1    1    2    0    0  0.16075900448E+02 -0.36061634244E+02 -0.54270365284E+02  0.67113037121E+02  0.10566000000E+00 0.  1.
         13    1    1    2    0    0 -0.51272854084E+02  0.39751328153E+02  0.94232646135E+02  0.11440662751E+03  0.10566000000E+00 0. -1.
         -4    1    1    2    0  502  0.35196953636E+02 -0.36896939089E+01 -0.47571217649E+03  0.47702674375E+03  0.00000000000E+00 0. -1.
</event>
<event>
 5    1  0.1196676E-004  0.5295749E+02  0.7818608E-02  0.1280194E+00
          4   -1    0    0  502    0 -0.00000000000E+00  0.00000000000E+00  0.24674617207E+02  0.24674617207E+02  0.00000000000E+00 0.  1.
         21   -1    0    0  501  502  0.00000000000E+00 -0.00000000000E+00 -0.32413268407E+03  0.32413268407E+03  0.00000000000E+00 0. -1.
        -13    1    1    2    0    0 -0.44045770580E+02 -0.37065013121E+02 -0.17765947167E+02  0.60245208494E+02  0.10566000000E+00 0.  1.
         13    1    1    2    0    0  0.34065860874E+02  0.13875473467E+02 -0.14762066989E+03  0.15213443063E+03  0.10566000000E+00 0. -1.
          4    1    1    2  501    0  0.99799097061E+01  0.23189539654E+02 -0.13407144981E+03  0.13642766216E+03  0.00000000000E+00 0.  1.
</event>
<event>
 5    1  0.1196676E-004  0.9549981E+03  0.7818608E-02  0.8818063E-01
         21   -1    0    0  501  502  0.00000000000E+00  0.00000000000E+00  0.11748829533E+04  0.11748829533E+04  0.00000000000E+00 0. -1.
         -4   -1    0    0    0  501 -0.00000000000E+00 -0.00000000000E+00 -0.13059619480E+04  0.13059619480E+04  0.00000000000E+00 0. -1.
        -13    1    1    2    0    0 -0.85452721063E+03 -0.45257770060E+03 -0.43287402585E+03  0.10594447896E+04  0.10566000000E+00 0.  1.
         13    1    1    2    0    0  0.87631251872E+03  0.34788003616E+03 -0.15214354635E+03  0.95503498359E+03  0.10566000000E+00 0. -1.
         -4    1    1    2    0  502 -0.21785308096E+02  0.10469766444E+03  0.45393857745E+03  0.46636512807E+03  0.00000000000E+00 0. -1.
</event>
<event>
 5    1  0.1196676E-004  0.4967195E+03  0.7818608E-02  0.9609620E-01
         -4   -1    0    0    0  501 -0.00000000000E+00  0.00000000000E+00  0.13499441505E+04  0.13499441505E+04  0.00000000000E+00 0. -1.
         21   -1    0    0  501  502  0.00000000000E+00 -0.00000000000E+00 -0.34947078044E+03  0.34947078044E+03  0.00000000000E+00 0. -1.
        -13    1    1    2    0    0 -0.75720210045E+02 -0.30832085494E+03  0.14011302325E+03  0.34702589276E+03  0.10566000000E+00 0.  1.
         13    1    1    2    0    0  0.60053449041E+02 -0.33716247775E+03  0.51960804530E+03  0.62231622593E+03  0.10566000000E+00 0. -1.
         -4    1    1    2    0  502  0.15666761004E+02  0.64548333269E+03  0.34075230146E+03  0.73007281221E+03  0.00000000000E+00 0. -1.
</event>
<event>
 5    1  0.1196676E-004  0.2936962E+03  0.7818608E-02  0.1009942E+00
         21   -1    0    0  501  502  0.00000000000E+00  0.00000000000E+00  0.21040383010E+03  0.21040383010E+03  0.00000000000E+00 0.  1.
         -4   -1    0    0    0  501 -0.00000000000E+00 -0.00000000000E+00 -0.17100244766E+04  0.17100244766E+04  0.00000000000E+00 0. -1.
        -13    1    1    2    0    0 -0.21465652552E+03  0.17085934928E+03 -0.11577153472E+03  0.29778079287E+03  0.10566000000E+00 0.  1.
         13    1    1    2    0    0  0.25569040648E+03 -0.15147952303E+03 -0.14835922341E+04  0.15130662768E+04  0.10566000000E+00 0. -1.
         -4    1    1    2    0  502 -0.41033880961E+02 -0.19379826245E+02  0.99743122312E+02  0.10958123699E+03  0.00000000000E+00 0. -1.
</event>
<event>
 5    1  0.1196676E-004  0.4235884E+03  0.7818608E-02  0.9933767E-01
         -4   -1    0    0    0  501 -0.00000000000E+00  0.00000000000E+00  0.59202461738E+03  0.59202461738E+03  0.00000000000E+00 0. -1.
         21   -1    0    0  501  502  0.00000000000E+00 -0.00000000000E+00 -0.58626907943E+03  0.58626907943E+03  0.00000000000E+00 0. -1.
        -13    1    1    2    0    0  0.24430244777E+01  0.16816790157E+03  0.39350508547E+02  0.17272777766E+03  0.10566000000E+00 0.  1.
         13    1    1    2    0    0 -0.25483087476E+03 -0.46744046995E+03  0.17698200703E+03  0.56103654930E+03  0.10566000000E+00 0. -1.
         -4    1    1    2    0  502  0.25238785028E+03  0.29927256838E+03 -0.21057697763E+03  0.44452936985E+03  0.00000000000E+00 0. -1.
</event>
<event>
 5    1  0.1196676E-004  0.4694944E+02  0.7818608E-02  0.1304733E+00
         21   -1    0    0  501  502  0.00000000000E+00  0.00000000000E+00  0.36495245453E+02  0.36495245453E+02  0.00000000000E+00 0. -1.
          4   -1    0    0  502    0 -0.00000000000E+00 -0.00000000000E+00 -0.25879789830E+03  0.25879789830E+03  0.00000000000E+00 0.  1.
        -13    1    1    2    0    0 -0.40966900552E+02  0.26606869495E+02 -0.23554513139E+03  0.24055712945E+03  0.10566000000E+00 0.  1.
         13    1    1    2    0    0  0.25272641771E+02 -0.12178181851E+02  0.17404973054E+02  0.33014523870E+02  0.10566000000E+00 0. -1.
          4    1    1    2  501    0  0.15694258780E+02 -0.14428687644E+02 -0.41624945068E+01  0.21721490426E+02  0.00000000000E+00 0.  1.
</event>
<event>
 5    1  0.1196676E-004  0.5220794E+03  0.7818608E-02  0.9430849E-01
         -4   -1    0    0    0  501 -0.00000000000E+00  0.00000000000E+00  0.25889259927E+04  0.25889259927E+04  0.00000000000E+00 0. -1.
         21   -1    0    0  501  502  0.00000000000E+00 -0.00000000000E+00 -0.13107576734E+03  0.13107576734E+03  0.00000000000E+00 0.  1.
        -13    1    1    2    0    0  0.97334203698E+02  0.51079426197E+03  0.14714772640E+04  0.15606505294E+04  0.10566000000E+00 0.  1.
         13    1    1    2    0    0 -0.11051062546E+03 -0.51343235988E+03  0.10064228234E+04  0.11352146481E+04  0.10566000000E+00 0. -1.
         -4    1    1    2    0  502  0.13176421762E+02  0.26380979072E+01 -0.20049862047E+02  0.24136582590E+02  0.00000000000E+00 0. -1.
</event>
<event>
 5    1  0.1196676E-004  0.3589418E+03  0.7818608E-02  0.9855749E-01
         21   -1    0    0  501  502  0.00000000000E+00  0.00000000000E+00  0.54067679339E+02  0.54067679339E+02  0.00000000000E+00 0. -1.
         -4   -1    0    0    0  501 -0.00000000000E+00 -0.00000000000E+00 -0.32223966740E+04  0.32223966740E+04  0.00000000000E+00 0. -1.
        -13    1    1    2    0    0 -0.31214161153E+03 -0.12294687771E+03 -0.12519318404E+04  0.12961024900E+04  0.10566000000E+00 0.  1.
         13    1    1    2    0    0  0.36416197735E+03  0.10792124390E+03 -0.18725677538E+04  0.19106990722E+04  0.10566000000E+00 0. -1.
         -4    1    1    2    0  502 -0.52020365810E+02  0.15025633806E+02 -0.43829400449E+02  0.69662791173E+02  0.00000000000E+00 0. -1.
</event>
<event>
 5    1  0.1196676E-004  0.1500801E+03  0.7818608E-02  0.1116887E+00
          4   -1    0    0  502    0 -0.00000000000E+00  0.00000000000E+00  0.11375080583E+04  0.11375080583E+04  0.00000000000E+00 0.  1.
         21   -1    0    0  501  502  0.00000000000E+00 -0.00000000000E+00 -0.30212413908E+03  0.30212413908E+03  0.00000000000E+00 0.  1.
        -13    1    1    2    0    0  0.78186945675E+02  0.12795568460E+03 -0.26353727631E+03  0.30321240552E+03  0.10566000000E+00 0.  1.
         13    1    1    2    0    0  0.86324026810E+02 -0.47141406625E+02  0.26683050846E+03  0.28438122518E+03  0.10566000000E+00 0. -1.
          4    1    1    2  501    0 -0.16451097248E+03 -0.80814277975E+02  0.83209068704E+03  0.85203856665E+03  0.00000000000E+00 0.  1.
</event>
<event>
 5    1  0.1196676E-004  0.1843007E+03  0.7818608E-02  0.1077898E+00
         21   -1    0    0  501  502  0.00000000000E+00  0.00000000000E+00  0.48609743870E+03  0.48609743870E+03  0.00000000000E+00 0. -1.
         -4   -1    0    0    0  501 -0.00000000000E+00 -0.00000000000E+00 -0.68369443373E+03  0.68369443373E+03  0.00000000000E+00 0. -1.
        -13    1    1    2    0    0 -0.61559089466E+01 -0.15343564264E+03 -0.41855892725E+02  0.15916129732E+03  0.10566000000E+00 0.  1.
         13    1    1    2    0    0  0.67616219360E+02  0.32155304790E+03 -0.51405198838E+03  0.61009652814E+03  0.10566000000E+00 0. -1.
         -4    1    1    2    0  502 -0.61460310413E+02 -0.16811740526E+03  0.35831088607E+03  0.40053404697E+03  0.00000000000E+00 0. -1.
</event>
<event>
 5    1  0.1196676E-004  0.2196283E+03  0.7818608E-02  0.1047454E+00
          4   -1    0    0  502    0 -0.00000000000E+00  0.00000000000E+00  0.10917436001E+03  0.10917436001E+03  0.00000000000E+00 0.  1.
         21   -1    0    0  501  502  0.00000000000E+00 -0.00000000000E+00 -0.98770195446E+03  0.98770195446E+03  0.00000000000E+00 0. -1.
        -13    1    1    2    0    0  0.10533125719E+03  0.19138502752E+03 -0.40538507361E+02  0.22218524758E+03  0.10566000000E+00 0.  1.
         13    1    1    2    0    0 -0.12064589208E+03 -0.19149537779E+03 -0.69593517350E+03  0.73181397081E+03  0.10566000000E+00 0. -1.
          4    1    1    2  501    0  0.15314634895E+02  0.11035027125E+00 -0.14205391359E+03  0.14287709608E+03  0.00000000000E+00 0.  1.
</event>
<event>
 5    1  0.1196676E-004  0.4826539E+03  0.7818608E-02  0.9599878E-01
         21   -1    0    0  501  502  0.00000000000E+00  0.00000000000E+00  0.19582544378E+03  0.19582544378E+03  0.00000000000E+00 0. -1.
          4   -1    0    0  502    0 -0.00000000000E+00 -0.00000000000E+00 -0.27085426381E+04  0.27085426381E+04  0.00000000000E+00 0.  1.
        -13    1    1    2    0    0  0.23162657924E+03 -0.40594314141E+03 -0.11068993289E+04  0.12015268793E+04  0.10566000000E+00 0.  1.
         13    1    1    2    0    0  0.27382001280E+03  0.23100514301E+03 -0.89161750804E+03  0.96089675165E+03  0.10566000000E+00 0. -1.
          4    1    1    2  501    0 -0.50544659204E+03  0.17493799840E+03 -0.51420035737E+03  0.74194445089E+03  0.00000000000E+00 0.  1.
</event>
<event>
 5    1  0.1196676E-004  0.1823259E+03  0.7818608E-02  0.1072978E+00
         -4   -1    0    0    0  501 -0.00000000000E+00  0.00000000000E+00  0.45515415719E+03  0.45515415719E+03  0.00000000000E+00 0. -1.
         21   -1    0    0  501  502  0.00000000000E+00 -0.00000000000E+00 -0.10457451469E+03  0.10457451469E+03  0.00000000000E+00 0.  1.
        -13    1    1    2    0    0 -0.13752872146E+03  0.86805131562E+02  0.10655196642E+03  0.19442894024E+03  0.10566000000E+00 0.  1.
         13    1    1    2    0    0  0.17735198073E+03 -0.87742284642E+02  0.25613810468E+03  0.32366521811E+03  0.10566000000E+00 0. -1.
         -4    1    1    2    0  502 -0.39823259273E+02  0.93715308050E+00 -0.12110428601E+02  0.41634513519E+02  0.00000000000E+00 0. -1.
</event>
<event>
 5    1  0.1196676E-004  0.4743729E+03  0.7818608E-02  0.9796820E-01
         21   -1    0    0  501  502  0.00000000000E+00  0.00000000000E+00  0.87529268619E+03  0.87529268619E+03  0.00000000000E+00 0.  1.
          4   -1    0    0  502    0 -0.00000000000E+00 -0.00000000000E+00 -0.76864729248E+03  0.76864729248E+03  0.00000000000E+00 0.  1.
        -13    1    1    2    0    0 -0.48763732291E+03  0.28693862358E+03  0.19741722366E+03  0.59924744786E+03  0.10566000000E+00 0.  1.
         13    1    1    2    0    0  0.67462870665E+02 -0.17756911324E+03 -0.44532345247E+03  0.48414359170E+03  0.10566000000E+00 0. -1.
          4    1    1    2  501    0  0.42017445225E+03 -0.10936951035E+03  0.35455162252E+03  0.56054893912E+03  0.00000000000E+00 0.  1.
</event>
<event>
 5    1  0.1196676E-004  0.2329670E+03  0.7818608E-02  0.1039618E+00
         21   -1    0    0  501  502  0.00000000000E+00  0.00000000000E+00  0.12080449151E+04  0.12080449151E+04  0.00000000000E+00 0.  1.
         -4   -1    0    0    0  501 -0.00000000000E+00 -0.00000000000E+00 -0.11399358423E+03  0.11399358423E+03  0.00000000000E+00 0. -1.
        -13    1    1    2    0    0 -0.21274662421E+02  0.22750291595E+03  0.47111441159E+02  0.23330170826E+03  0.10566000000E+00 0.  1.
         13    1    1    2    0    0  0.35628946945E+02 -0.25922715353E+03  0.87412177925E+03  0.91244563406E+03  0.10566000000E+00 0. -1.
         -4    1    1    2    0  502 -0.14354284524E+02  0.31724237586E+02  0.17281811047E+03  0.17629115702E+03  0.00000000000E+00 0. -1.
</event>
<event>
 5    1  0.1196676E-004  0.4330110E+03  0.7818608E-02  0.9830009E-01
         21   -1    0    0  501  502  0.00000000000E+00  0.00000000000E+00  0.18621696652E+04  0.18621696652E+04  0.00000000000E+00 0.  1.
          4   -1    0    0  502    0 -0.00000000000E+00 -0.00000000000E+00 -0.20327334115E+03  0.20327334115E+03  0.00000000000E+00 0.  1.
        -13    1    1    2    0    0 -0.44151221025E+03  0.21584480673E+03  0.13655683402E+04  0.14513093796E+04  0.10566000000E+00 0.  1.
         13    1    1    2    0    0  0.18167173120E+03 -0.12943665742E+03  0.25309021496E+03  0.33736202257E+03  0.10566000000E+00 0. -1.
          4    1    1    2  501    0  0.25984047906E+03 -0.86408149306E+02  0.40237768874E+02  0.27677160415E+03  0.00000000000E+00 0.  1.
</event>
<event>
 5    1  0.1196676E-004  0.6611334E+03  0.7818608E-02  0.9181350E-01
         21   -1    0    0  501  502  0.00000000000E+00  0.00000000000E+00  0.55531200510E+03  0.55531200510E+03  0.00000000000E+00 0.  1.
          4   -1    0    0  502    0 -0.00000000000E+00 -0.00000000000E+00 -0.14259632107E+04  0.14259632107E+04  0.00000000000E+00 0.  1.
        -13    1    1    2    0    0 -0.68394981675E+03  0.48301373862E+03 -0.36040772670E+03  0.91158288935E+03  0.10566000000E+00 0.  1.
         13    1    1    2    0    0  0.53154650593E+03 -0.23769314067E+03 -0.52007894598E+03  0.78071879592E+03  0.10566000000E+00 0. -1.
          4    1    1    2  501    0  0.15240331082E+03 -0.24532059795E+03  0.98354671020E+01  0.28897353051E+03  0.00000000000E+00 0.  1.
</event>
<event>
 5    1  0.1196676E-004  0.4889043E+03  0.7818608E-02  0.9646983E-01
         21   -1    0    0  501  502  0.00000000000E+00  0.00000000000E+00  0.26123515446E+03  0.26123515446E+03  0.00000000000E+00 0. -1.
         -4   -1    0    0    0  501 -0.00000000000E+00 -0.00000000000E+00 -0.18951388691E+04  0.18951388691E+04  0.00000000000E+00 0. -1.
        -13    1    1    2    0    0 -0.84208471311E+02  0.27933003751E+03 -0.69006507353E+03  0.74920367950E+03  0.10566000000E+00 0.  1.
         13    1    1    2    0    0  0.47073227008E+03  0.10843188864E+03 -0.33210230717E+03  0.58620670259E+03  0.10566000000E+00 0. -1.
         -4    1    1    2    0  502 -0.38652379877E+03 -0.38776192615E+03 -0.61173633395E+03  0.82096364150E+03  0.00000000000E+00 0. -1.
</event>
<event>
 5    1  0.1196676E-004  0.6299778E+02  0.7818608E-02  0.1256364E+00
          4   -1    0    0  502    0 -0.00000000000E+00  0.00000000000E+00  0.12530496305E+03  0.12530496305E+03  0.00000000000E+00 0.  1.
         21   -1    0    0  501  502  0.00000000000E+00 -0.00000000000E+00 -0.21692385894E+03  0.21692385894E+03  0.00000000000E+00 0.  1.
        -13    1    1    2    0    0 -0.41952319739E+01  0.19366774977E+02  0.10813745872E+03  0.10993813300E+03  0.10566000000E+00 0.  1.
         13    1    1    2    0    0  0.28319790399E+02  0.42566933276E+02 -0.72387674766E+02  0.88622463060E+02  0.10566000000E+00 0. -1.
          4    1    1    2  501    0 -0.24124558425E+02 -0.61933708253E+02 -0.12736867985E+03  0.14366822594E+03  0.00000000000E+00 0.  1.
</event>
<event>
 5    1  0.1196676E-004  0.3130551E+03  0.7818608E-02  0.1002057E+00
         21   -1    0    0  501  502  0.00000000000E+00  0.00000000000E+00  0.95552908902E+02  0.95552908902E+02  0.00000000000E+00 0.  1.
          4   -1    0    0  502    0 -0.00000000000E+00 -0.00000000000E+00 -0.23358566135E+04  0.23358566135E+04  0.00000000000E+00 0.  1.
        -13    1    1    2    0    0  0.18608674306E+03  0.25782596381E+03 -0.17361389930E+04  0.17650158973E+04  0.10566000000E+00 0.  1.
         13    1    1    2    0    0 -0.16595360047E+03 -0.25001531456E+03 -0.54388888581E+03  0.62117902918E+03  0.10566000000E+00 0. -1.
          4    1    1    2  501    0 -0.20133142585E+02 -0.78106492428E+01  0.39724174182E+02  0.45214595944E+02  0.00000000000E+00 0.  1.
</event>
<event>
 5    1  0.1196676E-004  0.4819565E+03  0.7818608E-02  0.9731864E-01
          4   -1    0    0  502    0 -0.00000000000E+00  0.00000000000E+00  0.21599630958E+04  0.21599630958E+04  0.00000000000E+00 0.  1.
         21   -1    0    0  501  502  0.00000000000E+00 -0.00000000000E+00 -0.18274449033E+03  0.18274449033E+03  0.00000000000E+00 0.  1.
        -13    1    1    2    0    0 -0.45080745115E+03  0.28916726797E+03  0.96473158581E+03  0.11034274379E+04  0.10566000000E+00 0.  1.
         13    1    1    2    0    0  0.20024800615E+03  0.10574591365E+03  0.47886610930E+03  0.52971145355E+03  0.10566000000E+00 0. -1.
          4    1    1    2  501    0  0.25055944500E+03 -0.39491318162E+03  0.53362091038E+03  0.70956869469E+03  0.00000000000E+00 0.  1.
</event>
<event>
 5    1  0.1196676E-004  0.4552253E+03  0.7818608E-02  0.9783796E-01
          4   -1    0    0  502    0 -0.00000000000E+00  0.00000000000E+00  0.21691781025E+04  0.21691781025E+04  0.00000000000E+00 0.  1.
         21   -1    0    0  501  502  0.00000000000E+00 -0.00000000000E+00 -0.17699676119E+03  0.17699676119E+03  0.00000000000E+00 0.  1.
        -13    1    1    2    0    0 -0.15175437387E+03  0.45600013193E+03  0.43200635845E+03  0.64621591997E+03  0.10566000000E+00 0.  1.
         13    1    1    2    0    0  0.22296623850E+03 -0.28154975031E+02  0.36639580775E+03  0.42982850677E+03  0.10566000000E+00 0. -1.
          4    1    1    2  501    0 -0.71211864636E+02 -0.42784515690E+03  0.11937791751E+04  0.12701304369E+04  0.00000000000E+00 0.  1.
</event>
<event>
 5    1  0.1196676E-004  0.1450810E+03  0.7818608E-02  0.1146412E+00
         21   -1    0    0  501  502  0.00000000000E+00  0.00000000000E+00  0.17910022296E+03  0.17910022296E+03  0.00000000000E+00 0. -1.
         -4   -1    0    0    0  501 -0.00000000000E+00 -0.00000000000E+00 -0.23510405923E+03  0.23510405923E+03  0.00000000000E+00 0. -1.
        -13    1    1    2    0    0  0.48319681115E+02 -0.16698120270E+02 -0.13765104869E+02  0.52944386668E+02  0.10566000000E+00 0.  1.
         13    1    1    2    0    0 -0.14338757178E+03  0.11296534323E+03 -0.10665014254E+03  0.21141293380E+03  0.10566000000E+00 0. -1.
         -4    1    1    2    0  502  0.95067890661E+02 -0.96267222960E+02  0.64411411134E+02  0.14984696172E+03  0.00000000000E+00 0. -1.
</event>
<event>
 5    1  0.1196676E-004  0.3707844E+03  0.7818608E-02  0.1004762E+00
          4   -1    0    0  502    0 -0.00000000000E+00  0.00000000000E+00  0.24874768523E+03  0.24874768523E+03  0.00000000000E+00 0.  1.
         21   -1    0    0  501  502  0.00000000000E+00 -0.00000000000E+00 -0.14269905372E+04  0.14269905372E+04  0.00000000000E+00 0.  1.
        -13    1    1    2    0    0 -0.72366933653E+02 -0.36597433681E+03 -0.90480409962E+03  0.97869538578E+03  0.10566000000E+00 0.  1.
         13    1    1    2    0    0 -0.16415546187E+03  0.53125943329E+02 -0.25050929881E+03  0.30417807527E+03  0.10566000000E+00 0. -1.
          4    1    1    2  501    0  0.23652239553E+03  0.31284839348E+03 -0.22929453519E+02  0.39286476137E+03  0.00000000000E+00 0.  1.
</event>
<event>
 5    1  0.1196676E-004  0.2256001E+03  0.7818608E-02  0.1066421E+00
          4   -1    0    0  502    0 -0.00000000000E+00  0.00000000000E+00  0.13350363530E+04  0.13350363530E+04  0.00000000000E+00 0.  1.
         21   -1    0    0  501  502  0.00000000000E+00 -0.00000000000E+00 -0.23732306567E+03  0.23732306567E+03  0.00000000000E+00 0.  1.
        -13    1    1    2    0    0  0.11321048792E+02  0.22105410017E+03  0.10278054090E+04  0.10513691318E+04  0.10566000000E+00 0.  1.
         13    1    1    2    0    0  0.11218823154E+03 -0.29994669149E+02  0.21976799198E+03  0.24856359536E+03  0.10566000000E+00 0. -1.
          4    1    1    2  501    0 -0.12350928034E+03 -0.19105943102E+03 -0.14986011374E+03  0.27242669142E+03  0.00000000000E+00 0.  1.
</event>
<event>
 5    1  0.1196676E-004  0.4869759E+03  0.7818608E-02  0.9761272E-01
         21   -1    0    0  501  502  0.00000000000E+00  0.00000000000E+00  0.12880695497E+04  0.12880695497E+04  0.00000000000E+00 0.  1.
          4   -1    0    0  502    0 -0.00000000000E+00 -0.00000000000E+00 -0.30226728342E+03  0.30226728342E+03  0.00000000000E+00 0.  1.
        -13    1    1    2    0    0  0.27600248444E+03 -0.48489547533E+03  0.82903071767E+03  0.99929622006E+03  0.10566000000E+00 0.  1.
         13    1    1    2    0    0 -0.46355374756E+02  0.19284723744E+03  0.55824314870E+02  0.20604670114E+03  0.10566000000E+00 0. -1.
          4    1    1    2  501    0 -0.22964710968E+03  0.29204823789E+03  0.10094723376E+03  0.38499391196E+03  0.00000000000E+00 0.  1.
</event>
<event>
 5    1  0.1196676E-004  0.3313739E+03  0.7818608E-02  0.9987764E-01
          4   -1    0    0  502    0 -0.00000000000E+00  0.00000000000E+00  0.25418923492E+03  0.25418923492E+03  0.00000000000E+00 0.  1.
         21   -1    0    0  501  502  0.00000000000E+00 -0.00000000000E+00 -0.17945907226E+04  0.17945907226E+04  0.00000000000E+00 0. -1.
        -13    1    1    2    0    0  0.51357870183E+02  0.28142167439E+03 -0.75773900978E+03  0.80994086682E+03  0.10566000000E+00 0.  1.
         13    1    1    2    0    0  0.35123398615E+03 -0.21176040241E+02 -0.38960169775E+02  0.35402209493E+03  0.10566000000E+00 0. -1.
          4    1    1    2  501    0 -0.40259185634E+03 -0.26024563415E+03 -0.74370230815E+03  0.88481699578E+03  0.00000000000E+00 0.  1.
</event>
<event>
 5    1  0.1196676E-004  0.3617251E+03  0.7818608E-02  0.1005548E+00
         21   -1    0    0  501  502  0.00000000000E+00  0.00000000000E+00  0.26029496888E+03  0.26029496888E+03  0.00000000000E+00 0.  1.
          4   -1    0    0  502    0 -0.00000000000E+00 -0.00000000000E+00 -0.28169604843E+04  0.28169604843E+04  0.00000000000E+00 0.  1.
        -13    1    1    2    0    0  0.23402504660E+03  0.10911626228E+03 -0.11799626149E+04  0.12078848723E+04  0.10566000000E+00 0.  1.
         13    1    1    2    0    0 -0.33750931505E+03  0.39144616993E+03 -0.12352310993E+04  0.13390065427E+04  0.10566000000E+00 0. -1.
          4    1    1    2  501    0  0.10348426846E+03 -0.50056243221E+03 -0.14147180126E+03  0.53036403810E+03  0.00000000000E+00 0.  1.
</event>
<event>
 5    1  0.1196676E-004  0.2057760E+02  0.7818608E-02  0.1515469E+00
         -4   -1    0    0    0  501 -0.00000000000E+00  0.00000000000E+00  0.66508883919E+02  0.66508883919E+02  0.00000000000E+00 0. -1.
         21   -1    0    0  501  502  0.00000000000E+00 -0.00000000000E+00 -0.29503039743E+02  0.29503039743E+02  0.00000000000E+00 0. -1.
        -13    1    1    2    0    0 -0.12376541723E+02 -0.11571217004E+02  0.26161867456E+02  0.31169316976E+02  0.10566000000E+00 0.  1.
         13    1    1    2    0    0  0.23958026901E+02  0.25909800899E+02  0.23577028065E+02  0.42440455370E+02  0.10566000000E+00 0. -1.
         -4    1    1    2    0  502 -0.11581485178E+02 -0.14338583895E+02 -0.12733051345E+02  0.22402151316E+02  0.00000000000E+00 0. -1.
</event>
<event>
 5    1  0.1196676E-004  0.4689208E+03  0.7818608E-02  0.9650535E-01
         21   -1    0    0  501  502  0.00000000000E+00  0.00000000000E+00  0.71602557082E+03  0.71602557082E+03  0.00000000000E+00 0.  1.
          4   -1    0    0  502    0 -0.00000000000E+00 -0.00000000000E+00 -0.67029821110E+03  0.67029821110E+03  0.00000000000E+00 0.  1.
        -13    1    1    2    0    0  0.44925105549E+03 -0.51202661072E+03  0.10110714535E+03  0.68863664363E+03  0.10566000000E+00 0.  1.
         13    1    1    2    0    0 -0.20962298821E+03  0.25038456238E+03 -0.96524811476E+02  0.34051619148E+03  0.10566000000E+00 0. -1.
          4    1    1    2  501    0 -0.23962806728E+03  0.26164204834E+03  0.41145025850E+02  0.35717094680E+03  0.00000000000E+00 0.  1.
</event>
<event>
 5    1  0.1196676E-004  0.4414423E+03  0.7818608E-02  0.9905070E-01
         21   -1    0    0  501  502  0.00000000000E+00  0.00000000000E+00  0.17280496703E+03  0.17280496703E+03  0.00000000000E+00 0.  1.
          4   -1    0    0  502    0 -0.00000000000E+00 -0.00000000000E+00 -0.19669759545E+04  0.19669759545E+04  0.00000000000E+00 0.  1.
        -13    1    1    2    0    0  0.47192010231E+02  0.36153796130E+03 -0.11764248387E+04  0.12316298939E+04  0.10566000000E+00 0.  1.
         13    1    1    2    0    0 -0.12318442843E+03  0.10751368190E+03 -0.28325609380E+03  0.32705904826E+03  0.10566000000E+00 0. -1.
          4    1    1    2  501    0  0.75992418201E+02 -0.46905164320E+03 -0.33449005497E+03  0.58109197937E+03  0.00000000000E+00 0.  1.
</event>
<event>
 5    1  0.1196676E-004  0.3601869E+03  0.7818608E-02  0.1003411E+00
         21   -1    0    0  501  502  0.00000000000E+00  0.00000000000E+00  0.48307559014E+03  0.48307559014E+03  0.00000000000E+00 0.  1.
         -4   -1    0    0    0  501 -0.00000000000E+00 -0.00000000000E+00 -0.13213514422E+04  0.13213514422E+04  0.00000000000E+00 0. -1.
        -13    1    1    2    0    0  0.10361441669E+03 -0.49163701115E+03 -0.16656606925E+03  0.52932708665E+03  0.10566000000E+00 0.  1.
         13    1    1    2    0    0  0.23429062664E+03  0.14032406147E+03 -0.73450117501E+03  0.78362933024E+03  0.10566000000E+00 0. -1.
         -4    1    1    2    0  502 -0.33790504333E+03  0.35131294967E+03  0.62791392199E+02  0.49147061545E+03  0.00000000000E+00 0. -1.
</event>
<event>
 5    1  0.1196676E-004  0.5213389E+03  0.7818608E-02  0.9432389E-01
         -4   -1    0    0    0  501 -0.00000000000E+00  0.00000000000E+00  0.22268508581E+04  0.22268508581E+04  0.00000000000E+00 0. -1.
         21   -1    0    0  501  502  0.00000000000E+00 -0.00000000000E+00 -0.17075365204E+03  0.17075365204E+03  0.00000000000E+00 0.  1.
        -13    1    1    2    0    0  0.26605422933E+03 -0.43055505627E+03  0.69611448882E+03  0.86066131674E+03  0.10566000000E+00 0.  1.
         13    1    1    2    0    0 -0.29720416247E+03  0.43946168951E+03  0.13930482080E+04  0.14906509356E+04  0.10566000000E+00 0. -1.
         -4    1    1    2    0  502  0.31149933140E+02 -0.89066332404E+01 -0.33065490796E+02  0.46292257796E+02  0.00000000000E+00 0. -1.
</event>
<event>
 5    1  0.1196676E-004  0.9159951E+02  0.7818608E-02  0.1179256E+00
          4   -1    0    0  502    0 -0.00000000000E+00  0.00000000000E+00  0.21198076477E+03  0.21198076477E+03  0.00000000000E+00 0.  1.
         21   -1    0    0  501  502  0.00000000000E+00 -0.00000000000E+00 -0.20252467193E+03  0.20252467193E+03  0.00000000000E+00 0. -1.
        -13    1    1    2    0    0 -0.44297512572E+02 -0.86592030328E+02  0.13486045694E+03  0.16627628618E+03  0.10566000000E+00 0.  1.
         13    1    1    2    0    0  0.59880088065E+02  0.58820560462E+02  0.30347614482E+02  0.89255095925E+02  0.10566000000E+00 0. -1.
          4    1    1    2  501    0 -0.15582575493E+02  0.27771469865E+02 -0.15575197859E+03  0.15897405459E+03  0.00000000000E+00 0.  1.
</event>
<event>
 5    1  0.1196676E-004  0.5517153E+03  0.7818608E-02  0.9371297E-01
          4   -1    0    0  502    0 -0.00000000000E+00  0.00000000000E+00  0.25693818041E+04  0.25693818041E+04  0.00000000000E+00 0.  1.
         21   -1    0    0  501  502  0.00000000000E+00 -0.00000000000E+00 -0.61225625969E+03  0.61225625969E+03  0.00000000000E+00 0.  1.
        -13    1    1    2    0    0  0.32273049164E+02 -0.40777357071E+03  0.50853746593E+03  0.65263404760E+03  0.10566000000E+00 0.  1.
         13    1    1    2    0    0 -0.38925899438E+03  0.60023733616E+03  0.18345704662E+04  0.19691257530E+04  0.10566000000E+00 0. -1.
          4    1    1    2  501    0  0.35698594521E+03 -0.19246376545E+03 -0.38598238766E+03  0.55987826326E+03  0.00000000000E+00 0.  1.
</event>
<event>
 5    1  0.1196676E-004  0.8582155E+02  0.7818608E-02  0.1190419E+00
          4   -1    0    0  502    0 -0.00000000000E+00  0.00000000000E+00  0.28967870917E+02  0.28967870917E+02  0.00000000000E+00 0.  1.
         21   -1    0    0  501  502  0.00000000000E+00 -0.00000000000E+00 -0.91072902248E+03  0.91072902248E+03  0.00000000000E+00 0.  1.
        -13    1    1    2    0    0 -0.36848624514E+02 -0.81817812907E+02 -0.12549596705E+03  0.15427645493E+03  0.10566000000E+00 0.  1.
         13    1    1    2    0    0  0.24200008082E+02  0.79220545834E+02 -0.10367661163E+03  0.13270413044E+03  0.10566000000E+00 0. -1.
          4    1    1    2  501    0  0.12648616432E+02  0.25972670729E+01 -0.65258857289E+03  0.65271630802E+03  0.00000000000E+00 0.  1.
</event>
<event>
 5    1  0.1196676E-004  0.4161609E+03  0.7818608E-02  0.9683498E-01
         -4   -1    0    0    0  501 -0.00000000000E+00  0.00000000000E+00  0.36033666331E+04  0.36033666331E+04  0.00000000000E+00 0. -1.
         21   -1    0    0  501  502  0.00000000000E+00 -0.00000000000E+00 -0.16463944071E+03  0.16463944071E+03  0.00000000000E+00 0. -1.
        -13    1    1    2    0    0 -0.14212611384E+02  0.36551165354E+03  0.16992827016E+04  0.17382066846E+04  0.10566000000E+00 0.  1.
         13    1    1    2    0    0  0.20168655920E+03 -0.66274749486E+03  0.10941371255E+04  0.12950087917E+04  0.10566000000E+00 0. -1.
         -4    1    1    2    0  502 -0.18747394782E+03  0.29723584131E+03  0.64530736530E+03  0.73479059750E+03  0.00000000000E+00 0. -1.
</event>
<event>
 5    1  0.1196676E-004  0.4069182E+03  0.7818608E-02  0.1007925E+00
         -4   -1    0    0    0  501 -0.00000000000E+00  0.00000000000E+00  0.24612119513E+04  0.24612119513E+04  0.00000000000E+00 0. -1.
         21   -1    0    0  501  502  0.00000000000E+00 -0.00000000000E+00 -0.15153130990E+03  0.15153130990E+03  0.00000000000E+00 0. -1.
        -13    1    1    2    0    0 -0.77178031981E+02  0.89045080528E+02  0.57992375088E+01  0.11797930881E+03  0.10566000000E+00 0.  1.
         13    1    1    2    0    0  0.41820018895E+03  0.12275076023E+03  0.17920189352E+04  0.18442589359E+04  0.10566000000E+00 0. -1.
         -4    1    1    2    0  502 -0.34102215697E+03 -0.21179584075E+03  0.51186246867E+03  0.65050501654E+03  0.00000000000E+00 0. -1.
</event>
<event>
 5    1  0.1196676E-004  0.6738397E+03  0.7818608E-02  0.9214269E-01
         21   -1    0    0  501  502  0.00000000000E+00  0.00000000000E+00  0.60643253783E+03  0.60643253783E+03  0.00000000000E+00 0. -1.
          4   -1    0    0  502    0 -0.00000000000E+00 -0.00000000000E+00 -0.21502870211E+04  0.21502870211E+04  0.00000000000E+00 0.  1.
        -13    1    1    2    0    0 -0.35688615232E+02 -0.55441055591E+03 -0.17841742330E+03  0.58350452428E+03  0.10566000000E+00 0.  1.
         13    1    1    2    0    0  0.73070610949E+03  0.28308239115E+03 -0.11590494186E+04  0.13990935010E+04  0.10566000000E+00 0. -1.
          4    1    1    2  501    0 -0.69501749426E+03  0.27132816476E+03 -0.20638764135E+03  0.77412153363E+03  0.00000000000E+00 0.  1.
</event>
<event>
 5    1  0.1196676E-004  0.4312442E+03  0.7818608E-02  0.9650007E-01
         21   -1    0    0  501  502  0.00000000000E+00  0.00000000000E+00  0.50623322910E+03  0.50623322910E+03  0.00000000000E+00 0. -1.
         -4   -1    0    0    0  501 -0.00000000000E+00 -0.00000000000E+00 -0.11532495391E+04  0.11532495391E+04  0.00000000000E+00 0. -1.
        -13    1    1    2    0    0 -0.33990894653E+03  0.24774652547E+03 -0.41654977418E+02  0.42267195450E+03  0.10566000000E+00 0.  1.
         13    1    1    2    0    0 -0.14069643189E+03 -0.12033218479E+02 -0.68163450133E+03  0.69610767045E+03  0.10566000000E+00 0. -1.
         -4    1    1    2    0  502  0.48060537842E+03 -0.23571330699E+03  0.76273168737E+02  0.54070314326E+03  0.00000000000E+00 0. -1.
</event>
<event>
 5    1  0.1300165E-004  0.4746651E+03  0.7818608E-02  0.9608533E-01
         -4   -1    0    0    0  501 -0.00000000000E+00  0.00000000000E+00  0.10442055669E+04  0.10442055669E+04  0.00000000000E+00 0. -1.
         21   -1    0    0  501  502  0.00000000000E+00 -0.00000000000E+00 -0.50391369463E+03  0.50391369463E+03  0.00000000000E+00 0. -1.
        -13    1    1    2    0    0  0.62382417920E+02 -0.35986531160E+03  0.24144987096E+03  0.43782720325E+03  0.10566000000E+00 0.  1.
         13    1    1    2    0    0 -0.12383272783E+03 -0.22846510388E+03  0.43183386809E+03  0.50399538586E+03  0.10566000000E+00 0. -1.
         -4    1    1    2    0  502  0.61450309909E+02  0.58833041548E+03 -0.13299186677E+03  0.60629667242E+03  0.00000000000E+00 0. -1.
</event>
<event>
 5    1  0.1196676E-004  0.5145264E+03  0.7818608E-02  0.9446689E-01
          4   -1    0    0  502    0 -0.00000000000E+00  0.00000000000E+00  0.53634769836E+03  0.53634769836E+03  0.00000000000E+00 0.  1.
         21   -1    0    0  501  502  0.00000000000E+00 -0.00000000000E+00 -0.13161471378E+04  0.13161471378E+04  0.00000000000E+00 0.  1.
        -13    1    1    2    0    0 -0.62325823583E+03  0.31369233581E+03 -0.74139279566E+03  0.10180947887E+04  0.10566000000E+00 0.  1.
         13    1    1    2    0    0  0.28190268297E+03 -0.38962335071E+03  0.12157223366E+02  0.48106474339E+03  0.10566000000E+00 0. -1.
          4    1    1    2  501    0  0.34135555286E+03  0.75931014907E+02 -0.50563867178E+02  0.35333530415E+03  0.00000000000E+00 0.  1.
</event>
<event>
 5    1  0.1196676E-004  0.2651659E+03  0.7818608E-02  0.1022820E+00
         21   -1    0    0  501  502  0.00000000000E+00  0.00000000000E+00  0.91634740364E+03  0.91634740364E+03  0.00000000000E+00 0. -1.
         -4   -1    0    0    0  501 -0.00000000000E+00 -0.00000000000E+00 -0.59195422187E+03  0.59195422187E+03  0.00000000000E+00 0. -1.
        -13    1    1    2    0    0 -0.15537029317E+03 -0.25794896853E+03 -0.15060851505E+03  0.33669056169E+03  0.10566000000E+00 0.  1.
         13    1    1    2    0    0  0.18797658772E+03  0.16733986261E+03 -0.29946868574E+03  0.39117685520E+03  0.10566000000E+00 0. -1.
         -4    1    1    2    0  502 -0.32606294546E+02  0.90609105924E+02  0.77447038255E+03  0.78043420861E+03  0.00000000000E+00 0. -1.
</event>
<event>
 5    1  0.1196676E-004  0.5616420E+03  0.7818608E-02  0.9352218E-01
          4   -1    0    0  502    0 -0.00000000000E+00  0.00000000000E+00  0.26314565936E+04  0.26314565936E+04  0.00000000000E+00 0.  1.
         21   -1    0    0  501  502  0.00000000000E+00 -0.00000000000E+00 -0.27418579029E+03  0.27418579029E+03  0.00000000000E+00 0.  1.
        -13    1    1    2    0    0 -0.22167392069E+03  0.74540311340E+03  0.82542172841E+03  0.11340573925E+04  0.10566000000E+00 0.  1.
         13    1    1    2    0    0 -0.21241302225E+02 -0.49873977754E+03  0.11635889717E+04  0.12661484371E+04  0.10566000000E+00 0. -1.
          4    1    1    2  501    0  0.24291522292E+03 -0.24666333586E+03  0.36826010325E+03  0.50543655431E+03  0.00000000000E+00 0.  1.
</event>
<event>
 5    1  0.1196676E-004  0.2535273E+03  0.7818608E-02  0.1028581E+00
         21   -1    0    0  501  502  0.00000000000E+00  0.00000000000E+00  0.10116081975E+03  0.10116081975E+03  0.00000000000E+00 0.  1.
          4   -1    0    0  502    0 -0.00000000000E+00 -0.00000000000E+00 -0.15018244084E+04  0.15018244084E+04  0.00000000000E+00 0.  1.
        -13    1    1    2    0    0 -0.14651937416E+03 -0.31280986600E+03 -0.37855768117E+03  0.51246840722E+03  0.10566000000E+00 0.  1.
         13    1    1    2    0    0  0.81849310744E+02  0.21775751808E+03 -0.86564811551E+03  0.89636171125E+03  0.10566000000E+00 0. -1.
          4    1    1    2  501    0  0.64670063412E+02  0.95052347919E+02 -0.15645779198E+03  0.19415510969E+03  0.00000000000E+00 0.  1.
</event>
<event>
 5    1  0.1196676E-004  0.2621541E+03  0.7818608E-02  0.1024280E+00
         21   -1    0    0  501  502  0.00000000000E+00  0.00000000000E+00  0.90656114693E+02  0.90656114693E+02  0.00000000000E+00 0. -1.
         -4   -1    0    0    0  501 -0.00000000000E+00 -0.00000000000E+00 -0.15766331132E+04  0.15766331132E+04  0.00000000000E+00 0. -1.
        -13    1    1    2    0    0 -0.21186292640E+03  0.14308196105E+03 -0.65930768749E+03  0.70713858974E+03  0.10566000000E+00 0.  1.
         13    1    1    2    0    0  0.23414468057E+03 -0.13054527551E+03 -0.86971032863E+03  0.91008893372E+03  0.10566000000E+00 0. -1.
         -4    1    1    2    0  502 -0.22281754177E+02 -0.12536685543E+02  0.43041017607E+02  0.50061704428E+02  0.00000000000E+00 0. -1.
</event>
<event>
 5    1  0.1196676E-004  0.6148175E+02  0.7818608E-02  0.1251026E+00
         21   -1    0    0  501  502  0.00000000000E+00  0.00000000000E+00  0.78298378488E+03  0.78298378488E+03  0.00000000000E+00 0.  1.
          4   -1    0    0  502    0 -0.00000000000E+00 -0.00000000000E+00 -0.19593158402E+03  0.19593158402E+03  0.00000000000E+00 0.  1.
        -13    1    1    2    0    0  0.46890842139E+02 -0.36543518306E+02 -0.12173589356E+03  0.13547626638E+03  0.10566000000E+00 0.  1.
         13    1    1    2    0    0 -0.56998472291E+02  0.34597286529E+02 -0.50773440795E+02  0.83807825010E+02  0.10566000000E+00 0. -1.
          4    1    1    2  501    0  0.10107630152E+02  0.19462317767E+01  0.75956153521E+03  0.75963127751E+03  0.00000000000E+00 0.  1.
</event>
<event>
 5    1  0.1196676E-004  0.1602290E+03  0.7818608E-02  0.1091440E+00
          4   -1    0    0  502    0 -0.00000000000E+00  0.00000000000E+00  0.40597849239E+02  0.40597849239E+02  0.00000000000E+00 0.  1.
         21   -1    0    0  501  502  0.00000000000E+00 -0.00000000000E+00 -0.75473652821E+03  0.75473652821E+03  0.00000000000E+00 0. -1.
        -13    1    1    2    0    0  0.64726026368E+02  0.14887731111E+03 -0.24552066340E+03  0.29433708494E+03  0.10566000000E+00 0.  1.
         13    1    1    2    0    0 -0.52313792538E+02 -0.14845108899E+03 -0.37695431037E+03  0.40849604891E+03  0.10566000000E+00 0. -1.
          4    1    1    2  501    0 -0.12412233830E+02 -0.42622212644E+00 -0.91663705207E+02  0.92501243593E+02  0.00000000000E+00 0.  1.
</event>
<event>
 5    1  0.1196676E-004  0.1240626E+03  0.7818608E-02  0.1129935E+00
         21   -1    0    0  501  502  0.00000000000E+00  0.00000000000E+00  0.40082458325E+03  0.40082458325E+03  0.00000000000E+00 0.  1.
         -4   -1    0    0    0  501 -0.00000000000E+00 -0.00000000000E+00 -0.11006160157E+03  0.11006160157E+03  0.00000000000E+00 0. -1.
        -13    1    1    2    0    0  0.26834640846E+02  0.11165639387E+03  0.30715031565E+03  0.32791550102E+03  0.10566000000E+00 0.  1.
         13    1    1    2    0    0 -0.69176289549E+02 -0.10559936080E+03 -0.42086943913E+02  0.13307105639E+03  0.10566000000E+00 0. -1.
         -4    1    1    2    0  502  0.42341648702E+02 -0.60570330656E+01  0.25699609944E+02  0.49899627410E+02  0.00000000000E+00 0. -1.
</event>
<event>
 5    1  0.1196676E-004  0.4620129E+03  0.7818608E-02  0.9825857E-01
         -4   -1    0    0    0  501 -0.00000000000E+00  0.00000000000E+00  0.19792855382E+04  0.19792855382E+04  0.00000000000E+00 0. -1.
         21   -1    0    0  501  502  0.00000000000E+00 -0.00000000000E+00 -0.24757366151E+03  0.24757366151E+03  0.00000000000E+00 0. -1.
        -13    1    1    2    0    0 -0.57401408009E+02  0.17718099127E+03  0.21091919346E+03  0.28138042335E+03  0.10566000000E+00 0.  1.
         13    1    1    2    0    0  0.14829224132E+03  0.30573179534E+03  0.13983755724E+04  0.14390680220E+04  0.10566000000E+00 0. -1.
         -4    1    1    2    0  502 -0.90890833314E+02 -0.48291278661E+03  0.12241711087E+03  0.50641075431E+03  0.00000000000E+00 0. -1.
</event>
<event>
 5    1  0.1196676E-004  0.2965705E+03  0.7818608E-02  0.1019914E+00
         -4   -1    0    0    0  501 -0.00000000000E+00  0.00000000000E+00  0.73389926677E+03  0.73389926677E+03  0.00000000000E+00 0. -1.
         21   -1    0    0  501  502  0.00000000000E+00 -0.00000000000E+00 -0.75407269445E+03  0.75407269445E+03  0.00000000000E+00 0. -1.
        -13    1    1    2    0    0  0.11359176553E+03  0.17384123218E+03  0.32784271876E+03  0.38807824290E+03  0.10566000000E+00 0.  1.
         13    1    1    2    0    0  0.18486811345E+03 -0.86646464879E+02  0.31052850710E+03  0.37163395181E+03  0.10566000000E+00 0. -1.
         -4    1    1    2    0  502 -0.29845987898E+03 -0.87194767300E+02 -0.65854465355E+03  0.72825976651E+03  0.00000000000E+00 0. -1.
</event>
<event>
 5    1  0.1196676E-004  0.4513142E+03  0.7818608E-02  0.1005428E+00
         -4   -1    0    0    0  501 -0.00000000000E+00  0.00000000000E+00  0.62517922916E+03  0.62517922916E+03  0.00000000000E+00 0. -1.
         21   -1    0    0  501  502  0.00000000000E+00 -0.00000000000E+00 -0.55617473440E+03  0.55617473440E+03  0.00000000000E+00 0. -1.
        -13    1    1    2    0    0 -0.13850999439E+02 -0.92602966266E+02  0.14262779314E+03  0.17061611321E+03  0.10566000000E+00 0.  1.
         13    1    1    2    0    0  0.11346225265E+03  0.46386527613E+03 -0.30065756671E+03  0.56430458155E+03  0.10566000000E+00 0. -1.
         -4    1    1    2    0  502 -0.99611253208E+02 -0.37126230986E+03  0.22703426833E+03  0.44643326880E+03  0.00000000000E+00 0. -1.
</event>
<event>
 5    1  0.1196676E-004  0.3892673E+03  0.7818608E-02  0.9883495E-01
          4   -1    0    0  502    0 -0.00000000000E+00  0.00000000000E+00  0.33945289333E+04  0.33945289333E+04  0.00000000000E+00 0.  1.
         21   -1    0    0  501  502  0.00000000000E+00 -0.00000000000E+00 -0.15382004020E+03  0.15382004020E+03  0.00000000000E+00 0.  1.
        -13    1    1    2    0    0 -0.15534303710E+03 -0.44818620228E+03  0.25852765634E+04  0.26284324704E+04  0.10566000000E+00 0.  1.
         13    1    1    2    0    0 -0.14664773934E+03  0.21022961110E+03  0.20889320976E+03  0.33066362528E+03  0.10566000000E+00 0. -1.
          4    1    1    2  501    0  0.30199077644E+03  0.23795659118E+03  0.44653911989E+03  0.58925287775E+03  0.00000000000E+00 0.  1.
</event>
<event>
 5    1  0.1196676E-004  0.1858135E+02  0.7818608E-02  0.1530599E+00
         21   -1    0    0  501  502  0.00000000000E+00  0.00000000000E+00  0.93531267169E+01  0.93531267169E+01  0.00000000000E+00 0. -1.
         -4   -1    0    0    0  501 -0.00000000000E+00 -0.00000000000E+00 -0.16072466791E+03  0.16072466791E+03  0.00000000000E+00 0. -1.
        -13    1    1    2    0    0  0.68413398236E+01 -0.15303207206E+02 -0.92112488635E+02  0.93625390830E+02  0.10566000000E+00 0.  1.
         13    1    1    2    0    0 -0.13308168095E+01  0.27956633129E+02 -0.55484841419E+02  0.62144373846E+02  0.10566000000E+00 0. -1.
         -4    1    1    2    0  502 -0.55105230141E+01 -0.12653425923E+02 -0.37742111433E+01  0.14308029957E+02  0.00000000000E+00 0. -1.
</event>
<event>
 5    1  0.1196676E-004  0.5010505E+03  0.7818608E-02  0.9475673E-01
         21   -1    0    0  501  502  0.00000000000E+00  0.00000000000E+00  0.15403035962E+03  0.15403035962E+03  0.00000000000E+00 0. -1.
         -4   -1    0    0    0  501 -0.00000000000E+00 -0.00000000000E+00 -0.39070658741E+04  0.39070658741E+04  0.00000000000E+00 0. -1.
        -13    1    1    2    0    0 -0.42783464232E+03  0.15879872629E+03 -0.11051510368E+04  0.11956664844E+04  0.10566000000E+00 0.  1.
         13    1    1    2    0    0  0.39396019314E+03 -0.37604664300E+03 -0.25777296667E+04  0.26346358301E+04  0.10566000000E+00 0. -1.
         -4    1    1    2    0  502  0.33874449187E+02  0.21724791671E+03 -0.70154810914E+02  0.23079391915E+03  0.00000000000E+00 0. -1.
</event>
<event>
 5    1  0.1196676E-004  0.4496715E+03  0.7818608E-02  0.1001685E+00
         21   -1    0    0  501  502  0.00000000000E+00  0.00000000000E+00  0.12801563731E+03  0.12801563731E+03  0.00000000000E+00 0.  1.
          4   -1    0    0  502    0 -0.00000000000E+00 -0.00000000000E+00 -0.24654791705E+04  0.24654791705E+04  0.00000000000E+00 0.  1.
        -13    1    1    2    0    0  0.11602615940E+03  0.43819575411E+03 -0.50732189725E+03  0.68033308546E+03  0.10566000000E+00 0.  1.
         13    1    1    2    0    0 -0.10635472694E+03  0.11025667223E+02 -0.30440774877E+03  0.32264063903E+03  0.10566000000E+00 0. -1.
          4    1    1    2  501    0 -0.96714324625E+01 -0.44922142133E+03 -0.15257338872E+04  0.15905210833E+04  0.00000000000E+00 0.  1.
</event>
<event>
 5    1  0.1196676E-004  0.1316576E+03  0.7818608E-02  0.1120755E+00
          4   -1    0    0  502    0 -0.00000000000E+00  0.00000000000E+00  0.19883038414E+04  0.19883038414E+04  0.00000000000E+00 0.  1.
         21   -1    0    0  501  502  0.00000000000E+00 -0.00000000000E+00 -0.19812330357E+02  0.19812330357E+02  0.00000000000E+00 0. -1.
        -13    1    1    2    0    0 -0.16480253421E+03  0.10372693365E+02  0.86074914667E+03  0.87644541913E+03  0.10566000000E+00 0.  1.
         13    1    1    2    0    0  0.83187541855E+02 -0.83728768966E+02  0.47241561958E+03  0.48693654890E+03  0.10566000000E+00 0. -1.
          4    1    1    2  501    0  0.81614992353E+02  0.73356075601E+02  0.63532674483E+03  0.64473420376E+03  0.00000000000E+00 0.  1.
</event>
<event>
 5    1  0.1196676E-004  0.2266207E+03  0.7818608E-02  0.1079470E+00
         21   -1    0    0  501  502  0.00000000000E+00  0.00000000000E+00  0.45898046672E+02  0.45898046672E+02  0.00000000000E+00 0.  1.
          4   -1    0    0  502    0 -0.00000000000E+00 -0.00000000000E+00 -0.18718030093E+04  0.18718030093E+04  0.00000000000E+00 0.  1.
        -13    1    1    2    0    0  0.45636548038E+02 -0.27294262065E+03 -0.11621153284E+04  0.11946097339E+04  0.10566000000E+00 0.  1.
         13    1    1    2    0    0 -0.38539396899E+02  0.68982534528E+02 -0.13705264575E+03  0.15820023405E+03  0.10566000000E+00 0. -1.
          4    1    1    2  501    0 -0.70971511388E+01  0.20396008612E+03 -0.52673698852E+03  0.56489108806E+03  0.00000000000E+00 0.  1.
</event>
<event>
 5    1  0.1196676E-004  0.1853757E+03  0.7818608E-02  0.1070652E+00
         21   -1    0    0  501  502  0.00000000000E+00  0.00000000000E+00  0.64113545655E+03  0.64113545655E+03  0.00000000000E+00 0.  1.
          4   -1    0    0  502    0 -0.00000000000E+00 -0.00000000000E+00 -0.61273924609E+03  0.61273924609E+03  0.00000000000E+00 0.  1.
        -13    1    1    2    0    0 -0.71434074758E+02 -0.23606460849E+03 -0.38101978004E+03  0.45387818891E+03  0.10566000000E+00 0.  1.
         13    1    1    2    0    0 -0.41138120872E+02  0.14334081354E+03 -0.15615476453E+03  0.21592418916E+03  0.10566000000E+00 0. -1.
          4    1    1    2  501    0  0.11257219563E+03  0.92723794956E+02  0.56557075503E+03  0.58407232457E+03  0.00000000000E+00 0.  1.
</event>
<event>
 5    1  0.1196676E-004  0.4818432E+03  0.7818608E-02  0.9700424E-01
          4   -1    0    0  502    0 -0.00000000000E+00  0.00000000000E+00  0.77773281445E+03  0.77773281445E+03  0.00000000000E+00 0.  1.
         21   -1    0    0  501  502  0.00000000000E+00 -0.00000000000E+00 -0.53148018496E+03  0.53148018496E+03  0.00000000000E+00 0.  1.
        -13    1    1    2    0    0  0.49843879147E+03  0.25669042260E+02  0.25464428147E+03  0.56030692466E+03  0.10566000000E+00 0.  1.
         13    1    1    2    0    0 -0.79506860405E+02  0.23991562525E+03 -0.82946313499E+01  0.25288270041E+03  0.10566000000E+00 0. -1.
          4    1    1    2  501    0 -0.41893193106E+03 -0.26558466751E+03 -0.97020636063E-01  0.49602337434E+03  0.00000000000E+00 0.  1.
</event>
<event>
 5    1  0.1196676E-004  0.6747491E+03  0.7818608E-02  0.9160435E-01
         -4   -1    0    0    0  501 -0.00000000000E+00  0.00000000000E+00  0.19761444505E+04  0.19761444505E+04  0.00000000000E+00 0. -1.
         21   -1    0    0  501  502  0.00000000000E+00 -0.00000000000E+00 -0.59228605107E+03  0.59228605107E+03  0.00000000000E+00 0.  1.
        -13    1    1    2    0    0 -0.39033547432E+03 -0.64346400395E+03  0.10213226828E+04  0.12686637618E+04  0.10566000000E+00 0.  1.
         13    1    1    2    0    0 -0.18646213999E+03  0.63015691942E+03  0.95692626633E+02  0.66409559756E+03  0.10566000000E+00 0. -1.
         -4    1    1    2    0  502  0.57679761432E+03  0.13307084526E+02  0.26684308998E+03  0.63567114222E+03  0.00000000000E+00 0. -1.
</event>
<event>
 5    1  0.1196676E-004  0.3923662E+03  0.7818608E-02  0.9960840E-01
         -4   -1    0    0    0  501 -0.00000000000E+00  0.00000000000E+00  0.21290510940E+04  0.21290510940E+04  0.00000000000E+00 0. -1.
         21   -1    0    0  501  502  0.00000000000E+00 -0.00000000000E+00 -0.19493034383E+03  0.19493034383E+03  0.00000000000E+00 0. -1.
        -13    1    1    2    0    0 -0.12810880805E+03  0.14496575907E+03  0.70857716773E+03  0.73451245857E+03  0.10566000000E+00 0.  1.
         13    1    1    2    0    0  0.62808101698E+02  0.36248684920E+03  0.14784018568E+03  0.39648241468E+03  0.10566000000E+00 0. -1.
         -4    1    1    2    0  502  0.65300706347E+02 -0.50745260827E+03  0.10777033968E+04  0.11929865646E+04  0.00000000000E+00 0. -1.
</event>
<event>
 5    1  0.1196676E-004  0.7372000E+03  0.7818608E-02  0.9070693E-01
          4   -1    0    0  502    0 -0.00000000000E+00  0.00000000000E+00  0.28160195445E+04  0.28160195445E+04  0.00000000000E+00 0.  1.
         21   -1    0    0  501  502  0.00000000000E+00 -0.00000000000E+00 -0.46375399120E+03  0.46375399120E+03  0.00000000000E+00 0.  1.
        -13    1    1    2    0    0 -0.52930705745E+03  0.53204375228E+03  0.18941530991E+04  0.20374131857E+04  0.10566000000E+00 0.  1.
         13    1    1    2    0    0  0.72690821718E+03 -0.21436278471E+03  0.18773370856E+03  0.78076303458E+03  0.10566000000E+00 0. -1.
          4    1    1    2  501    0 -0.19760115973E+03 -0.31768096757E+03  0.27037874566E+03  0.46159731540E+03  0.00000000000E+00 0.  1.
</event>
<event>
 5    1  0.1196676E-004  0.9102800E+02  0.7818608E-02  0.1180319E+00
         -4   -1    0    0    0  501 -0.00000000000E+00  0.00000000000E+00  0.68857474058E+02  0.68857474058E+02  0.00000000000E+00 0. -1.
         21   -1    0    0  501  502  0.00000000000E+00 -0.00000000000E+00 -0.37796046568E+03  0.37796046568E+03  0.00000000000E+00 0.  1.
        -13    1    1    2    0    0  0.23077032578E+02 -0.92006003647E+02 -0.10968506882E+03  0.14501199821E+03  0.10566000000E+00 0.  1.
         13    1    1    2    0    0 -0.68795867835E+02  0.63747027610E+02  0.15216476598E+01  0.93802353573E+02  0.10566000000E+00 0. -1.
         -4    1    1    2    0  502  0.45718835256E+02  0.28258976037E+02 -0.20093957046E+03  0.20800358795E+03  0.00000000000E+00 0. -1.
</event>
<event>
 5    1  0.1196676E-004  0.3050947E+03  0.7818608E-02  0.1029748E+00
         21   -1    0    0  501  502  0.00000000000E+00  0.00000000000E+00  0.23826766129E+03  0.23826766129E+03  0.00000000000E+00 0.  1.
          4   -1    0    0  502    0 -0.00000000000E+00 -0.00000000000E+00 -0.15911215673E+04  0.15911215673E+04  0.00000000000E+00 0.  1.
        -13    1    1    2    0    0  0.23655182397E+03 -0.15094978916E+03 -0.59670132191E+03  0.65938993244E+03  0.10566000000E+00 0.  1.
         13    1    1    2    0    0  0.76522462733E+02  0.11761183795E+03 -0.83396124021E+03  0.84568291520E+03  0.10566000000E+00 0. -1.
          4    1    1    2  501    0 -0.31307428670E+03  0.33337951215E+02  0.77808656113E+02  0.32431638095E+03  0.00000000000E+00 0.  1.
</event>
<event>
 5    1  0.1196676E-004  0.4359731E+03  0.7818608E-02  0.9835229E-01
         21   -1    0    0  501  502  0.00000000000E+00  0.00000000000E+00  0.51871089605E+03  0.51871089605E+03  0.00000000000E+00 0.  1.
         -4   -1    0    0    0  501 -0.00000000000E+00 -0.00000000000E+00 -0.10940082193E+04  0.10940082193E+04  0.00000000000E+00 0. -1.
        -13    1    1    2    0    0 -0.21347565971E+03  0.23040305927E+02  0.22541792207E+03  0.31131328873E+03  0.10566000000E+00 0.  1.
         13    1    1    2    0    0  0.55009060914E+03  0.17650609601E+03 -0.67918184664E+03  0.89165131760E+03  0.10566000000E+00 0. -1.
         -4    1    1    2    0  502 -0.33661494943E+03 -0.19954640194E+03 -0.12153339872E+03  0.40975450908E+03  0.00000000000E+00 0. -1.
</event>
<event>
 5    1  0.1196676E-004  0.2035224E+02  0.7818608E-02  0.1540938E+00
         21   -1    0    0  501  502  0.00000000000E+00  0.00000000000E+00  0.39384927283E+02  0.39384927283E+02  0.00000000000E+00 0.  1.
          4   -1    0    0  502    0 -0.00000000000E+00 -0.00000000000E+00 -0.41104007340E+02  0.41104007340E+02  0.00000000000E+00 0.  1.
        -13    1    1    2    0    0  0.21487146761E+02 -0.12351573734E+02 -0.24948070415E+02  0.35166407708E+02  0.10566000000E+00 0.  1.
         13    1    1    2    0    0 -0.11187160255E+02 -0.49848592663E+01 -0.26331733970E+01  0.12527814760E+02  0.10566000000E+00 0. -1.
          4    1    1    2  501    0 -0.10299986505E+02  0.17336433001E+02  0.25862163755E+02  0.32794712155E+02  0.00000000000E+00 0.  1.
</event>
<event>
 5    1  0.1196676E-004  0.5399702E+03  0.7818608E-02  0.9394420E-01
         21   -1    0    0  501  502  0.00000000000E+00  0.00000000000E+00  0.70851662483E+03  0.70851662483E+03  0.00000000000E+00 0.  1.
         -4   -1    0    0    0  501 -0.00000000000E+00 -0.00000000000E+00 -0.10516816475E+04  0.10516816475E+04  0.00000000000E+00 0. -1.
        -13    1    1    2    0    0 -0.24189663384E+03 -0.50294866485E+03 -0.24718727370E+03  0.61038750018E+03  0.10566000000E+00 0.  1.
         13    1    1    2    0    0  0.57333516145E+03  0.20842609552E+03 -0.27813882466E+03  0.67045944068E+03  0.10566000000E+00 0. -1.
         -4    1    1    2    0  502 -0.33143852761E+03  0.29452256933E+03  0.18216107573E+03  0.47935133143E+03  0.00000000000E+00 0. -1.
</event>
<event>
 5    1  0.1196676E-004  0.7050782E+02  0.7818608E-02  0.1225401E+00
         -4   -1    0    0    0  501 -0.00000000000E+00  0.00000000000E+00  0.71017192312E+02  0.71017192312E+02  0.00000000000E+00 0. -1.
         21   -1    0    0  501  502  0.00000000000E+00 -0.00000000000E+00 -0.54691625132E+03  0.54691625132E+03  0.00000000000E+00 0. -1.
        -13    1    1    2    0    0  0.70243072647E+02 -0.27349649751E+00 -0.67807328703E+02  0.97632008302E+02  0.10566000000E+00 0.  1.
         13    1    1    2    0    0 -0.49655851712E+02  0.59076676940E+02  0.26248626236E+02  0.81515390638E+02  0.10566000000E+00 0. -1.
         -4    1    1    2    0  502 -0.20587220935E+02 -0.58803180443E+02 -0.43434035654E+03  0.43878604469E+03  0.00000000000E+00 0. -1.
</event>
<event>
 5    1  0.1196676E-004  0.5943605E+03  0.7818608E-02  0.9292165E-01
         21   -1    0    0  501  502  0.00000000000E+00  0.00000000000E+00  0.37501298771E+03  0.37501298771E+03  0.00000000000E+00 0.  1.
          4   -1    0    0  502    0 -0.00000000000E+00 -0.00000000000E+00 -0.18464931115E+04  0.18464931115E+04  0.00000000000E+00 0.  1.
        -13    1    1    2    0    0  0.71108438763E+03 -0.20651460143E+03 -0.41661697899E+03  0.84962286062E+03  0.10566000000E+00 0.  1.
         13    1    1    2    0    0 -0.41462898033E+03  0.34195196102E+03 -0.53526727638E+03  0.75852449090E+03  0.10566000000E+00 0. -1.
          4    1    1    2  501    0 -0.29645540730E+03 -0.13543735960E+03 -0.51959586847E+03  0.61335874774E+03  0.00000000000E+00 0.  1.
</event>
<event>
 5    1  0.1196676E-004  0.1545970E+03  0.7818608E-02  0.1106256E+00
         21   -1    0    0  501  502  0.00000000000E+00  0.00000000000E+00  0.87873438946E+03  0.87873438946E+03  0.00000000000E+00 0. -1.
         -4   -1    0    0    0  501 -0.00000000000E+00 -0.00000000000E+00 -0.52533225756E+03  0.52533225756E+03  0.00000000000E+00 0. -1.
        -13    1    1    2    0    0 -0.52165661013E+02 -0.10729056328E+03 -0.21110097876E+03  0.24247918582E+03  0.10566000000E+00 0.  1.
         13    1    1    2    0    0 -0.12571873213E+03  0.90774619917E+02  0.82846567536E+03  0.84285266663E+03  0.10566000000E+00 0. -1.
         -4    1    1    2    0  502  0.17788439314E+03  0.16515943367E+02 -0.26396256470E+03  0.31873479457E+03  0.00000000000E+00 0. -1.
</event>
<event>
 5    1  0.1196676E-004  0.5014955E+03  0.7818608E-02  0.1007201E+00
         21   -1    0    0  501  502  0.00000000000E+00  0.00000000000E+00  0.12817060358E+04  0.12817060358E+04  0.00000000000E+00 0. -1.
         -4   -1    0    0    0  501 -0.00000000000E+00 -0.00000000000E+00 -0.24207326132E+03  0.24207326132E+03  0.00000000000E+00 0. -1.
        -13    1    1    2    0    0 -0.43620948627E+02 -0.47429838452E+02 -0.15261290594E+02  0.66221559098E+02  0.10566000000E+00 0.  1.
         13    1    1    2    0    0  0.43298946042E+03  0.30867413098E+03  0.63396338408E+03  0.82744738533E+03  0.10566000000E+00 0. -1.
         -4    1    1    2    0  502 -0.38936851180E+03 -0.26124429253E+03  0.42093068095E+03  0.63011035265E+03  0.00000000000E+00 0. -1.
</event>
<event>
 5    1  0.2153148E-004  0.4986582E+03  0.7818608E-02  0.1000146E+00
         21   -1    0    0  501  502  0.00000000000E+00  0.00000000000E+00  0.20903216456E+03  0.20903216456E+03  0.00000000000E+00 0. -1.
         -4   -1    0    0    0  501 -0.00000000000E+00 -0.00000000000E+00 -0.15047673191E+04  0.15047673191E+04  0.00000000000E+00 0. -1.
        -13    1    1    2    0    0  0.14968531344E+02  0.81084049910E+02 -0.26218127635E+03  0.27484125039E+03  0.10566000000E+00 0.  1.
         13    1    1    2    0    0 -0.11306325769E+03  0.44562238498E+03 -0.55405415178E+03  0.71995737687E+03  0.10566000000E+00 0. -1.
         -4    1    1    2    0  502  0.98094726343E+02 -0.52670643489E+03 -0.47949972640E+03  0.71900085640E+03  0.00000000000E+00 0. -1.
</event>
<event>
 5    1  0.1196676E-004  0.4979685E+03  0.7818608E-02  0.9817792E-01
          4   -1    0    0  502    0 -0.00000000000E+00  0.00000000000E+00  0.29318606120E+04  0.29318606120E+04  0.00000000000E+00 0.  1.
         21   -1    0    0  501  502  0.00000000000E+00 -0.00000000000E+00 -0.13618365412E+03  0.13618365412E+03  0.00000000000E+00 0.  1.
        -13    1    1    2    0    0 -0.46613917913E+03  0.26384921757E+02  0.11702303680E+04  0.12599289757E+04  0.10566000000E+00 0.  1.
         13    1    1    2    0    0 -0.47074731647E+02 -0.14545209892E+03  0.89230788333E+03  0.90530973333E+03  0.10566000000E+00 0. -1.
          4    1    1    2  501    0  0.51321391078E+03  0.11906717717E+03  0.73313870651E+03  0.90280555707E+03  0.00000000000E+00 0.  1.
</event>
<event>
 5    1  0.1196676E-004  0.4805843E+03  0.7818608E-02  0.9773074E-01
         21   -1    0    0  501  502  0.00000000000E+00  0.00000000000E+00  0.19764221952E+03  0.19764221952E+03  0.00000000000E+00 0.  1.
          4   -1    0    0  502    0 -0.00000000000E+00 -0.00000000000E+00 -0.19990041745E+04  0.19990041745E+04  0.00000000000E+00 0.  1.
        -13    1    1    2    0    0  0.33544828558E+03  0.19546359347E+03 -0.85772740799E+03  0.94150299323E+03  0.10566000000E+00 0.  1.
         13    1    1    2    0    0  0.39730574203E+02  0.19413379806E+03 -0.55446749551E+03  0.58881292854E+03  0.10566000000E+00 0. -1.
          4    1    1    2  501    0 -0.37517885978E+03 -0.38959739153E+03 -0.38916705151E+03  0.66633047228E+03  0.00000000000E+00 0.  1.
</event>
<event>
 5    1  0.1196676E-004  0.1831304E+03  0.7818608E-02  0.1088402E+00
         -4   -1    0    0    0  501 -0.00000000000E+00  0.00000000000E+00  0.24351722416E+03  0.24351722416E+03  0.00000000000E+00 0. -1.
         21   -1    0    0  501  502  0.00000000000E+00 -0.00000000000E+00 -0.16275688623E+04  0.16275688623E+04  0.00000000000E+00 0. -1.
        -13    1    1    2    0    0 -0.13011970821E+02  0.11598059702E+03  0.49577602347E+02  0.12680205080E+03  0.10566000000E+00 0.  1.
         13    1    1    2    0    0 -0.16919587850E+03 -0.13433670376E+03  0.71874633650E+02  0.22768304593E+03  0.10566000000E+00 0. -1.
         -4    1    1    2    0  502  0.18220784932E+03  0.18356106741E+02 -0.15055038741E+04  0.15166009897E+04  0.00000000000E+00 0. -1.
</event>
<event>
 5    1  0.1196676E-004  0.1769770E+03  0.7818608E-02  0.1077179E+00
         21   -1    0    0  501  502  0.00000000000E+00  0.00000000000E+00  0.11355727350E+03  0.11355727350E+03  0.00000000000E+00 0.  1.
         -4   -1    0    0    0  501 -0.00000000000E+00 -0.00000000000E+00 -0.12379109106E+04  0.12379109106E+04  0.00000000000E+00 0. -1.
        -13    1    1    2    0    0 -0.11941861806E+03 -0.13780275169E+03  0.55890714937E+01  0.18243260015E+03  0.10566000000E+00 0.  1.
         13    1    1    2    0    0  0.17243224854E+03  0.48418672852E+02 -0.88529908948E+03  0.90323404343E+03  0.10566000000E+00 0. -1.
         -4    1    1    2    0  502 -0.53013630483E+02  0.89384078839E+02 -0.24464361910E+03  0.26580154050E+03  0.00000000000E+00 0. -1.
</event>
<event>
 5    1  0.1196676E-004  0.1679797E+03  0.7818608E-02  0.1084618E+00
         21   -1    0    0  501  502  0.00000000000E+00  0.00000000000E+00  0.11774591274E+03  0.11774591274E+03  0.00000000000E+00 0. -1.
          4   -1    0    0  502    0 -0.00000000000E+00 -0.00000000000E+00 -0.37066951507E+03  0.37066951507E+03  0.00000000000E+00 0.  1.
        -13    1    1    2    0    0  0.16866449279E+03  0.71019281462E+02 -0.21329989997E+03  0.28104858648E+03  0.10566000000E+00 0.  1.
         13    1    1    2    0    0 -0.12125574930E+03 -0.59798039140E+02  0.12796197252E+02  0.13580322548E+03  0.10566000000E+00 0. -1.
          4    1    1    2  501    0 -0.47408743486E+02 -0.11221242322E+02 -0.52419899607E+02  0.71563615846E+02  0.00000000000E+00 0.  1.
</event>
<event>
 5    1  0.1196676E-004  0.3907726E+03  0.7818608E-02  0.9756079E-01
         21   -1    0    0  501  502  0.00000000000E+00  0.00000000000E+00  0.99008894659E+03  0.99008894659E+03  0.00000000000E+00 0.  1.
          4   -1    0    0  502    0 -0.00000000000E+00 -0.00000000000E+00 -0.52594825454E+03  0.52594825454E+03  0.00000000000E+00 0.  1.
        -13    1    1    2    0    0  0.31512826305E+03  0.42228851951E+03 -0.78860852072E+02  0.53277805983E+03  0.10566000000E+00 0.  1.
         13    1    1    2    0    0 -0.16505637144E+03 -0.27059657935E+03 -0.78168660794E+02  0.32646051094E+03  0.10566000000E+00 0. -1.
          4    1    1    2  501    0 -0.15007189161E+03 -0.15169194015E+03  0.62117020492E+03  0.65679863035E+03  0.00000000000E+00 0.  1.
</event>
<event>
 5    1  0.1196676E-004  0.5041600E+03  0.7818608E-02  0.9555011E-01
         21   -1    0    0  501  502  0.00000000000E+00  0.00000000000E+00  0.54977578393E+03  0.54977578393E+03  0.00000000000E+00 0.  1.
          4   -1    0    0  502    0 -0.00000000000E+00 -0.00000000000E+00 -0.21071295916E+04  0.21071295916E+04  0.00000000000E+00 0.  1.
        -13    1    1    2    0    0 -0.19919558422E+03 -0.21160349149E+03 -0.74003602446E+03  0.79505235491E+03  0.10566000000E+00 0.  1.
         13    1    1    2    0    0  0.69740847003E+03  0.28881243669E+03 -0.10608174804E+04  0.13019696370E+04  0.10566000000E+00 0. -1.
          4    1    1    2  501    0 -0.49821288581E+03 -0.77208945195E+02  0.24349969718E+03  0.55988338369E+03  0.00000000000E+00 0.  1.
</event>
<event>
 5    1  0.1196676E-004  0.4486856E+03  0.7818608E-02  0.9707604E-01
          4   -1    0    0  502    0 -0.00000000000E+00  0.00000000000E+00  0.12874173015E+04  0.12874173015E+04  0.00000000000E+00 0.  1.
         21   -1    0    0  501  502  0.00000000000E+00 -0.00000000000E+00 -0.55824007467E+03  0.55824007467E+03  0.00000000000E+00 0.  1.
        -13    1    1    2    0    0 -0.29008196480E+03 -0.24244343827E+03 -0.98663106981E+02  0.39071829609E+03  0.10566000000E+00 0.  1.
         13    1    1    2    0    0 -0.55209109493E+02 -0.30026672151E+03  0.74657141516E+03  0.80658355978E+03  0.10566000000E+00 0. -1.
          4    1    1    2  501    0  0.34529107429E+03  0.54271015977E+03  0.81268918617E+02  0.64835552025E+03  0.00000000000E+00 0.  1.
</event>
<event>
 5    1  0.1196676E-004  0.4497865E+03  0.7818608E-02  0.9595391E-01
          4   -1    0    0  502    0 -0.00000000000E+00  0.00000000000E+00  0.21207725026E+03  0.21207725026E+03  0.00000000000E+00 0.  1.
         21   -1    0    0  501  502  0.00000000000E+00 -0.00000000000E+00 -0.19906791660E+04  0.19906791660E+04  0.00000000000E+00 0. -1.
        -13    1    1    2    0    0  0.39180079748E+03  0.22453690504E+02 -0.97716482268E+03  0.10530257048E+04  0.10566000000E+00 0.  1.
         13    1    1    2    0    0 -0.46295639027E+03 -0.70498664344E+02 -0.14864778719E+03  0.49131950578E+03  0.10566000000E+00 0. -1.
          4    1    1    2  501    0  0.71155592789E+02  0.48044973840E+02 -0.65278930583E+03  0.65841120563E+03  0.00000000000E+00 0.  1.
</event>
<event>
 5    1  0.1196676E-004  0.4640478E+03  0.7818608E-02  0.9945433E-01
         21   -1    0    0  501  502  0.00000000000E+00  0.00000000000E+00  0.26927850845E+03  0.26927850845E+03  0.00000000000E+00 0.  1.
          4   -1    0    0  502    0 -0.00000000000E+00 -0.00000000000E+00 -0.13361603245E+04  0.13361603245E+04  0.00000000000E+00 0.  1.
        -13    1    1    2    0    0 -0.41596897383E+03  0.24486657554E+03 -0.10670522523E+03  0.49434385124E+03  0.10566000000E+00 0.  1.
         13    1    1    2    0    0  0.17186987209E+02 -0.12185489462E+03 -0.11467132905E+03  0.16820681539E+03  0.10566000000E+00 0. -1.
          4    1    1    2  501    0  0.39878198662E+03 -0.12301168092E+03 -0.84550526173E+03  0.94288816628E+03  0.00000000000E+00 0.  1.
</event>
<event>
 5    1  0.1196676E-004  0.1814211E+03  0.7818608E-02  0.1073677E+00
         21   -1    0    0  501  502  0.00000000000E+00  0.00000000000E+00  0.39686209524E+03  0.39686209524E+03  0.00000000000E+00 0. -1.
          4   -1    0    0  502    0 -0.00000000000E+00 -0.00000000000E+00 -0.26498406723E+03  0.26498406723E+03  0.00000000000E+00 0.  1.
        -13    1    1    2    0    0  0.16998057654E+03 -0.69808599815E+02 -0.20502912612E+03  0.27532451894E+03  0.10566000000E+00 0.  1.
         13    1    1    2    0    0 -0.15061859853E+03  0.61357996166E+02  0.25924278529E+03  0.30603529013E+03  0.10566000000E+00 0. -1.
          4    1    1    2  501    0 -0.19361978010E+02  0.84506036490E+01  0.77664368847E+02  0.80486353396E+02  0.00000000000E+00 0.  1.
</event>
<event>
 5    1  0.1196676E-004  0.3993407E+02  0.7818608E-02  0.1339241E+00
          4   -1    0    0  502    0 -0.00000000000E+00  0.00000000000E+00  0.88692402912E+02  0.88692402912E+02  0.00000000000E+00 0.  1.
         21   -1    0    0  501  502  0.00000000000E+00 -0.00000000000E+00 -0.35938882694E+02  0.35938882694E+02  0.00000000000E+00 0. -1.
        -13    1    1    2    0    0  0.51009419241E+01  0.42742109393E+02  0.58803519560E+02  0.72875047860E+02  0.10566000000E+00 0.  1.
         13    1    1    2    0    0  0.35942429238E+01 -0.29638991989E+02 -0.15262007422E+02  0.33531007484E+02  0.10566000000E+00 0. -1.
          4    1    1    2  501    0 -0.86951848479E+01 -0.13103117405E+02  0.92120080806E+01  0.18225230263E+02  0.00000000000E+00 0.  1.
</event>
<event>
 5    1  0.1196676E-004  0.2966795E+03  0.7818608E-02  0.1015535E+00
         21   -1    0    0  501  502  0.00000000000E+00  0.00000000000E+00  0.18678153038E+03  0.18678153038E+03  0.00000000000E+00 0.  1.
          4   -1    0    0  502    0 -0.00000000000E+00 -0.00000000000E+00 -0.24062260630E+04  0.24062260630E+04  0.00000000000E+00 0.  1.
        -13    1    1    2    0    0 -0.26225620571E+03 -0.11477095808E+03 -0.16214536450E+02  0.28672916246E+03  0.10566000000E+00 0.  1.
         13    1    1    2    0    0 -0.47506273518E+01 -0.23823455867E+03 -0.82485853005E+03  0.85858597657E+03  0.10566000000E+00 0. -1.
          4    1    1    2  501    0  0.26700683306E+03  0.35300551676E+03 -0.13783714661E+04  0.14476924543E+04  0.00000000000E+00 0.  1.
</event>
<event>
 5    1  0.1196676E-004  0.1454439E+03  0.7818608E-02  0.1105694E+00
         -4   -1    0    0    0  501 -0.00000000000E+00  0.00000000000E+00  0.11284749303E+04  0.11284749303E+04  0.00000000000E+00 0. -1.
         21   -1    0    0  501  502  0.00000000000E+00 -0.00000000000E+00 -0.32073411242E+03  0.32073411242E+03  0.00000000000E+00 0. -1.
        -13    1    1    2    0    0  0.80793042051E+02  0.13571571811E+03  0.23807028327E+03  0.28569869220E+03  0.10566000000E+00 0.  1.
         13    1    1    2    0    0 -0.53600264246E+02 -0.13226242020E+03  0.86006521872E+03  0.87182482629E+03  0.10566000000E+00 0. -1.
         -4    1    1    2    0  502 -0.27192777805E+02 -0.34532979045E+01 -0.29039468416E+03  0.29168552418E+03  0.00000000000E+00 0. -1.
</event>
<event>
 5    1  0.1196676E-004  0.4838181E+03  0.7818608E-02  0.9868902E-01
         -4   -1    0    0    0  501 -0.00000000000E+00  0.00000000000E+00  0.15328447898E+04  0.15328447898E+04  0.00000000000E+00 0. -1.
         21   -1    0    0  501  502  0.00000000000E+00 -0.00000000000E+00 -0.22152648025E+03  0.22152648025E+03  0.00000000000E+00 0. -1.
        -13    1    1    2    0    0  0.90258811323E+02 -0.10730047372E+03  0.17969472893E+03  0.22792597801E+03  0.10566000000E+00 0.  1.
         13    1    1    2    0    0 -0.41647283731E+02  0.55333126307E+03  0.77571325360E+03  0.95375103980E+03  0.10566000000E+00 0. -1.
         -4    1    1    2    0  502 -0.48611527592E+02 -0.44603078935E+03  0.35591032699E+03  0.57269425221E+03  0.00000000000E+00 0. -1.
</event>
<event>
 5    1  0.1196676E-004  0.3080886E+03  0.7818608E-02  0.1004021E+00
         21   -1    0    0  501  502  0.00000000000E+00  0.00000000000E+00  0.49095305197E+03  0.49095305197E+03  0.00000000000E+00 0.  1.
         -4   -1    0    0    0  501 -0.00000000000E+00 -0.00000000000E+00 -0.60743635185E+03  0.60743635185E+03  0.00000000000E+00 0. -1.
        -13    1    1    2    0    0 -0.16839927891E+03 -0.26898682033E+03  0.12246388402E+03  0.34016119811E+03  0.10566000000E+00 0.  1.
         13    1    1    2    0    0  0.16354981670E+03  0.25886934838E+03 -0.45141197537E+03  0.54546738193E+03  0.10566000000E+00 0. -1.
         -4    1    1    2    0  502  0.48494622093E+01  0.10117471953E+02  0.21246479147E+03  0.21276082379E+03  0.00000000000E+00 0. -1.
</event>
<event>
 5    1  0.1196676E-004  0.4743532E+03  0.7818608E-02  0.9718997E-01
         21   -1    0    0  501  502  0.00000000000E+00  0.00000000000E+00  0.15362301602E+04  0.15362301602E+04  0.00000000000E+00 0.  1.
          4   -1    0    0  502    0 -0.00000000000E+00 -0.00000000000E+00 -0.25514267247E+03  0.25514267247E+03  0.00000000000E+00 0.  1.
        -13    1    1    2    0    0  0.15092738581E+03 -0.39257975473E+03  0.22013402111E+03  0.47471774564E+03  0.10566000000E+00 0.  1.
         13    1    1    2    0    0  0.24511942085E+03  0.39913929474E+02  0.30689501031E+03  0.39479261741E+03  0.10566000000E+00 0. -1.
          4    1    1    2  501    0 -0.39604680667E+03  0.35266582525E+03  0.75405845633E+03  0.92186246964E+03  0.00000000000E+00 0.  1.
</event>
<event>
 5    1  0.1196676E-004  0.2835085E+03  0.7818608E-02  0.1014355E+00
         21   -1    0    0  501  502  0.00000000000E+00  0.00000000000E+00  0.11086317985E+03  0.11086317985E+03  0.00000000000E+00 0. -1.
          4   -1    0    0  502    0 -0.00000000000E+00 -0.00000000000E+00 -0.13815647992E+04  0.13815647992E+04  0.00000000000E+00 0.  1.
        -13    1    1    2    0    0  0.60840693796E+02 -0.28772255124E+03 -0.59536269991E+03  0.66403509856E+03  0.10566000000E+00 0.  1.
         13    1    1    2    0    0  0.40438617679E+02  0.27989069149E+03 -0.66934572119E+03  0.72663456195E+03  0.10566000000E+00 0. -1.
          4    1    1    2  501    0 -0.10127931148E+03  0.78318597491E+01 -0.59931982219E+01  0.10175831851E+03  0.00000000000E+00 0.  1.
</event>
<event>
 5    1  0.1196676E-004  0.2987802E+03  0.7818608E-02  0.1038421E+00
         21   -1    0    0  501  502  0.00000000000E+00  0.00000000000E+00  0.80486681797E+03  0.80486681797E+03  0.00000000000E+00 0. -1.
         -4   -1    0    0    0  501 -0.00000000000E+00 -0.00000000000E+00 -0.42479886000E+03  0.42479886000E+03  0.00000000000E+00 0. -1.
        -13    1    1    2    0    0 -0.10792505573E+03  0.38318582327E+02 -0.65816651045E+02  0.13209077986E+03  0.10566000000E+00 0.  1.
         13    1    1    2    0    0  0.33577962571E+03 -0.21427408467E+03 -0.15805060806E+03  0.42853394997E+03  0.10566000000E+00 0. -1.
         -4    1    1    2    0  502 -0.22785456998E+03  0.17595550234E+03  0.60393521708E+03  0.66904094814E+03  0.00000000000E+00 0. -1.
</event>
<event>
 5    1  0.1196676E-004  0.9037384E+02  0.7818608E-02  0.1181546E+00
         21   -1    0    0  501  502  0.00000000000E+00  0.00000000000E+00  0.15948028965E+03  0.15948028965E+03  0.00000000000E+00 0. -1.
         -4   -1    0    0    0  501 -0.00000000000E+00 -0.00000000000E+00 -0.87516359626E+02  0.87516359626E+02  0.00000000000E+00 0. -1.
        -13    1    1    2    0    0 -0.75780402804E+02 -0.31987524951E+02  0.15691900354E+02  0.83738390852E+02  0.10566000000E+00 0.  1.
         13    1    1    2    0    0  0.80360273396E+02  0.58883929464E+02 -0.12074742736E+01  0.99632122569E+02  0.10566000000E+00 0. -1.
         -4    1    1    2    0  502 -0.45798705919E+01 -0.26896404512E+02  0.57479503948E+02  0.63626135859E+02  0.00000000000E+00 0. -1.
</event>
<event>
 5    1  0.1196676E-004  0.4978419E+03  0.7818608E-02  0.9760416E-01
          4   -1    0    0  502    0 -0.00000000000E+00  0.00000000000E+00  0.13827543544E+04  0.13827543544E+04  0.00000000000E+00 0.  1.
         21   -1    0    0  501  502  0.00000000000E+00 -0.00000000000E+00 -0.28106035961E+03  0.28106035961E+03  0.00000000000E+00 0.  1.
        -13    1    1    2    0    0 -0.33033430208E+03 -0.31820926103E+03  0.35758693429E+03  0.58158947006E+03  0.10566000000E+00 0.  1.
         13    1    1    2    0    0  0.70636203694E+02 -0.17226250195E+03  0.36614714120E+03  0.41076463215E+03  0.10566000000E+00 0. -1.
          4    1    1    2  501    0  0.25969809839E+03  0.49047176298E+03  0.37795991925E+03  0.67146061176E+03  0.00000000000E+00 0.  1.
</event>
<event>
 5    1  0.1196676E-004  0.3493956E+03  0.7818608E-02  0.9887793E-01
         21   -1    0    0  501  502  0.00000000000E+00  0.00000000000E+00  0.25554968293E+03  0.25554968293E+03  0.00000000000E+00 0.  1.
          4   -1    0    0  502    0 -0.00000000000E+00 -0.00000000000E+00 -0.92845672445E+03  0.92845672445E+03  0.00000000000E+00 0.  1.
        -13    1    1    2    0    0 -0.24424932767E+03 -0.25683580192E+03 -0.58960084127E+03  0.68793279207E+03  0.10566000000E+00 0.  1.
         13    1    1    2    0    0  0.26542325208E+03  0.21400118162E+03 -0.18195421464E+03  0.38646261899E+03  0.10566000000E+00 0. -1.
          4    1    1    2  501    0 -0.21173924412E+02  0.42834620297E+02  0.98648014396E+02  0.10961099632E+03  0.00000000000E+00 0.  1.
</event>
<event>
 5    1  0.1196676E-004  0.3773210E+03  0.7818608E-02  0.9796929E-01
         -4   -1    0    0    0  501 -0.00000000000E+00  0.00000000000E+00  0.21793092395E+04  0.21793092395E+04  0.00000000000E+00 0. -1.
         21   -1    0    0  501  502  0.00000000000E+00 -0.00000000000E+00 -0.58404743685E+03  0.58404743685E+03  0.00000000000E+00 0. -1.
        -13    1    1    2    0    0  0.38820971244E+03 -0.68711390312E+01  0.16319002087E+04  0.16774541113E+04  0.10566000000E+00 0.  1.
         13    1    1    2    0    0 -0.12329152379E+03  0.46121091499E+02 -0.51832145859E+03  0.53477574788E+03  0.10566000000E+00 0. -1.
         -4    1    1    2    0  502 -0.26491818865E+03 -0.39249952468E+02  0.48168305253E+03  0.55112681711E+03  0.00000000000E+00 0. -1.
</event>
<event>
 5    1  0.1196676E-004  0.2581086E+03  0.7818608E-02  0.1028799E+00
         -4   -1    0    0    0  501 -0.00000000000E+00  0.00000000000E+00  0.14926522382E+04  0.14926522382E+04  0.00000000000E+00 0. -1.
         21   -1    0    0  501  502  0.00000000000E+00 -0.00000000000E+00 -0.11544785448E+03  0.11544785448E+03  0.00000000000E+00 0.  1.
        -13    1    1    2    0    0  0.13120986979E+03 -0.19934069933E+03  0.27135488777E+03  0.36136716871E+03  0.10566000000E+00 0.  1.
         13    1    1    2    0    0  0.14484740539E+03  0.24672171869E+03  0.44573332684E+03  0.52965138265E+03  0.10566000000E+00 0. -1.
         -4    1    1    2    0  502 -0.27605727518E+03 -0.47381019368E+02  0.66011616915E+03  0.71708154135E+03  0.00000000000E+00 0. -1.
</event>
<event>
 5    1  0.1196676E-004  0.1859127E+03  0.7818608E-02  0.1070247E+00
         21   -1    0    0  501  502  0.00000000000E+00  0.00000000000E+00  0.42173565587E+02  0.42173565587E+02  0.00000000000E+00 0. -1.
          4   -1    0    0  502    0 -0.00000000000E+00 -0.00000000000E+00 -0.10020240590E+04  0.10020240590E+04  0.00000000000E+00 0.  1.
        -13    1    1    2    0    0 -0.17819170874E+03  0.62506858385E+02 -0.66888828493E+03  0.69503305050E+03  0.10566000000E+00 0.  1.
         13    1    1    2    0    0  0.17259469688E+03 -0.51432794530E+02 -0.27785447241E+03  0.33111535867E+03  0.10566000000E+00 0. -1.
          4    1    1    2  501    0  0.55970118582E+01 -0.11074063855E+02 -0.13107736049E+02  0.18049215394E+02  0.00000000000E+00 0.  1.
</event>
<event>
 5    1  0.1196676E-004  0.4853359E+03  0.7818608E-02  0.9779233E-01
         21   -1    0    0  501  502  0.00000000000E+00  0.00000000000E+00  0.19524751874E+03  0.19524751874E+03  0.00000000000E+00 0.  1.
          4   -1    0    0  502    0 -0.00000000000E+00 -0.00000000000E+00 -0.21412486253E+04  0.21412486253E+04  0.00000000000E+00 0.  1.
        -13    1    1    2    0    0 -0.14215883812E+03  0.57206702082E+03 -0.75693921034E+03  0.95938875899E+03  0.10566000000E+00 0.  1.
         13    1    1    2    0    0  0.11302224219E+03 -0.15069825147E+03 -0.72734252179E+03  0.75133956730E+03  0.10566000000E+00 0. -1.
          4    1    1    2  501    0  0.29136595922E+02 -0.42136876935E+03 -0.46171937441E+03  0.62576781773E+03  0.00000000000E+00 0.  1.
</event>
<event>
 5    1  0.1196676E-004  0.4894409E+03  0.7818608E-02  0.9526453E-01
         21   -1    0    0  501  502  0.00000000000E+00  0.00000000000E+00  0.24921522138E+03  0.24921522138E+03  0.00000000000E+00 0.  1.
         -4   -1    0    0    0  501 -0.00000000000E+00 -0.00000000000E+00 -0.27375537300E+04  0.27375537300E+04  0.00000000000E+00 0. -1.
        -13    1    1    2    0    0  0.23218795968E+03  0.38197573359E+03 -0.31129181986E+03  0.54471948556E+03  0.10566000000E+00 0.  1.
         13    1    1    2    0    0  0.20846496959E+03 -0.57743396308E+03 -0.13829414667E+04  0.15130812063E+04  0.10566000000E+00 0. -1.
         -4    1    1    2    0  502 -0.44065292927E+03  0.19545822948E+03 -0.79410522204E+03  0.92896825953E+03  0.00000000000E+00 0. -1.
</event>
<event>
 5    1  0.1196676E-004  0.3497362E+03  0.7818608E-02  0.1034378E+00
          4   -1    0    0  502    0 -0.00000000000E+00  0.00000000000E+00  0.18632261028E+03  0.18632261028E+03  0.00000000000E+00 0.  1.
         21   -1    0    0  501  502  0.00000000000E+00 -0.00000000000E+00 -0.90682263755E+03  0.90682263755E+03  0.00000000000E+00 0.  1.
        -13    1    1    2    0    0 -0.67209724526E+02  0.36028248296E+03 -0.35474579645E+03  0.51006392331E+03  0.10566000000E+00 0.  1.
         13    1    1    2    0    0 -0.65082171650E+02 -0.47852238696E+02  0.44723924878E+01  0.80904507128E+02  0.10566000000E+00 0. -1.
          4    1    1    2  501    0  0.13229189618E+03 -0.31243024426E+03 -0.37022662331E+03  0.50217681740E+03  0.00000000000E+00 0.  1.
</event>
<event>
 5    1  0.1196676E-004  0.3348825E+03  0.7818608E-02  0.9938657E-01
         21   -1    0    0  501  502  0.00000000000E+00  0.00000000000E+00  0.74807914196E+02  0.74807914196E+02  0.00000000000E+00 0. -1.
         -4   -1    0    0    0  501 -0.00000000000E+00 -0.00000000000E+00 -0.25607008746E+04  0.25607008746E+04  0.00000000000E+00 0. -1.
        -13    1    1    2    0    0  0.92248807223E+02 -0.25258571474E+03 -0.67873199203E+03  0.73005925369E+03  0.10566000000E+00 0.  1.
         13    1    1    2    0    0 -0.24138584222E+03  0.33924157667E+03 -0.14536854178E+04  0.15121353370E+04  0.10566000000E+00 0. -1.
         -4    1    1    2    0  502  0.14913703500E+03 -0.86655861931E+02 -0.35347555051E+03  0.39331419810E+03  0.00000000000E+00 0. -1.
</event>
<event>
 5    1  0.1196676E-004  0.1946010E+03  0.7818608E-02  0.1063901E+00
          4   -1    0    0  502    0 -0.00000000000E+00  0.00000000000E+00  0.28693163183E+03  0.28693163183E+03  0.00000000000E+00 0.  1.
         21   -1    0    0  501  502  0.00000000000E+00 -0.00000000000E+00 -0.51842784270E+03  0.51842784270E+03  0.00000000000E+00 0. -1.
        -13    1    1    2    0    0  0.10642097921E+03 -0.16417270909E+03  0.22025160594E+03  0.29459953209E+03  0.10566000000E+00 0.  1.
         13    1    1    2    0    0 -0.11029077223E+03  0.15039148593E+03 -0.26828298395E+03  0.32673754624E+03  0.10566000000E+00 0. -1.
          4    1    1    2  501    0  0.38697930211E+01  0.13781223157E+02 -0.18346483285E+03  0.18402239620E+03  0.00000000000E+00 0.  1.
</event>
<event>
 5    1  0.1196676E-004  0.2453115E+03  0.7818608E-02  0.1032851E+00
         -4   -1    0    0    0  501 -0.00000000000E+00  0.00000000000E+00  0.21842759993E+04  0.21842759993E+04  0.00000000000E+00 0. -1.
         21   -1    0    0  501  502  0.00000000000E+00 -0.00000000000E+00 -0.25044241284E+03  0.25044241284E+03  0.00000000000E+00 0. -1.
        -13    1    1    2    0    0 -0.20938243225E+03 -0.90571485257E+02  0.12568615201E+04  0.12773977802E+04  0.10566000000E+00 0.  1.
         13    1    1    2    0    0  0.17898553218E+03  0.31255051416E+03  0.81716869460E+03  0.89302202170E+03  0.10566000000E+00 0. -1.
         -4    1    1    2    0  502  0.30396900072E+02 -0.22197902890E+03 -0.14019662827E+03  0.26429861026E+03  0.00000000000E+00 0. -1.
</event>
<event>
 5    1  0.1196676E-004  0.4239173E+03  0.7818608E-02  0.9934838E-01
         21   -1    0    0  501  502  0.00000000000E+00  0.00000000000E+00  0.54187261077E+03  0.54187261077E+03  0.00000000000E+00 0. -1.
         -4   -1    0    0    0  501 -0.00000000000E+00 -0.00000000000E+00 -0.83553028772E+03  0.83553028772E+03  0.00000000000E+00 0. -1.
        -13    1    1    2    0    0  0.16371357178E+03  0.33961029449E+02 -0.29919927611E+03  0.34274728751E+03  0.10566000000E+00 0.  1.
         13    1    1    2    0    0  0.92698318003E+02  0.33581727505E+03 -0.32490746876E+03  0.47637285271E+03  0.10566000000E+00 0. -1.
         -4    1    1    2    0  502 -0.25641188979E+03 -0.36977830450E+03  0.33044906791E+03  0.55828275827E+03  0.00000000000E+00 0. -1.
</event>
<event>
 5    1  0.1196676E-004  0.4961810E+03  0.7818608E-02  0.1006698E+00
         21   -1    0    0  501  502  0.00000000000E+00  0.00000000000E+00  0.96749308099E+02  0.96749308099E+02  0.00000000000E+00 0.  1.
          4   -1    0    0  502    0 -0.00000000000E+00 -0.00000000000E+00 -0.30443917422E+04  0.30443917422E+04  0.00000000000E+00 0.  1.
        -13    1    1    2    0    0 -0.26232081883E+03  0.44986128102E+03 -0.16450907780E+04  0.17255465984E+04  0.10566000000E+00 0.  1.
         13    1    1    2    0    0 -0.21768288436E+02 -0.64022756171E+02 -0.96355069880E+02  0.11771610911E+03  0.10566000000E+00 0. -1.
          4    1    1    2  501    0  0.28408910727E+03 -0.38583852484E+03 -0.12061965862E+04  0.12978783428E+04  0.00000000000E+00 0.  1.
</event>
<event>
 5    1  0.1196676E-004  0.7633827E+03  0.7818608E-02  0.9035777E-01
         21   -1    0    0  501  502  0.00000000000E+00  0.00000000000E+00  0.46067453776E+03  0.46067453776E+03  0.00000000000E+00 0. -1.
         -4   -1    0    0    0  501 -0.00000000000E+00 -0.00000000000E+00 -0.21214921947E+04  0.21214921947E+04  0.00000000000E+00 0. -1.
        -13    1    1    2    0    0 -0.40555779747E+03  0.61513937470E+03 -0.56034450954E+03  0.92566708807E+03  0.10566000000E+00 0.  1.
         13    1    1    2    0    0  0.10678242604E+03 -0.83267423714E+03 -0.58914917150E+03  0.10255952560E+04  0.10566000000E+00 0. -1.
         -4    1    1    2    0  502  0.29877537144E+03  0.21753486244E+03 -0.51132397589E+03  0.63090438838E+03  0.00000000000E+00 0. -1.
</event>
<event>
 5    1  0.1196676E-004  0.7547456E+03  0.7818608E-02  0.9131369E-01
         21   -1    0    0  501  502  0.00000000000E+00  0.00000000000E+00  0.14843509628E+04  0.14843509628E+04  0.00000000000E+00 0. -1.
          4   -1    0    0  502    0 -0.00000000000E+00 -0.00000000000E+00 -0.10932296790E+04  0.10932296790E+04  0.00000000000E+00 0.  1.
        -13    1    1    2    0    0 -0.41806101946E+03 -0.88760506526E+02  0.10790751479E+03  0.44079188561E+03  0.10566000000E+00 0.  1.
         13    1    1    2    0    0  0.93787352403E+02  0.77029366254E+03 -0.59571316443E+03  0.97827530862E+03  0.10566000000E+00 0. -1.
          4    1    1    2  501    0  0.32427366705E+03 -0.68153315602E+03  0.87892693345E+03  0.11585134476E+04  0.00000000000E+00 0.  1.
</event>
<event>
 5    1  0.1196676E-004  0.3880715E+03  0.7818608E-02  0.9764141E-01
         21   -1    0    0  501  502  0.00000000000E+00  0.00000000000E+00  0.51788414515E+03  0.51788414515E+03  0.00000000000E+00 0.  1.
          4   -1    0    0  502    0 -0.00000000000E+00 -0.00000000000E+00 -0.12562095131E+04  0.12562095131E+04  0.00000000000E+00 0.  1.
        -13    1    1    2    0    0  0.45100348055E+02  0.41004561813E+03 -0.51599314527E+03  0.66062121331E+03  0.10566000000E+00 0.  1.
         13    1    1    2    0    0  0.39102235054E+02 -0.37199885282E+03 -0.60966852026E+03  0.71526767510E+03  0.10566000000E+00 0. -1.
          4    1    1    2  501    0 -0.84202583109E+02 -0.38046765310E+02  0.38733629755E+03  0.39820476987E+03  0.00000000000E+00 0.  1.
</event>
<event>
 5    1  0.1196676E-004  0.2478307E+03  0.7818608E-02  0.1031523E+00
         21   -1    0    0  501  502  0.00000000000E+00  0.00000000000E+00  0.30124038807E+03  0.30124038807E+03  0.00000000000E+00 0.  1.
          4   -1    0    0  502    0 -0.00000000000E+00 -0.00000000000E+00 -0.51084464142E+03  0.51084464142E+03  0.00000000000E+00 0.  1.
        -13    1    1    2    0    0  0.13263573925E+03 -0.25456246363E+03 -0.25307389075E+03  0.38267570156E+03  0.10566000000E+00 0.  1.
         13    1    1    2    0    0 -0.81665228638E+02  0.19511206232E+03 -0.12354193777E+03  0.24495009284E+03  0.10566000000E+00 0. -1.
          4    1    1    2  501    0 -0.50970510615E+02  0.59450401310E+02  0.16701157518E+03  0.18445923509E+03  0.00000000000E+00 0.  1.
</event>
<event>
 5    1  0.1196676E-004  0.4407924E+03  0.7818608E-02  0.9808323E-01
         21   -1    0    0  501  502  0.00000000000E+00  0.00000000000E+00  0.99150844939E+02  0.99150844939E+02  0.00000000000E+00 0.  1.
          4   -1    0    0  502    0 -0.00000000000E+00 -0.00000000000E+00 -0.39727418057E+04  0.39727418057E+04  0.00000000000E+00 0.  1.
        -13    1    1    2    0    0 -0.38942446655E+03  0.20053506323E+03 -0.94610215419E+03  0.10425809436E+04  0.10566000000E+00 0.  1.
         13    1    1    2    0    0 -0.97889108108E+02 -0.20552297991E+03 -0.44951831210E+03  0.50387369135E+03  0.10566000000E+00 0. -1.
          4    1    1    2  501    0  0.48731357466E+03  0.49879166806E+01 -0.24779704945E+04  0.25254380157E+04  0.00000000000E+00 0.  1.
</event>
<event>
 5    1  0.1196676E-004  0.5002259E+03  0.7818608E-02  0.9662055E-01
         21   -1    0    0  501  502  0.00000000000E+00  0.00000000000E+00  0.22013179033E+03  0.22013179033E+03  0.00000000000E+00 0.  1.
          4   -1    0    0  502    0 -0.00000000000E+00 -0.00000000000E+00 -0.19841400492E+04  0.19841400492E+04  0.00000000000E+00 0.  1.
        -13    1    1    2    0    0 -0.42267156118E+03  0.27536977711E+03 -0.66841000193E+03  0.83740772902E+03  0.10566000000E+00 0.  1.
         13    1    1    2    0    0 -0.10265159522E+03 -0.23705208948E+03 -0.55457915908E+03  0.61179171127E+03  0.10566000000E+00 0. -1.
          4    1    1    2  501    0  0.52532315640E+03 -0.38317687628E+02 -0.54101909785E+03  0.75507239923E+03  0.00000000000E+00 0.  1.
</event>
<event>
 5    1  0.1196676E-004  0.4617209E+03  0.7818608E-02  0.9792727E-01
          4   -1    0    0  502    0 -0.00000000000E+00  0.00000000000E+00  0.25230861392E+04  0.25230861392E+04  0.00000000000E+00 0.  1.
         21   -1    0    0  501  502  0.00000000000E+00 -0.00000000000E+00 -0.21479910796E+03  0.21479910796E+03  0.00000000000E+00 0.  1.
        -13    1    1    2    0    0 -0.17448869900E+03  0.40151311404E+03  0.25858178791E+03  0.50845219935E+03  0.10566000000E+00 0.  1.
         13    1    1    2    0    0 -0.20827610385E+03 -0.16153514354E+02  0.12200057102E+04  0.12377616150E+04  0.10566000000E+00 0. -1.
          4    1    1    2  501    0  0.38276480285E+03 -0.38535959969E+03  0.82969953311E+03  0.99167143279E+03  0.00000000000E+00 0.  1.
</event>
<event>
 5    1  0.1196676E-004  0.3018768E+03  0.7818608E-02  0.1025407E+00
         -4   -1    0    0    0  501 -0.00000000000E+00  0.00000000000E+00  0.24936736633E+04  0.24936736633E+04  0.00000000000E+00 0. -1.
         21   -1    0    0  501  502  0.00000000000E+00 -0.00000000000E+00 -0.14071357832E+03  0.14071357832E+03  0.00000000000E+00 0. -1.
        -13    1    1    2    0    0 -0.16061835937E+03 -0.40926936629E+02  0.90482038224E+03  0.91987673456E+03  0.10566000000E+00 0.  1.
         13    1    1    2    0    0 -0.17054379086E+03  0.23889992591E+03  0.96655960838E+02  0.30903194840E+03  0.10566000000E+00 0. -1.
         -4    1    1    2    0  502  0.33116215022E+03 -0.19797298928E+03  0.13514837419E+04  0.14054785586E+04  0.00000000000E+00 0. -1.
</event>
<event>
 5    1  0.1196676E-004  0.2381792E+03  0.7818608E-02  0.1036707E+00
         21   -1    0    0  501  502  0.00000000000E+00  0.00000000000E+00  0.12119529044E+04  0.12119529044E+04  0.00000000000E+00 0. -1.
         -4   -1    0    0    0  501 -0.00000000000E+00 -0.00000000000E+00 -0.25107358148E+03  0.25107358148E+03  0.00000000000E+00 0. -1.
        -13    1    1    2    0    0 -0.21680585160E+03  0.11676983858E+02  0.43622243344E+03  0.48726907540E+03  0.10566000000E+00 0.  1.
         13    1    1    2    0    0  0.24057241649E+03 -0.16294117203E+02 -0.16083237067E+03  0.28984072946E+03  0.10566000000E+00 0. -1.
         -4    1    1    2    0  502 -0.23766564895E+02  0.46171333453E+01  0.68548926019E+03  0.68591668106E+03  0.00000000000E+00 0. -1.
</event>
<event>
 5    1  0.1196676E-004  0.4854681E+03  0.7818608E-02  0.9668923E-01
         21   -1    0    0  501  502  0.00000000000E+00  0.00000000000E+00  0.38072044841E+03  0.38072044841E+03  0.00000000000E+00 0.  1.
          4   -1    0    0  502    0 -0.00000000000E+00 -0.00000000000E+00 -0.11971822132E+04  0.11971822132E+04  0.00000000000E+00 0.  1.
        -13    1    1    2    0    0  0.61772404906E+03  0.20309198075E+03 -0.31734719790E+03  0.72355967868E+03  0.10566000000E+00 0.  1.
         13    1    1    2    0    0 -0.27568793302E+03 -0.10238936200E+02 -0.32075142943E+03  0.42307229036E+03  0.10566000000E+00 0. -1.
          4    1    1    2  501    0 -0.34203611604E+03 -0.19285304455E+03 -0.17836313746E+03  0.43127069257E+03  0.00000000000E+00 0.  1.
</event>
<event>
 5    1  0.1196676E-004  0.4853062E+03  0.7818608E-02  0.9825633E-01
          4   -1    0    0  502    0 -0.00000000000E+00  0.00000000000E+00  0.25712391659E+04  0.25712391659E+04  0.00000000000E+00 0.  1.
         21   -1    0    0  501  502  0.00000000000E+00 -0.00000000000E+00 -0.16236408239E+03  0.16236408239E+03  0.00000000000E+00 0.  1.
        -13    1    1    2    0    0 -0.53881932185E+02  0.42298875536E+03  0.97834212895E+03  0.10672282240E+04  0.10566000000E+00 0.  1.
         13    1    1    2    0    0 -0.14722594659E+03  0.64707065472E+02  0.91409618768E+03  0.92813486906E+03  0.10566000000E+00 0. -1.
          4    1    1    2  501    0  0.20110787878E+03 -0.48769582083E+03  0.51643676693E+03  0.73824015523E+03  0.00000000000E+00 0.  1.
</event>
<event>
 5    1  0.1196676E-004  0.4060647E+03  0.7818608E-02  0.9810867E-01
          4   -1    0    0  502    0 -0.00000000000E+00  0.00000000000E+00  0.31926021931E+04  0.31926021931E+04  0.00000000000E+00 0.  1.
         21   -1    0    0  501  502  0.00000000000E+00 -0.00000000000E+00 -0.29658836177E+03  0.29658836177E+03  0.00000000000E+00 0.  1.
        -13    1    1    2    0    0 -0.20686573983E+03 -0.21647359673E+03  0.15605842724E+04  0.15890492550E+04  0.10566000000E+00 0.  1.
         13    1    1    2    0    0  0.68764532199E+03  0.18834973666E+03  0.12067688821E+04  0.14016500484E+04  0.10566000000E+00 0. -1.
          4    1    1    2  501    0 -0.48077958215E+03  0.28123860071E+02  0.12866067692E+03  0.49849125158E+03  0.00000000000E+00 0.  1.
</event>
<event>
 5    1  0.1196676E-004  0.1254205E+03  0.7818608E-02  0.1136090E+00
         -4   -1    0    0    0  501 -0.00000000000E+00  0.00000000000E+00  0.23458956633E+03  0.23458956633E+03  0.00000000000E+00 0. -1.
         21   -1    0    0  501  502  0.00000000000E+00 -0.00000000000E+00 -0.19505588694E+03  0.19505588694E+03  0.00000000000E+00 0. -1.
        -13    1    1    2    0    0 -0.40766868827E+02 -0.13253461780E+03  0.72805933450E+02  0.15661442341E+03  0.10566000000E+00 0.  1.
         13    1    1    2    0    0  0.11141936423E+03  0.77046245875E+01  0.30917353502E+02  0.11588584848E+03  0.10566000000E+00 0. -1.
         -4    1    1    2    0  502 -0.70652495404E+02  0.12482999321E+03 -0.64189607565E+02  0.15714518138E+03  0.00000000000E+00 0. -1.
</event>
<event>
 5    1  0.1196676E-004  0.2443202E+03  0.7818608E-02  0.1042656E+00
          4   -1    0    0  502    0 -0.00000000000E+00  0.00000000000E+00  0.60821827444E+03  0.60821827444E+03  0.00000000000E+00 0.  1.
         21   -1    0    0  501  502  0.00000000000E+00 -0.00000000000E+00 -0.60319614112E+03  0.60319614112E+03  0.00000000000E+00 0.  1.
        -13    1    1    2    0    0  0.25821245988E+03  0.32419871845E+03  0.43343431496E+03  0.59970309323E+03  0.10566000000E+00 0.  1.
         13    1    1    2    0    0 -0.13008616324E+03 -0.13048871776E+03 -0.10049480744E+03  0.20987837625E+03  0.10566000000E+00 0. -1.
          4    1    1    2  501    0 -0.12812629664E+03 -0.19371000069E+03 -0.32791737420E+03  0.40183294608E+03  0.00000000000E+00 0.  1.
</event>
<event>
 5    1  0.1196676E-004  0.4042090E+03  0.7818608E-02  0.9847044E-01
         21   -1    0    0  501  502  0.00000000000E+00  0.00000000000E+00  0.30010738607E+03  0.30010738607E+03  0.00000000000E+00 0. -1.
          4   -1    0    0  502    0 -0.00000000000E+00 -0.00000000000E+00 -0.16278431935E+04  0.16278431935E+04  0.00000000000E+00 0.  1.
        -13    1    1    2    0    0  0.20385391072E+03  0.11686312586E+03 -0.72488392780E+03  0.76201714354E+03  0.10566000000E+00 0.  1.
         13    1    1    2    0    0  0.24879287845E+03 -0.71459784414E+02 -0.65857081711E+03  0.70761566508E+03  0.10566000000E+00 0. -1.
          4    1    1    2  501    0 -0.45264678917E+03 -0.45403341448E+02  0.55718937492E+02  0.45831777094E+03  0.00000000000E+00 0.  1.
</event>
<event>
 5    1  0.1196676E-004  0.3459522E+03  0.7818608E-02  0.9949213E-01
         21   -1    0    0  501  502  0.00000000000E+00  0.00000000000E+00  0.69269659021E+03  0.69269659021E+03  0.00000000000E+00 0. -1.
         -4   -1    0    0    0  501 -0.00000000000E+00 -0.00000000000E+00 -0.81450423441E+03  0.81450423441E+03  0.00000000000E+00 0. -1.
        -13    1    1    2    0    0  0.28111821074E+03 -0.83674338327E+02 -0.32205635034E+03  0.43560205148E+03  0.10566000000E+00 0.  1.
         13    1    1    2    0    0  0.41537211874E+02 -0.12436528813E+03 -0.36526384618E+03  0.38808472445E+03  0.10566000000E+00 0. -1.
         -4    1    1    2    0  502 -0.32265542261E+03  0.20803962645E+03  0.56551255232E+03  0.68351404868E+03  0.00000000000E+00 0. -1.
</event>
<event>
 5    1  0.1401851E-004  0.5010599E+03  0.7818608E-02  0.9766816E-01
         21   -1    0    0  501  502  0.00000000000E+00  0.00000000000E+00  0.24936170233E+03  0.24936170233E+03  0.00000000000E+00 0. -1.
         -4   -1    0    0    0  501 -0.00000000000E+00 -0.00000000000E+00 -0.16743743641E+04  0.16743743641E+04  0.00000000000E+00 0. -1.
        -13    1    1    2    0    0 -0.16515679499E+03  0.68090337937E+02 -0.55392211081E+03  0.58201613127E+03  0.10566000000E+00 0.  1.
         13    1    1    2    0    0 -0.39048999404E+03 -0.18345086417E+03 -0.51466473201E+03  0.67157758491E+03  0.10566000000E+00 0. -1.
         -4    1    1    2    0  502  0.55564678903E+03  0.11536052624E+03 -0.35642581895E+03  0.67014235024E+03  0.00000000000E+00 0. -1.
</event>
<event>
 5    1  0.1196676E-004  0.4721518E+02  0.7818608E-02  0.1303562E+00
          4   -1    0    0  502    0 -0.00000000000E+00  0.00000000000E+00  0.51413150705E+02  0.51413150705E+02  0.00000000000E+00 0.  1.
         21   -1    0    0  501  502  0.00000000000E+00 -0.00000000000E+00 -0.84115701456E+02  0.84115701456E+02  0.00000000000E+00 0. -1.
        -13    1    1    2    0    0  0.14323802351E+02  0.53270822096E+02 -0.31774198993E+01  0.55254492684E+02  0.10566000000E+00 0.  1.
         13    1    1    2    0    0  0.14309612141E+02 -0.39932404080E+02 -0.22078000232E+02  0.47820614315E+02  0.10566000000E+00 0. -1.
          4    1    1    2  501    0 -0.28633414491E+02 -0.13338418016E+02 -0.74471306193E+01  0.32453745162E+02  0.00000000000E+00 0.  1.
</event>
<event>
 5    1  0.1196676E-004  0.9868069E+02  0.7818608E-02  0.1166757E+00
         -4   -1    0    0    0  501 -0.00000000000E+00  0.00000000000E+00  0.47532736706E+03  0.47532736706E+03  0.00000000000E+00 0. -1.
         21   -1    0    0  501  502  0.00000000000E+00 -0.00000000000E+00 -0.45026190246E+02  0.45026190246E+02  0.00000000000E+00 0.  1.
        -13    1    1    2    0    0  0.73004376071E+02 -0.66366053702E+02  0.39825940437E+02  0.10639646942E+03  0.10566000000E+00 0.  1.
         13    1    1    2    0    0 -0.60860445238E+02  0.77970371147E+02  0.38301070829E+03  0.39557627128E+03  0.10566000000E+00 0. -1.
         -4    1    1    2    0  502 -0.12143930833E+02 -0.11604317446E+02  0.74645280872E+01  0.18380816604E+02  0.00000000000E+00 0. -1.
</event>
<event>
 5    1  0.1196676E-004  0.1176659E+03  0.7818608E-02  0.1168437E+00
         21   -1    0    0  501  502  0.00000000000E+00  0.00000000000E+00  0.50682999267E+03  0.50682999267E+03  0.00000000000E+00 0. -1.
         -4   -1    0    0    0  501 -0.00000000000E+00 -0.00000000000E+00 -0.64049891109E+03  0.64049891109E+03  0.00000000000E+00 0. -1.
        -13    1    1    2    0    0  0.53396691814E+01 -0.55645679965E+02 -0.12718837119E+03  0.13893108614E+03  0.10566000000E+00 0.  1.
         13    1    1    2    0    0  0.94064810078E+02  0.11795193556E+03 -0.48904008616E+03  0.51178224337E+03  0.10566000000E+00 0. -1.
         -4    1    1    2    0  502 -0.99404479260E+02 -0.62306255591E+02  0.48255953893E+03  0.49661557425E+03  0.00000000000E+00 0. -1.
</event>
<event>
 5    1  0.1196676E-004  0.2628010E+03  0.7818608E-02  0.1023965E+00
         -4   -1    0    0    0  501 -0.00000000000E+00  0.00000000000E+00  0.21122071742E+04  0.21122071742E+04  0.00000000000E+00 0. -1.
         21   -1    0    0  501  502  0.00000000000E+00 -0.00000000000E+00 -0.43751169658E+02  0.43751169658E+02  0.00000000000E+00 0.  1.
        -13    1    1    2    0    0 -0.12076661295E+02 -0.26049428545E+03  0.12284038977E+04  0.12557783505E+04  0.10566000000E+00 0.  1.
         13    1    1    2    0    0  0.34189186374E+01  0.26588516821E+03  0.84705307089E+03  0.88780939832E+03  0.10566000000E+00 0. -1.
         -4    1    1    2    0  502  0.86577426580E+01 -0.53908827599E+01 -0.70009640350E+01  0.12370595066E+02  0.00000000000E+00 0. -1.
</event>
<event>
 5    1  0.1196676E-004  0.1485522E+02  0.7818608E-02  0.1597369E+00
          4   -1    0    0  502    0 -0.00000000000E+00  0.00000000000E+00  0.16907023044E+02  0.16907023044E+02  0.00000000000E+00 0.  1.
         21   -1    0    0  501  502  0.00000000000E+00 -0.00000000000E+00 -0.13901137767E+03  0.13901137767E+03  0.00000000000E+00 0. -1.
        -13    1    1    2    0    0  0.13459532168E+02  0.51158709417E+01  0.10659008189E+02  0.17915266151E+02  0.10566000000E+00 0.  1.
         13    1    1    2    0    0 -0.22551778120E+02 -0.12365159397E+02 -0.82701957235E+02  0.86608918466E+02  0.10566000000E+00 0. -1.
          4    1    1    2  501    0  0.90922459517E+01  0.72492884556E+01 -0.50061405577E+02  0.51394216094E+02  0.00000000000E+00 0.  1.
</event>
<event>
 5    1  0.1196676E-004  0.2071969E+03  0.7818608E-02  0.1055311E+00
          4   -1    0    0  502    0 -0.00000000000E+00  0.00000000000E+00  0.27915158159E+03  0.27915158159E+03  0.00000000000E+00 0.  1.
         21   -1    0    0  501  502  0.00000000000E+00 -0.00000000000E+00 -0.29524016413E+03  0.29524016413E+03  0.00000000000E+00 0. -1.
        -13    1    1    2    0    0 -0.19997039545E+02 -0.20205341577E+03  0.15275228280E+03  0.25408411104E+03  0.10566000000E+00 0.  1.
         13    1    1    2    0    0  0.50250931490E+02  0.21703931629E+03 -0.10115841062E+03  0.24467173138E+03  0.10566000000E+00 0. -1.
          4    1    1    2  501    0 -0.30253891945E+02 -0.14985900519E+02 -0.67682454716E+02  0.75635903303E+02  0.00000000000E+00 0.  1.
</event>
<event>
 5    1  0.1196676E-004  0.1607503E+03  0.7818608E-02  0.1090968E+00
         21   -1    0    0  501  502  0.00000000000E+00  0.00000000000E+00  0.54623301280E+03  0.54623301280E+03  0.00000000000E+00 0.  1.
          4   -1    0    0  502    0 -0.00000000000E+00 -0.00000000000E+00 -0.16426507876E+03  0.16426507876E+03  0.00000000000E+00 0.  1.
        -13    1    1    2    0    0  0.17430406412E+03 -0.16972095931E+01 -0.89053713749E+02  0.19574310303E+03  0.10566000000E+00 0.  1.
         13    1    1    2    0    0 -0.11524675482E+03  0.14669845322E+02  0.15895814343E+03  0.19688758566E+03  0.10566000000E+00 0. -1.
          4    1    1    2  501    0 -0.59057309299E+02 -0.12972635729E+02  0.31206350436E+03  0.31786740288E+03  0.00000000000E+00 0.  1.
</event>
<event>
 5    1  0.1196676E-004  0.8516669E+02  0.7818608E-02  0.1191745E+00
         -4   -1    0    0    0  501 -0.00000000000E+00  0.00000000000E+00  0.57568712244E+03  0.57568712244E+03  0.00000000000E+00 0. -1.
         21   -1    0    0  501  502  0.00000000000E+00 -0.00000000000E+00 -0.16863278212E+02  0.16863278212E+02  0.00000000000E+00 0.  1.
        -13    1    1    2    0    0  0.55522886872E+02 -0.57258230790E+02  0.25515993907E+03  0.26733481186E+03  0.10566000000E+00 0.  1.
         13    1    1    2    0    0 -0.57709460402E+02  0.71011155010E+02  0.29488007575E+03  0.30875109100E+03  0.10566000000E+00 0. -1.
         -4    1    1    2    0  502  0.21865735304E+01 -0.13752924220E+02  0.87838293965E+01  0.16464497784E+02  0.00000000000E+00 0. -1.
</event>
<event>
 5    1  0.1196676E-004  0.3713432E+03  0.7818608E-02  0.9815664E-01
         -4   -1    0    0    0  501 -0.00000000000E+00  0.00000000000E+00  0.13526408840E+04  0.13526408840E+04  0.00000000000E+00 0. -1.
         21   -1    0    0  501  502  0.00000000000E+00 -0.00000000000E+00 -0.13102788201E+03  0.13102788201E+03  0.00000000000E+00 0.  1.
        -13    1    1    2    0    0  0.49142566512E+02  0.38113391301E+03  0.40899871642E+03  0.56121120150E+03  0.10566000000E+00 0.  1.
         13    1    1    2    0    0 -0.72656119700E+02 -0.35770739618E+03  0.81084948874E+03  0.88921898178E+03  0.10566000000E+00 0. -1.
         -4    1    1    2    0  502  0.23513553188E+02 -0.23426516830E+02  0.17647968430E+01  0.33238582735E+02  0.00000000000E+00 0. -1.
</event>
<event>
 5    1  0.1196676E-004  0.3263329E+03  0.7818608E-02  0.1010641E+00
         21   -1    0    0  501  502  0.00000000000E+00  0.00000000000E+00  0.35672237071E+03  0.35672237071E+03  0.00000000000E+00 0. -1.
         -4   -1    0    0    0  501 -0.00000000000E+00 -0.00000000000E+00 -0.11072367774E+04  0.11072367774E+04  0.00000000000E+00 0. -1.
        -13    1    1    2    0    0 -0.20633036412E+03  0.35410576456E+02 -0.25086945681E+03  0.32674397256E+03  0.10566000000E+00 0.  1.
         13    1    1    2    0    0  0.24639594897E+03  0.28866021543E+03 -0.66916478561E+03  0.76929656512E+03  0.10566000000E+00 0. -1.
         -4    1    1    2    0  502 -0.40065584854E+02 -0.32407079189E+03  0.16951983568E+03  0.36791861047E+03  0.00000000000E+00 0. -1.
</event>
<event>
 5    1  0.1196676E-004  0.3702836E+03  0.7818608E-02  0.1070304E+00
         21   -1    0    0  501  502  0.00000000000E+00  0.00000000000E+00  0.25534332716E+03  0.25534332716E+03  0.00000000000E+00 0.  1.
          4   -1    0    0  502    0 -0.00000000000E+00 -0.00000000000E+00 -0.76225078642E+03  0.76225078642E+03  0.00000000000E+00 0.  1.
        -13    1    1    2    0    0 -0.19150661465E+03  0.32444183093E+03 -0.10142469960E+03  0.39015928281E+03  0.10566000000E+00 0.  1.
         13    1    1    2    0    0  0.20751007381E+02 -0.11013274428E+02  0.46152670404E+02  0.51787804263E+02  0.10566000000E+00 0. -1.
          4    1    1    2  501    0  0.17075560727E+03 -0.31342855650E+03 -0.45163543007E+03  0.57564702651E+03  0.00000000000E+00 0.  1.
</event>
<event>
 5    1  0.1196676E-004  0.6207444E+02  0.7818608E-02  0.1263751E+00
         21   -1    0    0  501  502  0.00000000000E+00  0.00000000000E+00  0.11900087482E+03  0.11900087482E+03  0.00000000000E+00 0.  1.
          4   -1    0    0  502    0 -0.00000000000E+00 -0.00000000000E+00 -0.10519601655E+03  0.10519601655E+03  0.00000000000E+00 0.  1.
        -13    1    1    2    0    0  0.87700235571E+02 -0.36802884652E+01  0.52602965457E+02  0.10233259003E+03  0.10566000000E+00 0.  1.
         13    1    1    2    0    0 -0.42891320450E+02  0.16294098059E+02 -0.55858037270E+02  0.72286198497E+02  0.10566000000E+00 0. -1.
          4    1    1    2  501    0 -0.44808915121E+02 -0.12613809594E+02  0.17059930081E+02  0.49578102839E+02  0.00000000000E+00 0.  1.
</event>
<event>
 5    1  0.1196676E-004  0.3420724E+03  0.7818608E-02  0.9936288E-01
         -4   -1    0    0    0  501 -0.00000000000E+00  0.00000000000E+00  0.29750661466E+03  0.29750661466E+03  0.00000000000E+00 0. -1.
         21   -1    0    0  501  502  0.00000000000E+00 -0.00000000000E+00 -0.17237990355E+04  0.17237990355E+04  0.00000000000E+00 0. -1.
        -13    1    1    2    0    0 -0.10033021533E+03  0.30037482377E+03 -0.58902046767E+03  0.66875728733E+03  0.10566000000E+00 0.  1.
         13    1    1    2    0    0 -0.25386357072E+03 -0.23464921644E+03  0.90453755086E+02  0.35733578087E+03  0.10566000000E+00 0. -1.
         -4    1    1    2    0  502  0.35419378604E+03 -0.65725607327E+02 -0.92772570830E+03  0.99521258200E+03  0.00000000000E+00 0. -1.
</event>
<event>
 5    1  0.1196676E-004  0.4581030E+03  0.7818608E-02  0.9776863E-01
          4   -1    0    0  502    0 -0.00000000000E+00  0.00000000000E+00  0.21869585481E+03  0.21869585481E+03  0.00000000000E+00 0.  1.
         21   -1    0    0  501  502  0.00000000000E+00 -0.00000000000E+00 -0.18562795063E+04  0.18562795063E+04  0.00000000000E+00 0.  1.
        -13    1    1    2    0    0 -0.91439451342E+02  0.37729563465E+03 -0.14499798754E+03  0.41441235110E+03  0.10566000000E+00 0.  1.
         13    1    1    2    0    0 -0.22554905713E+03  0.11283676773E+02 -0.49146670486E+03  0.54086895981E+03  0.10566000000E+00 0. -1.
          4    1    1    2  501    0  0.31698850848E+03 -0.38857931143E+03 -0.10011189591E+04  0.11196940502E+04  0.00000000000E+00 0.  1.
</event>
<event>
 5    1  0.1196676E-004  0.1742135E+03  0.7818608E-02  0.1079412E+00
          4   -1    0    0  502    0 -0.00000000000E+00  0.00000000000E+00  0.71196924102E+02  0.71196924102E+02  0.00000000000E+00 0.  1.
         21   -1    0    0  501  502  0.00000000000E+00 -0.00000000000E+00 -0.73348303885E+03  0.73348303885E+03  0.00000000000E+00 0. -1.
        -13    1    1    2    0    0 -0.17430221727E+03  0.29182197323E+02 -0.90524156983E+02  0.19856358616E+03  0.10566000000E+00 0.  1.
         13    1    1    2    0    0  0.16644659471E+03 -0.16608764160E+02 -0.39799235720E+03  0.43171547053E+03  0.10566000000E+00 0. -1.
          4    1    1    2  501    0  0.78556225584E+01 -0.12573433163E+02 -0.17376960056E+03  0.17440090626E+03  0.00000000000E+00 0.  1.
</event>
<event>
 5    1  0.1196676E-004  0.3434011E+03  0.7818608E-02  0.1013388E+00
         -4   -1    0    0    0  501 -0.00000000000E+00  0.00000000000E+00  0.28440214218E+04  0.28440214218E+04  0.00000000000E+00 0. -1.
         21   -1    0    0  501  502  0.00000000000E+00 -0.00000000000E+00 -0.14005161654E+03  0.14005161654E+03  0.00000000000E+00 0. -1.
        -13    1    1    2    0    0  0.12898948627E+03  0.10214228211E+03  0.91153167822E+03  0.92626202822E+03  0.10566000000E+00 0.  1.
         13    1    1    2    0    0 -0.11840361996E+01 -0.41338381184E+03  0.16347949918E+04  0.16862509463E+04  0.10566000000E+00 0. -1.
         -4    1    1    2    0  502 -0.12780545007E+03  0.31124152973E+03  0.15764313532E+03  0.37156006380E+03  0.00000000000E+00 0. -1.
</event>
<event>
 5    1  0.1196676E-004  0.4096027E+03  0.7818608E-02  0.9748548E-01
         21   -1    0    0  501  502  0.00000000000E+00  0.00000000000E+00  0.92515648885E+03  0.92515648885E+03  0.00000000000E+00 0. -1.
          4   -1    0    0  502    0 -0.00000000000E+00 -0.00000000000E+00 -0.53283781578E+03  0.53283781578E+03  0.00000000000E+00 0.  1.
        -13    1    1    2    0    0  0.79555015821E+02 -0.35294431554E+03  0.32215180262E+03  0.48443831961E+03  0.10566000000E+00 0.  1.
         13    1    1    2    0    0  0.33155303992E+03 -0.10651265035E+03 -0.27546889028E+02  0.34932965123E+03  0.10566000000E+00 0. -1.
          4    1    1    2  501    0 -0.41110805575E+03  0.45945696589E+03  0.97713759485E+02  0.62422633379E+03  0.00000000000E+00 0.  1.
</event>
<event>
 5    1  0.1196676E-004  0.5151832E+02  0.7818608E-02  0.1285728E+00
          4   -1    0    0  502    0 -0.00000000000E+00  0.00000000000E+00  0.21526028253E+02  0.21526028253E+02  0.00000000000E+00 0.  1.
         21   -1    0    0  501  502  0.00000000000E+00 -0.00000000000E+00 -0.35084781539E+03  0.35084781539E+03  0.00000000000E+00 0.  1.
        -13    1    1    2    0    0 -0.62086559528E+02 -0.16466028680E+02 -0.50817842652E+02  0.81904427661E+02  0.10566000000E+00 0.  1.
         13    1    1    2    0    0  0.33813262540E+02  0.17871921851E+02 -0.67559587537E+02  0.77634086241E+02  0.10566000000E+00 0. -1.
          4    1    1    2  501    0  0.28273296988E+02 -0.14058931712E+01 -0.21094435694E+03  0.21283532974E+03  0.00000000000E+00 0.  1.
</event>
<event>
 5    1  0.1196676E-004  0.4989982E+03  0.7818608E-02  0.9600400E-01
         -4   -1    0    0    0  501 -0.00000000000E+00  0.00000000000E+00  0.12498807170E+04  0.12498807170E+04  0.00000000000E+00 0. -1.
         21   -1    0    0  501  502  0.00000000000E+00 -0.00000000000E+00 -0.39349991772E+03  0.39349991772E+03  0.00000000000E+00 0. -1.
        -13    1    1    2    0    0 -0.26888289334E+02 -0.32246482301E+03  0.29856617343E+03  0.44028208374E+03  0.10566000000E+00 0.  1.
         13    1    1    2    0    0 -0.34276852554E+03 -0.15570298761E+03  0.45411122704E+03  0.58987346113E+03  0.10566000000E+00 0. -1.
         -4    1    1    2    0  502  0.36965681488E+03  0.47816781061E+03  0.10370339880E+03  0.61322508984E+03  0.00000000000E+00 0. -1.
</event>
<event>
 5    1  0.1196676E-004  0.2207015E+03  0.7818608E-02  0.1046801E+00
          4   -1    0    0  502    0 -0.00000000000E+00  0.00000000000E+00  0.83633510271E+03  0.83633510271E+03  0.00000000000E+00 0.  1.
         21   -1    0    0  501  502  0.00000000000E+00 -0.00000000000E+00 -0.12728964082E+03  0.12728964082E+03  0.00000000000E+00 0. -1.
        -13    1    1    2    0    0  0.14822801009E+03  0.18219908499E+03  0.60978859995E+03  0.65346017273E+03  0.10566000000E+00 0.  1.
         13    1    1    2    0    0 -0.65085448509E+02 -0.18218166630E+03  0.11569254234E+03  0.22541306675E+03  0.10566000000E+00 0. -1.
          4    1    1    2  501    0 -0.83142561584E+02 -0.17418688970E-01 -0.16435680406E+02  0.84751504060E+02  0.00000000000E+00 0.  1.
</event>
<event>
 5    1  0.1196676E-004  0.8431492E+02  0.7818608E-02  0.1193490E+00
          4   -1    0    0  502    0 -0.00000000000E+00  0.00000000000E+00  0.52832792023E+03  0.52832792023E+03  0.00000000000E+00 0.  1.
         21   -1    0    0  501  502  0.00000000000E+00 -0.00000000000E+00 -0.27483038257E+02  0.27483038257E+02  0.00000000000E+00 0. -1.
        -13    1    1    2    0    0  0.72889953234E+02  0.39980315319E+02  0.39424666721E+03  0.40291663737E+03  0.10566000000E+00 0.  1.
         13    1    1    2    0    0 -0.71720596191E+02 -0.53347103208E+02  0.10705937826E+03  0.13946855909E+03  0.10566000000E+00 0. -1.
          4    1    1    2  501    0 -0.11693570428E+01  0.13366787889E+02 -0.46116349179E+00  0.13425762031E+02  0.00000000000E+00 0.  1.
</event>
<event>
 5    1  0.1196676E-004  0.4215920E+03  0.7818608E-02  0.9702993E-01
         21   -1    0    0  501  502  0.00000000000E+00  0.00000000000E+00  0.66641230331E+03  0.66641230331E+03  0.00000000000E+00 0. -1.
          4   -1    0    0  502    0 -0.00000000000E+00 -0.00000000000E+00 -0.15712484438E+04  0.15712484438E+04  0.00000000000E+00 0.  1.
        -13    1    1    2    0    0  0.34477652870E+03  0.87764768094E+02 -0.87290336784E+03  0.94262071376E+03  0.10566000000E+00 0.  1.
         13    1    1    2    0    0 -0.63820637120E+03 -0.42580327518E+03 -0.23656360244E+03  0.80285624527E+03  0.10566000000E+00 0. -1.
          4    1    1    2  501    0  0.29342984250E+03  0.33803850709E+03  0.20463082980E+03  0.49218378808E+03  0.00000000000E+00 0.  1.
</event>
<event>
 5    1  0.1196676E-004  0.2636715E+03  0.7818608E-02  0.1060108E+00
          4   -1    0    0  502    0 -0.00000000000E+00  0.00000000000E+00  0.22431670401E+04  0.22431670401E+04  0.00000000000E+00 0.  1.
         21   -1    0    0  501  502  0.00000000000E+00 -0.00000000000E+00 -0.12872596172E+03  0.12872596172E+03  0.00000000000E+00 0.  1.
        -13    1    1    2    0    0  0.12901636748E+03 -0.23572072774E+03  0.51113266745E+02  0.27353621655E+03  0.10566000000E+00 0.  1.
         13    1    1    2    0    0 -0.82318043304E+02  0.29228153709E+02  0.15178617669E+03  0.17512738170E+03  0.10566000000E+00 0. -1.
          4    1    1    2  501    0 -0.46698324180E+02  0.20649257403E+03  0.19115416349E+04  0.19232294035E+04  0.00000000000E+00 0.  1.
</event>
<event>
 5    1  0.1196676E-004  0.4651774E+03  0.7818608E-02  0.9752330E-01
         -4   -1    0    0    0  501 -0.00000000000E+00  0.00000000000E+00  0.16265700279E+04  0.16265700279E+04  0.00000000000E+00 0. -1.
         21   -1    0    0  501  502  0.00000000000E+00 -0.00000000000E+00 -0.26083566445E+03  0.26083566445E+03  0.00000000000E+00 0. -1.
        -13    1    1    2    0    0  0.10806976906E+03  0.20830058631E+03  0.45846474602E+03  0.51503217740E+03  0.10566000000E+00 0.  1.
         13    1    1    2    0    0 -0.33307983051E+03 -0.52943800254E+03  0.65730109873E+03  0.90735413020E+03  0.10566000000E+00 0. -1.
         -4    1    1    2    0  502  0.22501006144E+03  0.32113741623E+03  0.24996851868E+03  0.46501938474E+03  0.00000000000E+00 0. -1.
</event>
<event>
 5    1  0.1196676E-004  0.3198431E+03  0.7818608E-02  0.1021426E+00
         21   -1    0    0  501  502  0.00000000000E+00  0.00000000000E+00  0.10958894790E+03  0.10958894790E+03  0.00000000000E+00 0.  1.
          4   -1    0    0  502    0 -0.00000000000E+00 -0.00000000000E+00 -0.22285583255E+04  0.22285583255E+04  0.00000000000E+00 0.  1.
        -13    1    1    2    0    0 -0.34320091367E+02 -0.31673679361E+03 -0.28015995888E+03  0.42425190491E+03  0.10566000000E+00 0.  1.
         13    1    1    2    0    0  0.15702450799E+03 -0.16173696661E+02 -0.35946927845E+03  0.39260216235E+03  0.10566000000E+00 0. -1.
          4    1    1    2  501    0 -0.12270441662E+03  0.33291049027E+03 -0.14793401403E+04  0.15212932062E+04  0.00000000000E+00 0.  1.
</event>
<event>
 5    1  0.1196676E-004  0.8970532E+02  0.7818608E-02  0.1182813E+00
          4   -1    0    0  502    0 -0.00000000000E+00  0.00000000000E+00  0.30708749808E+02  0.30708749808E+02  0.00000000000E+00 0.  1.
         21   -1    0    0  501  502  0.00000000000E+00 -0.00000000000E+00 -0.48592385163E+03  0.48592385163E+03  0.00000000000E+00 0. -1.
        -13    1    1    2    0    0  0.84443070907E+02 -0.21028544707E+02 -0.63777609818E+02  0.10789080867E+03  0.10566000000E+00 0.  1.
         13    1    1    2    0    0 -0.97845309481E+02  0.17214885610E+02 -0.29445239833E+03  0.31076081304E+03  0.10566000000E+00 0. -1.
          4    1    1    2  501    0  0.13402238575E+02  0.38136590966E+01 -0.96985093676E+02  0.97980979735E+02  0.00000000000E+00 0.  1.
</event>
<event>
 5    1  0.1196676E-004  0.4579505E+03  0.7818608E-02  0.9772929E-01
         21   -1    0    0  501  502  0.00000000000E+00  0.00000000000E+00  0.70771754244E+03  0.70771754244E+03  0.00000000000E+00 0. -1.
         -4   -1    0    0    0  501 -0.00000000000E+00 -0.00000000000E+00 -0.56645710836E+03  0.56645710836E+03  0.00000000000E+00 0. -1.
        -13    1    1    2    0    0  0.17874864434E+03  0.14334893958E+03 -0.46230064449E+02  0.23374607238E+03  0.10566000000E+00 0.  1.
         13    1    1    2    0    0  0.17664334362E+03 -0.44483428595E+03 -0.10526534356E+03  0.49006246185E+03  0.10566000000E+00 0. -1.
         -4    1    1    2    0  502 -0.35539198795E+03  0.30148534637E+03  0.29275584209E+03  0.55036611656E+03  0.00000000000E+00 0. -1.
</event>
<event>
 5    1  0.1196676E-004  0.3990333E+03  0.7818608E-02  0.9731842E-01
         21   -1    0    0  501  502  0.00000000000E+00  0.00000000000E+00  0.51178261195E+03  0.51178261195E+03  0.00000000000E+00 0. -1.
          4   -1    0    0  502    0 -0.00000000000E+00 -0.00000000000E+00 -0.16117855052E+04  0.16117855052E+04  0.00000000000E+00 0.  1.
        -13    1    1    2    0    0 -0.69079371274E+02 -0.39775409463E+03 -0.11758770775E+04  0.12432486444E+04  0.10566000000E+00 0.  1.
         13    1    1    2    0    0  0.42167489001E+03  0.27349658594E+03  0.59479186894E+02  0.50611054151E+03  0.10566000000E+00 0. -1.
          4    1    1    2  501    0 -0.35259551874E+03  0.12425750869E+03  0.16394997300E+02  0.37420893126E+03  0.00000000000E+00 0.  1.
</event>
<event>
 5    1  0.1196676E-004  0.5332761E+03  0.7818608E-02  0.9478595E-01
         21   -1    0    0  501  502  0.00000000000E+00  0.00000000000E+00  0.24337794362E+03  0.24337794362E+03  0.00000000000E+00 0. -1.
         -4   -1    0    0    0  501 -0.00000000000E+00 -0.00000000000E+00 -0.27629332728E+04  0.27629332728E+04  0.00000000000E+00 0. -1.
        -13    1    1    2    0    0 -0.78953662830E+02 -0.40353335139E+03 -0.88274615269E+03  0.97381395954E+03  0.10566000000E+00 0.  1.
         13    1    1    2    0    0 -0.23627113440E+03 -0.33035287442E+03 -0.54084553294E+03  0.67636600465E+03  0.10566000000E+00 0. -1.
         -4    1    1    2    0  502  0.31522479723E+03  0.73388622581E+03 -0.10959636435E+04  0.13561312522E+04  0.00000000000E+00 0. -1.
</event>
<event>
 5    1  0.1196676E-004  0.4947578E+03  0.7818608E-02  0.9496804E-01
         -4   -1    0    0    0  501 -0.00000000000E+00  0.00000000000E+00  0.12803599073E+04  0.12803599073E+04  0.00000000000E+00 0. -1.
         21   -1    0    0  501  502  0.00000000000E+00 -0.00000000000E+00 -0.51417082611E+03  0.51417082611E+03  0.00000000000E+00 0.  1.
        -13    1    1    2    0    0  0.20870084189E+03 -0.45583777396E+03  0.24870323927E+03  0.55964044704E+03  0.10566000000E+00 0.  1.
         13    1    1    2    0    0 -0.34155456659E+03 -0.15928838418E+03  0.47191391170E+03  0.60393299506E+03  0.10566000000E+00 0. -1.
         -4    1    1    2    0  502  0.13285372470E+03  0.61512615814E+03  0.45571930188E+02  0.63095729128E+03  0.00000000000E+00 0. -1.
</event>
<event>
 5    1  0.1196676E-004  0.2819175E+02  0.7818608E-02  0.1420043E+00
         21   -1    0    0  501  502  0.00000000000E+00  0.00000000000E+00  0.33700146620E+02  0.33700146620E+02  0.00000000000E+00 0. -1.
         -4   -1    0    0    0  501 -0.00000000000E+00 -0.00000000000E+00 -0.15705401129E+03  0.15705401129E+03  0.00000000000E+00 0. -1.
        -13    1    1    2    0    0  0.23680342275E+02  0.30770264580E+02 -0.43339007576E+02  0.58188044599E+02  0.10566000000E+00 0.  1.
         13    1    1    2    0    0 -0.14598629302E+01 -0.26831517760E+02 -0.99306099498E+02  0.10287747133E+03  0.10566000000E+00 0. -1.
         -4    1    1    2    0  502 -0.22220479345E+02 -0.39387468204E+01  0.19291242409E+02  0.29688641978E+02  0.00000000000E+00 0. -1.
</event>
<event>
 5    1  0.1196676E-004  0.3350263E+03  0.7818608E-02  0.9997522E-01
          4   -1    0    0  502    0 -0.00000000000E+00  0.00000000000E+00  0.16613256844E+04  0.16613256844E+04  0.00000000000E+00 0.  1.
         21   -1    0    0  501  502  0.00000000000E+00 -0.00000000000E+00 -0.28021697792E+03  0.28021697792E+03  0.00000000000E+00 0.  1.
        -13    1    1    2    0    0  0.72844325237E+02  0.32291639980E+03 -0.54606903101E+02  0.33550442919E+03  0.10566000000E+00 0.  1.
         13    1    1    2    0    0 -0.26433888599E+03  0.77336387055E+02  0.51688399194E+03  0.58568339203E+03  0.10566000000E+00 0. -1.
          4    1    1    2  501    0  0.19149456075E+03 -0.40025278686E+03  0.91883161769E+03  0.10203548411E+04  0.00000000000E+00 0.  1.
</event>
<event>
 5    1  0.1196676E-004  0.8121040E+02  0.7818608E-02  0.1200047E+00
         21   -1    0    0  501  502  0.00000000000E+00  0.00000000000E+00  0.32949828092E+03  0.32949828092E+03  0.00000000000E+00 0. -1.
          4   -1    0    0  502    0 -0.00000000000E+00 -0.00000000000E+00 -0.36192782767E+02  0.36192782767E+02  0.00000000000E+00 0.  1.
        -13    1    1    2    0    0 -0.36117243497E+02 -0.68341655372E+02  0.41929850193E+02  0.87938391150E+02  0.10566000000E+00 0.  1.
         13    1    1    2    0    0  0.48982230674E+02  0.77193372203E+02  0.15368370302E+03  0.17882048924E+03  0.10566000000E+00 0. -1.
          4    1    1    2  501    0 -0.12864987177E+02 -0.88517168317E+01  0.97691944938E+02  0.98932183296E+02  0.00000000000E+00 0.  1.
</event>
<event>
 5    1  0.1196676E-004  0.2330796E+03  0.7818608E-02  0.1064486E+00
          4   -1    0    0  502    0 -0.00000000000E+00  0.00000000000E+00  0.98228437238E+03  0.98228437238E+03  0.00000000000E+00 0.  1.
         21   -1    0    0  501  502  0.00000000000E+00 -0.00000000000E+00 -0.75264612781E+03  0.75264612781E+03  0.00000000000E+00 0. -1.
        -13    1    1    2    0    0 -0.12359139381E+01 -0.14497972081E+03  0.58958270999E+03  0.60714778268E+03  0.10566000000E+00 0.  1.
         13    1    1    2    0    0 -0.44177819580E+02  0.47911575552E+03  0.16087401464E+03  0.50733031319E+03  0.10566000000E+00 0. -1.
          4    1    1    2  501    0  0.45413733518E+02 -0.33413603471E+03 -0.52081848005E+03  0.62045240434E+03  0.00000000000E+00 0.  1.
</event>
<event>
 5    1  0.1196676E-004  0.7186631E+02  0.7818608E-02  0.1221914E+00
         21   -1    0    0  501  502  0.00000000000E+00  0.00000000000E+00  0.50171852171E+03  0.50171852171E+03  0.00000000000E+00 0.  1.
         -4   -1    0    0    0  501 -0.00000000000E+00 -0.00000000000E+00 -0.38297109323E+02  0.38297109323E+02  0.00000000000E+00 0. -1.
        -13    1    1    2    0    0  0.61929840191E+02  0.44744095839E+02  0.30598719285E+03  0.31538153493E+03  0.10566000000E+00 0.  1.
         13    1    1    2    0    0 -0.64752932424E+02 -0.30212358583E+02  0.51584004462E+01  0.71640415464E+02  0.10566000000E+00 0. -1.
         -4    1    1    2    0  502  0.28230922335E+01 -0.14531737256E+02  0.15227581908E+03  0.15299368064E+03  0.00000000000E+00 0. -1.
</event>
<event>
 5    1  0.1196676E-004  0.4364443E+03  0.7818608E-02  0.9957726E-01
         21   -1    0    0  501  502  0.00000000000E+00  0.00000000000E+00  0.40431368265E+03  0.40431368265E+03  0.00000000000E+00 0.  1.
          4   -1    0    0  502    0 -0.00000000000E+00 -0.00000000000E+00 -0.10934445861E+04  0.10934445861E+04  0.00000000000E+00 0.  1.
        -13    1    1    2    0    0  0.19236603404E+03 -0.25420067380E+03 -0.76778807434E+03  0.83133700259E+03  0.10566000000E+00 0.  1.
         13    1    1    2    0    0  0.10186859773E+03 -0.98957307262E+02 -0.99530814268E+02  0.17342477913E+03  0.10566000000E+00 0. -1.
          4    1    1    2  501    0 -0.29423463177E+03  0.35315798106E+03  0.17818798519E+03  0.49299648699E+03  0.00000000000E+00 0.  1.
</event>
<event>
 5    1  0.1196676E-004  0.1667299E+03  0.7818608E-02  0.1085690E+00
         -4   -1    0    0    0  501 -0.00000000000E+00  0.00000000000E+00  0.14835430990E+04  0.14835430990E+04  0.00000000000E+00 0. -1.
         21   -1    0    0  501  502  0.00000000000E+00 -0.00000000000E+00 -0.25005475280E+03  0.25005475280E+03  0.00000000000E+00 0. -1.
        -13    1    1    2    0    0 -0.30620112782E+02  0.17212460107E+03  0.36021578745E+03  0.40039966820E+03  0.10566000000E+00 0.  1.
         13    1    1    2    0    0  0.79527111431E+02 -0.61311043205E+02 -0.21547958625E+03  0.23772898167E+03  0.10566000000E+00 0. -1.
         -4    1    1    2    0  502 -0.48906998649E+02 -0.11081355787E+03  0.10887521450E+04  0.10954692019E+04  0.00000000000E+00 0. -1.
</event>
<event>
 5    1  0.1196676E-004  0.4966788E+03  0.7818608E-02  0.9644955E-01
         21   -1    0    0  501  502  0.00000000000E+00  0.00000000000E+00  0.28108173128E+03  0.28108173128E+03  0.00000000000E+00 0. -1.
         -4   -1    0    0    0  501 -0.00000000000E+00 -0.00000000000E+00 -0.15591031680E+04  0.15591031680E+04  0.00000000000E+00 0. -1.
        -13    1    1    2    0    0  0.25643702590E+03  0.11306285201E+03 -0.34489741791E+03  0.44440679203E+03  0.10566000000E+00 0.  1.
         13    1    1    2    0    0 -0.39888107245E+03  0.36254356307E+03 -0.53414618034E+03  0.75885182889E+03  0.10566000000E+00 0. -1.
         -4    1    1    2    0  502  0.14244404654E+03 -0.47560641507E+03 -0.39897783842E+03  0.63692627831E+03  0.00000000000E+00 0. -1.
</event>
<event>
 5    1  0.1196676E-004  0.4361290E+02  0.7818608E-02  0.1385133E+00
          4   -1    0    0  502    0 -0.00000000000E+00  0.00000000000E+00  0.71330141283E+02  0.71330141283E+02  0.00000000000E+00 0.  1.
         21   -1    0    0  501  502  0.00000000000E+00 -0.00000000000E+00 -0.47831642705E+02  0.47831642705E+02  0.00000000000E+00 0.  1.
        -13    1    1    2    0    0  0.23441341137E+02 -0.37585613644E+02  0.25005901362E+02  0.50867289039E+02  0.10566000000E+00 0.  1.
         13    1    1    2    0    0 -0.12667444333E+02 -0.50140941153E+01  0.15981871587E+02  0.21000873058E+02  0.10566000000E+00 0. -1.
          4    1    1    2  501    0 -0.10773896804E+02  0.42599707759E+02 -0.17489274371E+02  0.47293621890E+02  0.00000000000E+00 0.  1.
</event>
<event>
 5    1  0.1196676E-004  0.4454675E+03  0.7818608E-02  0.9606243E-01
         -4   -1    0    0    0  501 -0.00000000000E+00  0.00000000000E+00  0.20830059068E+04  0.20830059068E+04  0.00000000000E+00 0. -1.
         21   -1    0    0  501  502  0.00000000000E+00 -0.00000000000E+00 -0.38217467215E+03  0.38217467215E+03  0.00000000000E+00 0.  1.
        -13    1    1    2    0    0  0.19389196355E+03 -0.28578328577E+03 -0.22183011612E+03  0.41045680837E+03  0.10566000000E+00 0.  1.
         13    1    1    2    0    0 -0.31511090135E+03  0.32761770380E+03  0.18547029616E+04  0.19095945451E+04  0.10566000000E+00 0. -1.
         -4    1    1    2    0  502  0.12121893780E+03 -0.41834418025E+02  0.67958389175E+02  0.14512922542E+03  0.00000000000E+00 0. -1.
</event>
<event>
 5    1  0.1196676E-004  0.4029158E+03  0.7818608E-02  0.9720663E-01
          4   -1    0    0  502    0 -0.00000000000E+00  0.00000000000E+00  0.85878893152E+03  0.85878893152E+03  0.00000000000E+00 0.  1.
         21   -1    0    0  501  502  0.00000000000E+00 -0.00000000000E+00 -0.43577309415E+03  0.43577309415E+03  0.00000000000E+00 0.  1.
        -13    1    1    2    0    0  0.31643404827E+03 -0.34884068025E+03  0.57399712232E+03  0.74249110075E+03  0.10566000000E+00 0.  1.
         13    1    1    2    0    0 -0.26125998699E+03  0.10828294527E+03 -0.60542717366E+02  0.28921861771E+03  0.10566000000E+00 0. -1.
          4    1    1    2  501    0 -0.55174061280E+02  0.24055773498E+03 -0.90438567591E+02  0.26285230721E+03  0.00000000000E+00 0.  1.
</event>
<event>
 5    1  0.1196676E-004  0.3763192E+02  0.7818608E-02  0.1393019E+00
         21   -1    0    0  501  502  0.00000000000E+00  0.00000000000E+00  0.28825938989E+02  0.28825938989E+02  0.00000000000E+00 0.  1.
          4   -1    0    0  502    0 -0.00000000000E+00 -0.00000000000E+00 -0.14785141856E+03  0.14785141856E+03  0.00000000000E+00 0.  1.
        -13    1    1    2    0    0 -0.42733995889E+02 -0.29765932458E+02 -0.11034968336E+03  0.12202159203E+03  0.10566000000E+00 0.  1.
         13    1    1    2    0    0  0.17759403907E+02  0.53495228081E+01  0.46056225022E+00  0.18553627759E+02  0.10566000000E+00 0. -1.
          4    1    1    2  501    0  0.24974591982E+02  0.24416409649E+02 -0.91363584610E+01  0.36102137759E+02  0.00000000000E+00 0.  1.
</event>
<event>
 5    1  0.1196676E-004  0.2703946E+03  0.7818608E-02  0.1020334E+00
          4   -1    0    0  502    0 -0.00000000000E+00  0.00000000000E+00  0.13874655418E+03  0.13874655418E+03  0.00000000000E+00 0.  1.
         21   -1    0    0  501  502  0.00000000000E+00 -0.00000000000E+00 -0.14529662300E+04  0.14529662300E+04  0.00000000000E+00 0. -1.
        -13    1    1    2    0    0  0.25754464667E+03  0.65499655600E+02 -0.40128334638E+02  0.26875591959E+03  0.10566000000E+00 0.  1.
         13    1    1    2    0    0 -0.28867956099E+03 -0.77280468661E+02 -0.92035815778E+03  0.96766074092E+03  0.10566000000E+00 0. -1.
          4    1    1    2  501    0  0.31134914322E+02  0.11780813061E+02 -0.35373318342E+03  0.35529612367E+03  0.00000000000E+00 0.  1.
</event>
<event>
 5    1  0.1196676E-004  0.3082268E+03  0.7818608E-02  0.1009827E+00
         -4   -1    0    0    0  501 -0.00000000000E+00  0.00000000000E+00  0.81310969671E+03  0.81310969671E+03  0.00000000000E+00 0. -1.
         21   -1    0    0  501  502  0.00000000000E+00 -0.00000000000E+00 -0.29952491829E+03  0.29952491829E+03  0.00000000000E+00 0. -1.
        -13    1    1    2    0    0 -0.13256104670E+03 -0.21787146506E+03  0.20627347788E+03  0.32800787373E+03  0.10566000000E+00 0.  1.
         13    1    1    2    0    0 -0.89343469659E+02  0.40168275385E+03  0.27442194326E+03  0.49460964852E+03  0.10566000000E+00 0. -1.
         -4    1    1    2    0  502  0.22190451636E+03 -0.18381128879E+03  0.32889357285E+02  0.29001709275E+03  0.00000000000E+00 0. -1.
</event>
<event>
 5    1  0.1196676E-004  0.2674283E+03  0.7818608E-02  0.1038377E+00
         -4   -1    0    0    0  501 -0.00000000000E+00  0.00000000000E+00  0.10634746227E+04  0.10634746227E+04  0.00000000000E+00 0. -1.
         21   -1    0    0  501  502  0.00000000000E+00 -0.00000000000E+00 -0.33339594929E+03  0.33339594929E+03  0.00000000000E+00 0. -1.
        -13    1    1    2    0    0 -0.11481523414E+03  0.11132754889E+03  0.12362116489E+03  0.20213501603E+03  0.10566000000E+00 0.  1.
         13    1    1    2    0    0  0.36755884633E+03 -0.46204003427E+02  0.79210159190E+03  0.87444797359E+03  0.10566000000E+00 0. -1.
         -4    1    1    2    0  502 -0.25274361219E+03 -0.65123545461E+02 -0.18564408343E+03  0.32028758232E+03  0.00000000000E+00 0. -1.
</event>
<event>
 5    1  0.1196676E-004  0.1098300E+03  0.7818608E-02  0.1149242E+00
          4   -1    0    0  502    0 -0.00000000000E+00  0.00000000000E+00  0.43547429663E+03  0.43547429663E+03  0.00000000000E+00 0.  1.
         21   -1    0    0  501  502  0.00000000000E+00 -0.00000000000E+00 -0.26846723167E+03  0.26846723167E+03  0.00000000000E+00 0.  1.
        -13    1    1    2    0    0 -0.38498792816E+02 -0.10326447944E+03  0.37184095864E+03  0.38782911114E+03  0.10566000000E+00 0.  1.
         13    1    1    2    0    0  0.26335486225E+02  0.10465816730E+03  0.29568566683E+01  0.10796130781E+03  0.10566000000E+00 0. -1.
          4    1    1    2  501    0  0.12163306591E+02 -0.13936878635E+01 -0.20779075035E+03  0.20815110935E+03  0.00000000000E+00 0.  1.
</event>
<event>
 5    1  0.1196676E-004  0.4686628E+03  0.7818608E-02  0.9968672E-01
         21   -1    0    0  501  502  0.00000000000E+00  0.00000000000E+00  0.72631357964E+03  0.72631357964E+03  0.00000000000E+00 0.  1.
          4   -1    0    0  502    0 -0.00000000000E+00 -0.00000000000E+00 -0.53607629267E+03  0.53607629267E+03  0.00000000000E+00 0.  1.
        -13    1    1    2    0    0  0.12191862121E+03  0.38731406188E+03 -0.38056575448E+02  0.40782918830E+03  0.10566000000E+00 0.  1.
         13    1    1    2    0    0 -0.27132262273E+02  0.10724693366E+03 -0.17661303230E+03  0.20839922931E+03  0.10566000000E+00 0. -1.
          4    1    1    2  501    0 -0.94786358935E+02 -0.49456099554E+03  0.40490689472E+03  0.64616145470E+03  0.00000000000E+00 0.  1.
</event>
<event>
 5    1  0.1196676E-004  0.6280441E+03  0.7818608E-02  0.9234455E-01
         21   -1    0    0  501  502  0.00000000000E+00  0.00000000000E+00  0.32055211591E+03  0.32055211591E+03  0.00000000000E+00 0. -1.
          4   -1    0    0  502    0 -0.00000000000E+00 -0.00000000000E+00 -0.26217453481E+04  0.26217453481E+04  0.00000000000E+00 0.  1.
        -13    1    1    2    0    0  0.51425567859E+03 -0.37112352827E+03 -0.14084218385E+04  0.15446176429E+04  0.10566000000E+00 0.  1.
         13    1    1    2    0    0 -0.38466841979E+03  0.50605878720E+03 -0.99784050436E+03  0.11831107187E+04  0.10566000000E+00 0. -1.
          4    1    1    2  501    0 -0.12958725880E+03 -0.13493525893E+03  0.10506911067E+03  0.21456910254E+03  0.00000000000E+00 0.  1.
</event>
<event>
 5    1  0.1196676E-004  0.1009663E+03  0.7818608E-02  0.1169391E+00
         21   -1    0    0  501  502  0.00000000000E+00  0.00000000000E+00  0.54455448721E+03  0.54455448721E+03  0.00000000000E+00 0. -1.
          4   -1    0    0  502    0 -0.00000000000E+00 -0.00000000000E+00 -0.18121070693E+03  0.18121070693E+03  0.00000000000E+00 0.  1.
        -13    1    1    2    0    0 -0.15871001520E+03 -0.64949253528E+02 -0.11941434396E+03  0.20896667478E+03  0.10566000000E+00 0.  1.
         13    1    1    2    0    0  0.61011351508E+02  0.61286456470E+02  0.21419459662E+03  0.23099296774E+03  0.10566000000E+00 0. -1.
          4    1    1    2  501    0  0.97698663693E+02  0.36627970582E+01  0.26856352762E+03  0.28580555162E+03  0.00000000000E+00 0.  1.
</event>
<event>
 5    1  0.1196676E-004  0.1706363E+03  0.7818608E-02  0.1082370E+00
          4   -1    0    0  502    0 -0.00000000000E+00  0.00000000000E+00  0.20470359672E+03  0.20470359672E+03  0.00000000000E+00 0.  1.
         21   -1    0    0  501  502  0.00000000000E+00 -0.00000000000E+00 -0.54447072661E+03  0.54447072661E+03  0.00000000000E+00 0. -1.
        -13    1    1    2    0    0 -0.11208971761E+03  0.98915667128E+02 -0.89546736721E+02  0.17426142206E+03  0.10566000000E+00 0.  1.
         13    1    1    2    0    0  0.18054214358E+03 -0.41016420523E+02  0.10205529564E+03  0.21140744285E+03  0.10566000000E+00 0. -1.
          4    1    1    2  501    0 -0.68452425973E+02 -0.57899246605E+02 -0.35227568880E+03  0.36350545842E+03  0.00000000000E+00 0.  1.
</event>
<event>
 5    1  0.1196676E-004  0.1787262E+03  0.7818608E-02  0.1075788E+00
          4   -1    0    0  502    0 -0.00000000000E+00  0.00000000000E+00  0.61289066423E+02  0.61289066423E+02  0.00000000000E+00 0.  1.
         21   -1    0    0  501  502  0.00000000000E+00 -0.00000000000E+00 -0.14361685246E+04  0.14361685246E+04  0.00000000000E+00 0. -1.
        -13    1    1    2    0    0 -0.13729480491E+03  0.15428744625E+03 -0.78237300781E+03  0.80917366123E+03  0.10566000000E+00 0.  1.
         13    1    1    2    0    0  0.58560048211E+02 -0.16527627060E+03 -0.12817593254E+03  0.21719715863E+03  0.10566000000E+00 0. -1.
          4    1    1    2  501    0  0.78734756702E+02  0.10988824348E+02 -0.46433051779E+03  0.47108677112E+03  0.00000000000E+00 0.  1.
</event>
<event>
 5    1  0.1196676E-004  0.4685796E+03  0.7818608E-02  0.9972311E-01
         21   -1    0    0  501  502  0.00000000000E+00  0.00000000000E+00  0.77822663933E+03  0.77822663933E+03  0.00000000000E+00 0. -1.
         -4   -1    0    0    0  501 -0.00000000000E+00 -0.00000000000E+00 -0.47170510349E+03  0.47170510349E+03  0.00000000000E+00 0. -1.
        -13    1    1    2    0    0  0.10032143062E+02  0.10890335852E+03 -0.10332735572E+03  0.15045643554E+03  0.10566000000E+00 0.  1.
         13    1    1    2    0    0 -0.46978413248E+03  0.84492966963E+01  0.41210163653E+03  0.62497703297E+03  0.10566000000E+00 0. -1.
         -4    1    1    2    0  502  0.45975198942E+03 -0.11735265521E+03 -0.22527449727E+01  0.47449827431E+03  0.00000000000E+00 0. -1.
</event>
<event>
 5    1  0.1196676E-004  0.4184707E+03  0.7818608E-02  0.9795930E-01
          4   -1    0    0  502    0 -0.00000000000E+00  0.00000000000E+00  0.18243516427E+04  0.18243516427E+04  0.00000000000E+00 0.  1.
         21   -1    0    0  501  502  0.00000000000E+00 -0.00000000000E+00 -0.28153874693E+03  0.28153874693E+03  0.00000000000E+00 0.  1.
        -13    1    1    2    0    0  0.34959336563E+03  0.27576718287E+03  0.29463221890E+02  0.44624113778E+03  0.10566000000E+00 0.  1.
         13    1    1    2    0    0  0.45650077351E+02 -0.27376342141E+03  0.75656955019E+03  0.80587085559E+03  0.10566000000E+00 0. -1.
          4    1    1    2  501    0 -0.39524344298E+03 -0.20037614638E+01  0.75678012365E+03  0.85377839621E+03  0.00000000000E+00 0.  1.
</event>
<event>
 5    1  0.1196676E-004  0.4347580E+03  0.7818608E-02  0.9633722E-01
         21   -1    0    0  501  502  0.00000000000E+00  0.00000000000E+00  0.30162896900E+03  0.30162896900E+03  0.00000000000E+00 0. -1.
          4   -1    0    0  502    0 -0.00000000000E+00 -0.00000000000E+00 -0.14856447877E+04  0.14856447877E+04  0.00000000000E+00 0.  1.
        -13    1    1    2    0    0 -0.17640819747E+03  0.39947443378E+03 -0.12626464973E+04  0.13360298888E+04  0.10566000000E+00 0.  1.
         13    1    1    2    0    0  0.18432642701E+03 -0.37954585594E+03  0.68258543397E+02  0.42742312568E+03  0.10566000000E+00 0. -1.
          4    1    1    2  501    0 -0.79182295365E+01 -0.19928577841E+02  0.10372135184E+02  0.23820742265E+02  0.00000000000E+00 0.  1.
</event>
<event>
 5    1  0.1196676E-004  0.4683674E+03  0.7818608E-02  0.9777466E-01
          4   -1    0    0  502    0 -0.00000000000E+00  0.00000000000E+00  0.11549414429E+04  0.11549414429E+04  0.00000000000E+00 0.  1.
         21   -1    0    0  501  502  0.00000000000E+00 -0.00000000000E+00 -0.63906778678E+03  0.63906778678E+03  0.00000000000E+00 0.  1.
        -13    1    1    2    0    0 -0.46476123743E+03 -0.16572546936E+03  0.81831757368E+02  0.50016435968E+03  0.10566000000E+00 0.  1.
         13    1    1    2    0    0  0.12986282718E+03 -0.16613774637E+03  0.71469806415E+03  0.74515732481E+03  0.10566000000E+00 0. -1.
          4    1    1    2  501    0  0.33489841024E+03  0.33186321574E+03 -0.28065616536E+03  0.54868754524E+03  0.00000000000E+00 0.  1.
</event>
<event>
 5    1  0.1196676E-004  0.3271461E+03  0.7818608E-02  0.9966907E-01
         21   -1    0    0  501  502  0.00000000000E+00  0.00000000000E+00  0.42511967543E+02  0.42511967543E+02  0.00000000000E+00 0. -1.
         -4   -1    0    0    0  501 -0.00000000000E+00 -0.00000000000E+00 -0.38474229684E+04  0.38474229684E+04  0.00000000000E+00 0. -1.
        -13    1    1    2    0    0 -0.34894016718E+03 -0.50743883881E+02 -0.18331310476E+04  0.18667360903E+04  0.10566000000E+00 0.  1.
         13    1    1    2    0    0  0.30618193077E+03 -0.72595328549E+02 -0.15524440288E+04  0.15840138668E+04  0.10566000000E+00 0. -1.
         -4    1    1    2    0  502  0.42758236411E+02  0.12333921243E+03 -0.41933592443E+03  0.43918497882E+03  0.00000000000E+00 0. -1.
</event>
<event>
 5    1  0.1196676E-004  0.3763615E+03  0.7818608E-02  0.9799912E-01
          4   -1    0    0  502    0 -0.00000000000E+00  0.00000000000E+00  0.23477927787E+04  0.23477927787E+04  0.00000000000E+00 0.  1.
         21   -1    0    0  501  502  0.00000000000E+00 -0.00000000000E+00 -0.24749889512E+03  0.24749889512E+03  0.00000000000E+00 0.  1.
        -13    1    1    2    0    0  0.33763929643E+03  0.13757243429E+03  0.16987535651E+04  0.17374378133E+04  0.10566000000E+00 0.  1.
         13    1    1    2    0    0 -0.40545179584E+03 -0.11616824120E+03  0.55008454134E+03  0.69316609323E+03  0.10566000000E+00 0. -1.
          4    1    1    2  501    0  0.67812499408E+02 -0.21404193083E+02 -0.14854422282E+03  0.16468776728E+03  0.00000000000E+00 0.  1.
</event>
<event>
 5    1  0.1196676E-004  0.2246869E+03  0.7818608E-02  0.1044414E+00
         21   -1    0    0  501  502  0.00000000000E+00  0.00000000000E+00  0.57883850297E+02  0.57883850297E+02  0.00000000000E+00 0. -1.
          4   -1    0    0  502    0 -0.00000000000E+00 -0.00000000000E+00 -0.13424631872E+04  0.13424631872E+04  0.00000000000E+00 0.  1.
        -13    1    1    2    0    0 -0.94917235753E+02 -0.20430806084E+03 -0.99573718809E+03  0.10209033374E+04  0.10566000000E+00 0.  1.
         13    1    1    2    0    0  0.11166378972E+03  0.19359951999E+03 -0.27833692491E+03  0.35696082559E+03  0.10566000000E+00 0. -1.
          4    1    1    2  501    0 -0.16746553962E+02  0.10708540851E+02 -0.10505223863E+02  0.22482874487E+02  0.00000000000E+00 0.  1.
</event>
<event>
 5    1  0.1196676E-004  0.3663745E+03  0.7818608E-02  0.9906475E-01
         21   -1    0    0  501  502  0.00000000000E+00  0.00000000000E+00  0.22033211338E+03  0.22033211338E+03  0.00000000000E+00 0.  1.
          4   -1    0    0  502    0 -0.00000000000E+00 -0.00000000000E+00 -0.22661821215E+04  0.22661821215E+04  0.00000000000E+00 0.  1.
        -13    1    1    2    0    0  0.27021042648E+03 -0.28384661557E+03 -0.42069566753E+02  0.39414773291E+03  0.10566000000E+00 0.  1.
         13    1    1    2    0    0 -0.28288605471E+03 -0.31781113613E+02 -0.86870718589E+03  0.91415903710E+03  0.10566000000E+00 0. -1.
          4    1    1    2  501    0  0.12675628235E+02  0.31562772919E+03 -0.11350732555E+04  0.11782074649E+04  0.00000000000E+00 0.  1.
</event>
<event>
 5    1  0.1196676E-004  0.3772087E+03  0.7818608E-02  0.1019024E+00
         -4   -1    0    0    0  501 -0.00000000000E+00  0.00000000000E+00  0.41284207446E+03  0.41284207446E+03  0.00000000000E+00 0. -1.
         21   -1    0    0  501  502  0.00000000000E+00 -0.00000000000E+00 -0.27034139879E+04  0.27034139879E+04  0.00000000000E+00 0.  1.
        -13    1    1    2    0    0 -0.57312273598E+03  0.57339986537E+03 -0.10288956650E+04  0.13099173168E+04  0.10566000000E+00 0.  1.
         13    1    1    2    0    0  0.18285608206E+03  0.30555005534E+02  0.13910283137E+03  0.23177481306E+03  0.10566000000E+00 0. -1.
         -4    1    1    2    0  502  0.39026665392E+03 -0.60395487090E+03 -0.14007790798E+04  0.15745639326E+04  0.00000000000E+00 0. -1.
</event>
<event>
 5    1  0.1196676E-004  0.2247954E+03  0.7818608E-02  0.1044350E+00
         -4   -1    0    0    0  501 -0.00000000000E+00  0.00000000000E+00  0.25650812390E+04  0.25650812390E+04  0.00000000000E+00 0. -1.
         21   -1    0    0  501  502  0.00000000000E+00 -0.00000000000E+00 -0.23790242520E+03  0.23790242520E+03  0.00000000000E+00 0. -1.
        -13    1    1    2    0    0 -0.28834065077E+03  0.30196277430E+02  0.12980729422E+04  0.13300547058E+04  0.10566000000E+00 0.  1.
         13    1    1    2    0    0  0.16346135749E+03  0.14344432950E+03  0.11872031374E+04  0.12069578252E+04  0.10566000000E+00 0. -1.
         -4    1    1    2    0  502  0.12487929328E+03 -0.17364060693E+03 -0.15809726580E+03  0.26597113324E+03  0.00000000000E+00 0. -1.
</event>
<event>
 5    1  0.1196676E-004  0.4656725E+03  0.7818608E-02  0.9885511E-01
          4   -1    0    0  502    0 -0.00000000000E+00  0.00000000000E+00  0.57366724101E+03  0.57366724101E+03  0.00000000000E+00 0.  1.
         21   -1    0    0  501  502  0.00000000000E+00 -0.00000000000E+00 -0.76462994582E+03  0.76462994582E+03  0.00000000000E+00 0.  1.
        -13    1    1    2    0    0  0.25512815659E+03 -0.36491935896E+03 -0.34124810421E+03  0.56098733909E+03  0.10566000000E+00 0.  1.
         13    1    1    2    0    0  0.14536163756E+03  0.31399613169E+02  0.20500666829E+03  0.25326603915E+03  0.10566000000E+00 0. -1.
          4    1    1    2  501    0 -0.40048979414E+03  0.33351974579E+03 -0.54721268887E+02  0.52404380859E+03  0.00000000000E+00 0.  1.
</event>
<event>
 5    1  0.1196676E-004  0.1558793E+03  0.7818608E-02  0.1095454E+00
         21   -1    0    0  501  502  0.00000000000E+00  0.00000000000E+00  0.83126777214E+03  0.83126777214E+03  0.00000000000E+00 0.  1.
         -4   -1    0    0    0  501 -0.00000000000E+00 -0.00000000000E+00 -0.36812561570E+02  0.36812561570E+02  0.00000000000E+00 0. -1.
        -13    1    1    2    0    0 -0.14971517120E+03  0.57594263107E+02  0.31681695419E+03  0.35511227134E+03  0.10566000000E+00 0.  1.
         13    1    1    2    0    0  0.13850623195E+03 -0.61486516585E+02  0.31148934210E+03  0.34639600087E+03  0.10566000000E+00 0. -1.
         -4    1    1    2    0  502  0.11208939258E+02  0.38922534783E+01  0.16614891428E+03  0.16657206150E+03  0.00000000000E+00 0. -1.
</event>
<event>
 5    1  0.1196676E-004  0.4749498E+03  0.7818608E-02  0.9535314E-01
         21   -1    0    0  501  502  0.00000000000E+00  0.00000000000E+00  0.56401240332E+03  0.56401240332E+03  0.00000000000E+00 0.  1.
          4   -1    0    0  502    0 -0.00000000000E+00 -0.00000000000E+00 -0.14626685277E+04  0.14626685277E+04  0.00000000000E+00 0.  1.
        -13    1    1    2    0    0  0.46381085575E+03  0.23695243887E+03 -0.22925297067E+03  0.56905527317E+03  0.10566000000E+00 0.  1.
         13    1    1    2    0    0 -0.38087686297E+03  0.28471763354E+03 -0.78416111431E+03  0.91708231907E+03  0.10566000000E+00 0. -1.
          4    1    1    2  501    0 -0.82933992779E+02 -0.52167007241E+03  0.11475796057E+03  0.54054333880E+03  0.00000000000E+00 0.  1.
</event>
<event>
 5    1  0.1196676E-004  0.4243237E+03  0.7818608E-02  0.1002448E+00
         21   -1    0    0  501  502  0.00000000000E+00  0.00000000000E+00  0.29269191058E+03  0.29269191058E+03  0.00000000000E+00 0.  1.
          4   -1    0    0  502    0 -0.00000000000E+00 -0.00000000000E+00 -0.20739189881E+04  0.20739189881E+04  0.00000000000E+00 0.  1.
        -13    1    1    2    0    0 -0.18973208803E+02  0.36226609473E+03 -0.17121638864E+04  0.17501719604E+04  0.10566000000E+00 0.  1.
         13    1    1    2    0    0  0.10831704273E+03  0.60614468485E+02 -0.13024111976E+03  0.17991513548E+03  0.10566000000E+00 0. -1.
          4    1    1    2  501    0 -0.89343833929E+02 -0.42288056322E+03  0.61177928645E+02  0.43652380274E+03  0.00000000000E+00 0.  1.
</event>
<event>
 5    1  0.1196676E-004  0.8451370E+02  0.7818608E-02  0.1193081E+00
          4   -1    0    0  502    0 -0.00000000000E+00  0.00000000000E+00  0.50309233513E+02  0.50309233513E+02  0.00000000000E+00 0.  1.
         21   -1    0    0  501  502  0.00000000000E+00 -0.00000000000E+00 -0.44154422620E+03  0.44154422620E+03  0.00000000000E+00 0. -1.
        -13    1    1    2    0    0 -0.39627882171E+02  0.56161122263E+02 -0.88812960826E+02  0.11230402430E+03  0.10566000000E+00 0.  1.
         13    1    1    2    0    0  0.10603496536E+03 -0.24337258448E+02 -0.55998296945E+02  0.12235823001E+03  0.10566000000E+00 0. -1.
          4    1    1    2  501    0 -0.66407083186E+02 -0.31823863815E+02 -0.24642373492E+03  0.25719120540E+03  0.00000000000E+00 0.  1.
</event>
<event>
 5    1  0.1196676E-004  0.1650740E+03  0.7818608E-02  0.1087128E+00
         21   -1    0    0  501  502  0.00000000000E+00  0.00000000000E+00  0.24326438783E+02  0.24326438783E+02  0.00000000000E+00 0.  1.
         -4   -1    0    0    0  501 -0.00000000000E+00 -0.00000000000E+00 -0.14238359220E+04  0.14238359220E+04  0.00000000000E+00 0. -1.
        -13    1    1    2    0    0 -0.86682328584E+02 -0.13604739304E+03 -0.39162431034E+03  0.42354731832E+03  0.10566000000E+00 0.  1.
         13    1    1    2    0    0  0.10165869919E+03  0.13245572081E+03 -0.95677080162E+03  0.97123086189E+03  0.10566000000E+00 0. -1.
         -4    1    1    2    0  502 -0.14976370608E+02  0.35916722379E+01 -0.51114371225E+02  0.53384180538E+02  0.00000000000E+00 0. -1.
</event>
<event>
 5    1  0.1196676E-004  0.1475524E+03  0.7818608E-02  0.1103551E+00
          4   -1    0    0  502    0 -0.00000000000E+00  0.00000000000E+00  0.40140079182E+02  0.40140079182E+02  0.00000000000E+00 0.  1.
         21   -1    0    0  501  502  0.00000000000E+00 -0.00000000000E+00 -0.90187792762E+03  0.90187792762E+03  0.00000000000E+00 0.  1.
        -13    1    1    2    0    0  0.26448710524E+02 -0.14997306683E+03 -0.16607251413E+03  0.22532542284E+03  0.10566000000E+00 0.  1.
         13    1    1    2    0    0 -0.22226352580E+02  0.13474785943E+03 -0.44392970050E+03  0.46446160931E+03  0.10566000000E+00 0. -1.
          4    1    1    2  501    0 -0.42223579441E+01  0.15225207400E+02 -0.25173563381E+03  0.25223097466E+03  0.00000000000E+00 0.  1.
</event>
<event>
 5    1  0.1196676E-004  0.4587639E+03  0.7818608E-02  0.9848939E-01
         21   -1    0    0  501  502  0.00000000000E+00  0.00000000000E+00  0.41398343065E+03  0.41398343065E+03  0.00000000000E+00 0. -1.
         -4   -1    0    0    0  501 -0.00000000000E+00 -0.00000000000E+00 -0.86936599586E+03  0.86936599586E+03  0.00000000000E+00 0. -1.
        -13    1    1    2    0    0  0.78293642669E+02  0.15753876870E+03 -0.13582869260E+03  0.22225616532E+03  0.10566000000E+00 0.  1.
         13    1    1    2    0    0  0.11332150657E+03 -0.53648830655E+03 -0.32309822865E+03  0.63643848362E+03  0.10566000000E+00 0. -1.
         -4    1    1    2    0  502 -0.19161514924E+03  0.37894953784E+03  0.35443560443E+01  0.42465477757E+03  0.00000000000E+00 0. -1.
</event>
<event>
 5    1  0.1196676E-004  0.1669238E+03  0.7818608E-02  0.1085523E+00
         21   -1    0    0  501  502  0.00000000000E+00  0.00000000000E+00  0.55164710531E+03  0.55164710531E+03  0.00000000000E+00 0.  1.
         -4   -1    0    0    0  501 -0.00000000000E+00 -0.00000000000E+00 -0.19999478336E+03  0.19999478336E+03  0.00000000000E+00 0. -1.
        -13    1    1    2    0    0 -0.20652561208E+03 -0.93601683978E+02  0.15852536197E+03  0.27666659582E+03  0.10566000000E+00 0.  1.
         13    1    1    2    0    0  0.13590679994E+03  0.74363842976E+02 -0.92286821257E+02  0.18032611556E+03  0.10566000000E+00 0. -1.
         -4    1    1    2    0  502  0.70618812144E+02  0.19237841002E+02  0.28541378124E+03  0.29464917729E+03  0.00000000000E+00 0. -1.
</event>
<event>
 5    1  0.1196676E-004  0.4971851E+03  0.7818608E-02  0.9883240E-01
         21   -1    0    0  501  502  0.00000000000E+00  0.00000000000E+00  0.16005512378E+03  0.16005512378E+03  0.00000000000E+00 0.  1.
          4   -1    0    0  502    0 -0.00000000000E+00 -0.00000000000E+00 -0.20270361280E+04  0.20270361280E+04  0.00000000000E+00 0.  1.
        -13    1    1    2    0    0 -0.50980045656E+03  0.15381407240E+03 -0.70152379954E+03  0.88073317575E+03  0.10566000000E+00 0.  1.
         13    1    1    2    0    0  0.49398699753E+02 -0.11278232859E+03 -0.31866449218E+03  0.34162428913E+03  0.10566000000E+00 0. -1.
          4    1    1    2  501    0  0.46040175681E+03 -0.41031743817E+02 -0.84679271247E+03  0.96473378689E+03  0.00000000000E+00 0.  1.
</event>
<event>
 5    1  0.1196676E-004  0.4907332E+03  0.7818608E-02  0.9818993E-01
          4   -1    0    0  502    0 -0.00000000000E+00  0.00000000000E+00  0.78394179908E+03  0.78394179908E+03  0.00000000000E+00 0.  1.
         21   -1    0    0  501  502  0.00000000000E+00 -0.00000000000E+00 -0.50795164686E+03  0.50795164686E+03  0.00000000000E+00 0.  1.
        -13    1    1    2    0    0  0.15325071010E+03  0.41981080094E+03 -0.32548463499E+02  0.44809184591E+03  0.10566000000E+00 0.  1.
         13    1    1    2    0    0  0.14626142053E+03  0.62590954350E+02  0.21635055997E+03  0.26854721497E+03  0.10566000000E+00 0. -1.
          4    1    1    2  501    0 -0.29951213064E+03 -0.48240175529E+03  0.92188055750E+02  0.57525438506E+03  0.00000000000E+00 0.  1.
</event>
<event>
 5    1  0.1196676E-004  0.4787813E+03  0.7818608E-02  0.9965851E-01
         -4   -1    0    0    0  501 -0.00000000000E+00  0.00000000000E+00  0.11422754200E+04  0.11422754200E+04  0.00000000000E+00 0. -1.
         21   -1    0    0  501  502  0.00000000000E+00 -0.00000000000E+00 -0.25646337722E+03  0.25646337722E+03  0.00000000000E+00 0. -1.
        -13    1    1    2    0    0 -0.63580397084E+02 -0.83221208211E+02  0.15473420497E+03  0.18684464601E+03  0.10566000000E+00 0.  1.
         13    1    1    2    0    0  0.18072580840E+03 -0.41082673518E+03  0.43017088544E+03  0.62168112888E+03  0.10566000000E+00 0. -1.
         -4    1    1    2    0  502 -0.11714541132E+03  0.49404794339E+03  0.30090695241E+03  0.59021302237E+03  0.00000000000E+00 0. -1.
</event>
<event>
 5    1  0.1196676E-004  0.4679750E+03  0.7818608E-02  0.9967831E-01
          4   -1    0    0  502    0 -0.00000000000E+00  0.00000000000E+00  0.62049153600E+03  0.62049153600E+03  0.00000000000E+00 0.  1.
         21   -1    0    0  501  502  0.00000000000E+00 -0.00000000000E+00 -0.97574905550E+03  0.97574905550E+03  0.00000000000E+00 0.  1.
        -13    1    1    2    0    0  0.49251924806E+03  0.80263144309E+02 -0.13957399972E+03  0.51816821073E+03  0.10566000000E+00 0.  1.
         13    1    1    2    0    0 -0.66999188320E+02  0.89028982250E+02  0.34011797413E+03  0.35790403519E+03  0.10566000000E+00 0. -1.
          4    1    1    2  501    0 -0.42552005974E+03 -0.16929212656E+03 -0.55580149391E+03  0.72016834559E+03  0.00000000000E+00 0.  1.
</event>
<event>
 5    1  0.1196676E-004  0.4827427E+03  0.7818608E-02  0.9849811E-01
         21   -1    0    0  501  502  0.00000000000E+00  0.00000000000E+00  0.30036967272E+04  0.30036967272E+04  0.00000000000E+00 0. -1.
         -4   -1    0    0    0  501 -0.00000000000E+00 -0.00000000000E+00 -0.14300761754E+03  0.14300761754E+03  0.00000000000E+00 0. -1.
        -13    1    1    2    0    0  0.14911388958E+03  0.20688609327E+02  0.38881235801E+02  0.15548225713E+03  0.10566000000E+00 0.  1.
         13    1    1    2    0    0  0.27271982731E+03 -0.33330048252E+03  0.88065203186E+03  0.98031287263E+03  0.10566000000E+00 0. -1.
         -4    1    1    2    0  502 -0.42183371689E+03  0.31261187320E+03  0.19411558420E+04  0.20109092149E+04  0.00000000000E+00 0. -1.
</event>
<event>
 5    1  0.1196676E-004  0.1894899E+03  0.7818608E-02  0.1067590E+00
         -4   -1    0    0    0  501 -0.00000000000E+00  0.00000000000E+00  0.11207089821E+04  0.11207089821E+04  0.00000000000E+00 0. -1.
         21   -1    0    0  501  502  0.00000000000E+00 -0.00000000000E+00 -0.73657278427E+03  0.73657278427E+03  0.00000000000E+00 0. -1.
        -13    1    1    2    0    0  0.19457516613E+03 -0.30247495110E+02  0.35534350333E+03  0.40625536644E+03  0.10566000000E+00 0.  1.
         13    1    1    2    0    0 -0.18711113526E+03 -0.13274540052E+02  0.72731228290E+03  0.75111248051E+03  0.10566000000E+00 0. -1.
         -4    1    1    2    0  502 -0.74640308713E+01  0.43522035161E+02 -0.69851958838E+03  0.69991391946E+03  0.00000000000E+00 0. -1.
</event>
<event>
 5    1  0.1196676E-004  0.2825585E+03  0.7818608E-02  0.1014776E+00
         -4   -1    0    0    0  501 -0.00000000000E+00  0.00000000000E+00  0.18420077437E+03  0.18420077437E+03  0.00000000000E+00 0. -1.
         21   -1    0    0  501  502  0.00000000000E+00 -0.00000000000E+00 -0.91764371667E+03  0.91764371667E+03  0.00000000000E+00 0.  1.
        -13    1    1    2    0    0 -0.22721355453E+03  0.23698126312E+03 -0.16037849004E+03  0.36538663038E+03  0.10566000000E+00 0.  1.
         13    1    1    2    0    0  0.13038580206E+03 -0.21311088082E+03 -0.12868889706E+03  0.28102944382E+03  0.10566000000E+00 0. -1.
         -4    1    1    2    0  502  0.96827752468E+02 -0.23870382296E+02 -0.44437555520E+03  0.45542841683E+03  0.00000000000E+00 0. -1.
</event>
<event>
 5    1  0.1196676E-004  0.6743500E+02  0.7818608E-02  0.1233623E+00
         21   -1    0    0  501  502  0.00000000000E+00  0.00000000000E+00  0.30999792485E+02  0.30999792485E+02  0.00000000000E+00 0.  1.
         -4   -1    0    0    0  501 -0.00000000000E+00 -0.00000000000E+00 -0.44744952270E+03  0.44744952270E+03  0.00000000000E+00 0. -1.
        -13    1    1    2    0    0 -0.52241507773E+02  0.78074361125E+02 -0.10576910726E+03  0.14146340945E+03  0.10566000000E+00 0.  1.
         13    1    1    2    0    0  0.47003797425E+02 -0.41680549320E+02 -0.28572058676E+03  0.29254553496E+03  0.10566000000E+00 0. -1.
         -4    1    1    2    0  502  0.52377103487E+01 -0.36393811805E+02 -0.24960036200E+02  0.44440370774E+02  0.00000000000E+00 0. -1.
</event>
<event>
 5    1  0.1196676E-004  0.4465437E+03  0.7818608E-02  0.9716243E-01
         -4   -1    0    0    0  501 -0.00000000000E+00  0.00000000000E+00  0.78287022405E+03  0.78287022405E+03  0.00000000000E+00 0. -1.
         21   -1    0    0  501  502  0.00000000000E+00 -0.00000000000E+00 -0.11791524933E+04  0.11791524933E+04  0.00000000000E+00 0. -1.
        -13    1    1    2    0    0  0.12025803432E+03  0.27544810772E+03  0.50074510989E+03  0.58401997492E+03  0.10566000000E+00 0.  1.
         13    1    1    2    0    0  0.39584245682E+03  0.49629459757E+02 -0.53954676434E+03  0.67101792522E+03  0.10566000000E+00 0. -1.
         -4    1    1    2    0  502 -0.51610049114E+03 -0.32507756748E+03 -0.35748061484E+03  0.70698481725E+03  0.00000000000E+00 0. -1.
</event>
<event>
 5    1  0.1196676E-004  0.4732682E+02  0.7818608E-02  0.1326642E+00
          4   -1    0    0  502    0 -0.00000000000E+00  0.00000000000E+00  0.16035560021E+02  0.16035560021E+02  0.00000000000E+00 0.  1.
         21   -1    0    0  501  502  0.00000000000E+00 -0.00000000000E+00 -0.79453538093E+03  0.79453538093E+03  0.00000000000E+00 0.  1.
        -13    1    1    2    0    0 -0.51376797146E+02 -0.52982552871E+02 -0.19529127341E+03  0.20877121169E+03  0.10566000000E+00 0.  1.
         13    1    1    2    0    0  0.17949916575E+02  0.24374299429E+02 -0.18703807877E+02  0.35582995529E+02  0.10566000000E+00 0. -1.
          4    1    1    2  501    0  0.33426880571E+02  0.28608253442E+02 -0.56450473962E+03  0.56621673373E+03  0.00000000000E+00 0.  1.
</event>
<event>
 5    1  0.1196676E-004  0.4196388E+03  0.7818608E-02  0.9906849E-01
         21   -1    0    0  501  502  0.00000000000E+00  0.00000000000E+00  0.21021250884E+03  0.21021250884E+03  0.00000000000E+00 0.  1.
          4   -1    0    0  502    0 -0.00000000000E+00 -0.00000000000E+00 -0.13986597703E+04  0.13986597703E+04  0.00000000000E+00 0.  1.
        -13    1    1    2    0    0  0.24523489113E+03  0.46326036161E+03 -0.61333065488E+03  0.80679911864E+03  0.10566000000E+00 0.  1.
         13    1    1    2    0    0 -0.12261130597E+03 -0.14410584021E+03 -0.92467404739E+02  0.21059500858E+03  0.10566000000E+00 0. -1.
          4    1    1    2  501    0 -0.12262358516E+03 -0.31915452140E+03 -0.48264920185E+03  0.59147815193E+03  0.00000000000E+00 0.  1.
</event>
<event>
 5    1  0.1196676E-004  0.4663109E+03  0.7818608E-02  0.9555035E-01
         21   -1    0    0  501  502  0.00000000000E+00  0.00000000000E+00  0.69366088416E+03  0.69366088416E+03  0.00000000000E+00 0. -1.
          4   -1    0    0  502    0 -0.00000000000E+00 -0.00000000000E+00 -0.66000601624E+03  0.66000601624E+03  0.00000000000E+00 0.  1.
        -13    1    1    2    0    0  0.36484224049E+03  0.29991078337E+03 -0.41435286415E+03  0.62828707262E+03  0.10566000000E+00 0.  1.
         13    1    1    2    0    0 -0.34794661034E+03 -0.27928140936E+03  0.22299069135E+03  0.49878834074E+03  0.10566000000E+00 0. -1.
          4    1    1    2  501    0 -0.16895630142E+02 -0.20629374015E+02  0.22501704071E+03  0.22659148704E+03  0.00000000000E+00 0.  1.
</event>
<event>
 5    1  0.1196676E-004  0.3634846E+03  0.7818608E-02  0.9840869E-01
         -4   -1    0    0    0  501 -0.00000000000E+00  0.00000000000E+00  0.24733883217E+04  0.24733883217E+04  0.00000000000E+00 0. -1.
         21   -1    0    0  501  502  0.00000000000E+00 -0.00000000000E+00 -0.11527025871E+03  0.11527025871E+03  0.00000000000E+00 0. -1.
        -13    1    1    2    0    0  0.67574363982E+02  0.29730312351E+03  0.75919606548E+03  0.81812842447E+03  0.10566000000E+00 0.  1.
         13    1    1    2    0    0 -0.27483417398E+03 -0.35865034534E+03  0.14193009294E+04  0.14894895208E+04  0.10566000000E+00 0. -1.
         -4    1    1    2    0  502  0.20725981000E+03  0.61347221834E+02  0.17962106813E+03  0.28104063511E+03  0.00000000000E+00 0. -1.
</event>
<event>
 5    1  0.1196676E-004  0.3437207E+02  0.7818608E-02  0.1379413E+00
         21   -1    0    0  501  502  0.00000000000E+00  0.00000000000E+00  0.43623030324E+03  0.43623030324E+03  0.00000000000E+00 0.  1.
          4   -1    0    0  502    0 -0.00000000000E+00 -0.00000000000E+00 -0.17931088886E+02  0.17931088886E+02  0.00000000000E+00 0.  1.
        -13    1    1    2    0    0  0.49635600499E+02  0.13243353146E+02  0.13509705032E+03  0.14453478270E+03  0.10566000000E+00 0.  1.
         13    1    1    2    0    0 -0.19125608250E+02 -0.24016862500E+02  0.69405980425E+01  0.31476684078E+02  0.10566000000E+00 0. -1.
          4    1    1    2  501    0 -0.30509992249E+02  0.10773509355E+02  0.27626156599E+03  0.27814992535E+03  0.00000000000E+00 0.  1.
</event>
<event>
 5    1  0.1196676E-004  0.1803724E+03  0.7818608E-02  0.1074494E+00
         -4   -1    0    0    0  501 -0.00000000000E+00  0.00000000000E+00  0.45938442081E+03  0.45938442081E+03  0.00000000000E+00 0. -1.
         21   -1    0    0  501  502  0.00000000000E+00 -0.00000000000E+00 -0.85033078438E+02  0.85033078438E+02  0.00000000000E+00 0.  1.
        -13    1    1    2    0    0  0.17042691761E+03 -0.54364958275E+02  0.26145175068E+03  0.31679316917E+03  0.10566000000E+00 0.  1.
         13    1    1    2    0    0 -0.17119526522E+03  0.65448119785E+02  0.11492582909E+03  0.21633130281E+03  0.10566000000E+00 0. -1.
         -4    1    1    2    0  502  0.76834761420E+00 -0.11083161510E+02 -0.20262373948E+01  0.11293027278E+02  0.00000000000E+00 0. -1.
</event>
<event>
 5    1  0.1196676E-004  0.3261901E+03  0.7818608E-02  0.1028197E+00
         21   -1    0    0  501  502  0.00000000000E+00  0.00000000000E+00  0.14814529409E+03  0.14814529409E+03  0.00000000000E+00 0.  1.
          4   -1    0    0  502    0 -0.00000000000E+00 -0.00000000000E+00 -0.23390692935E+04  0.23390692935E+04  0.00000000000E+00 0.  1.
        -13    1    1    2    0    0  0.27427449528E+03  0.33245545997E+03 -0.15927055981E+04  0.16499891712E+04  0.10566000000E+00 0.  1.
         13    1    1    2    0    0 -0.89121284663E+02 -0.81047347809E+02 -0.49336626530E+03  0.50785978268E+03  0.10566000000E+00 0. -1.
          4    1    1    2  501    0 -0.18515321062E+03 -0.25140811216E+03 -0.10485213604E+03  0.32936563375E+03  0.00000000000E+00 0.  1.
</event>
<event>
 5    1  0.1196676E-004  0.4238383E+03  0.7818608E-02  0.9662620E-01
         -4   -1    0    0    0  501 -0.00000000000E+00  0.00000000000E+00  0.23570055955E+04  0.23570055955E+04  0.00000000000E+00 0. -1.
         21   -1    0    0  501  502  0.00000000000E+00 -0.00000000000E+00 -0.62325871313E+03  0.62325871313E+03  0.00000000000E+00 0. -1.
        -13    1    1    2    0    0 -0.27409818534E+03 -0.33494913958E+03  0.18360420768E+04  0.18863645619E+04  0.10566000000E+00 0.  1.
         13    1    1    2    0    0  0.50220570885E+03  0.37787355055E+02  0.26514817555E+03  0.56915905015E+03  0.10566000000E+00 0. -1.
         -4    1    1    2    0  502 -0.22810752352E+03  0.29716178453E+03 -0.36744337002E+03  0.52474069658E+03  0.00000000000E+00 0. -1.
</event>
<event>
 5    1  0.1196676E-004  0.1440540E+03  0.7818608E-02  0.1133927E+00
         -4   -1    0    0    0  501 -0.00000000000E+00  0.00000000000E+00  0.92309833849E+03  0.92309833849E+03  0.00000000000E+00 0. -1.
         21   -1    0    0  501  502  0.00000000000E+00 -0.00000000000E+00 -0.52206900842E+02  0.52206900842E+02  0.00000000000E+00 0. -1.
        -13    1    1    2    0    0  0.68260161589E+02 -0.21450235363E+02  0.37776117900E+03  0.38447767397E+03  0.10566000000E+00 0.  1.
         13    1    1    2    0    0 -0.19080861159E+03  0.37350406917E+02  0.36023277527E+03  0.40935393328E+03  0.10566000000E+00 0. -1.
         -4    1    1    2    0  502  0.12254845000E+03 -0.15900171553E+02  0.13289748338E+03  0.18147363208E+03  0.00000000000E+00 0. -1.
</event>
<event>
 5    1  0.1196676E-004  0.2047639E+03  0.7818608E-02  0.1056918E+00
          4   -1    0    0  502    0 -0.00000000000E+00  0.00000000000E+00  0.63736952808E+03  0.63736952808E+03  0.00000000000E+00 0.  1.
         21   -1    0    0  501  502  0.00000000000E+00 -0.00000000000E+00 -0.65134635491E+03  0.65134635491E+03  0.00000000000E+00 0.  1.
        -13    1    1    2    0    0 -0.65972102245E+02  0.19513509939E+03  0.51781817346E+03  0.55728421584E+03  0.10566000000E+00 0.  1.
         13    1    1    2    0    0  0.21334104814E+03 -0.12557511435E+03 -0.94878675182E+02  0.26511410060E+03  0.10566000000E+00 0. -1.
          4    1    1    2  501    0 -0.14736894590E+03 -0.69559985035E+02 -0.43691632511E+03  0.46631756656E+03  0.00000000000E+00 0.  1.
</event>
<event>
 5    1  0.1196676E-004  0.1023009E+04  0.7818608E-02  0.8753268E-01
         21   -1    0    0  501  502  0.00000000000E+00  0.00000000000E+00  0.76236266688E+03  0.76236266688E+03  0.00000000000E+00 0. -1.
          4   -1    0    0  502    0 -0.00000000000E+00 -0.00000000000E+00 -0.30282140614E+04  0.30282140614E+04  0.00000000000E+00 0.  1.
        -13    1    1    2    0    0  0.10358776391E+04  0.19755614215E+03  0.20018293168E+03  0.10733797696E+04  0.10566000000E+00 0.  1.
         13    1    1    2    0    0 -0.97309951423E+03 -0.30005083641E+03 -0.21462790113E+04  0.23755981930E+04  0.10566000000E+00 0. -1.
          4    1    1    2  501    0 -0.62778124866E+02  0.10249469426E+03 -0.31975531481E+03  0.34159876561E+03  0.00000000000E+00 0.  1.
</event>
<event>
 5    1  0.1196676E-004  0.5521057E+02  0.7818608E-02  0.1275141E+00
         21   -1    0    0  501  502  0.00000000000E+00  0.00000000000E+00  0.53697702732E+02  0.53697702732E+02  0.00000000000E+00 0. -1.
         -4   -1    0    0    0  501 -0.00000000000E+00 -0.00000000000E+00 -0.19291443959E+03  0.19291443959E+03  0.00000000000E+00 0. -1.
        -13    1    1    2    0    0  0.32235471460E+02 -0.40452610298E+02 -0.74148464682E+01  0.52254477439E+02  0.10566000000E+00 0.  1.
         13    1    1    2    0    0 -0.70118675636E+02 -0.46651684663E+00 -0.11743015331E+03  0.13677243282E+03  0.10566000000E+00 0. -1.
         -4    1    1    2    0  502  0.37883204176E+02  0.40919127145E+02 -0.14371737089E+02  0.57585232064E+02  0.00000000000E+00 0. -1.
</event>
<event>
 5    1  0.1196676E-004  0.1081201E+03  0.7818608E-02  0.1151777E+00
         21   -1    0    0  501  502  0.00000000000E+00  0.00000000000E+00  0.26435344283E+03  0.26435344283E+03  0.00000000000E+00 0.  1.
         -4   -1    0    0    0  501 -0.00000000000E+00 -0.00000000000E+00 -0.91220550434E+02  0.91220550434E+02  0.00000000000E+00 0. -1.
        -13    1    1    2    0    0 -0.88958321171E+02 -0.24718301653E+02  0.58175359187E+02  0.10912818574E+03  0.10566000000E+00 0.  1.
         13    1    1    2    0    0  0.11039270557E+03  0.43675336832E+02 -0.91610172783E+01  0.11907149068E+03  0.10566000000E+00 0. -1.
         -4    1    1    2    0  502 -0.21434384399E+02 -0.18957035179E+02  0.12411855049E+03  0.12737431685E+03  0.00000000000E+00 0. -1.
</event>
<event>
 5    1  0.1196676E-004  0.5235345E+03  0.7818608E-02  0.9889878E-01
         21   -1    0    0  501  502  0.00000000000E+00  0.00000000000E+00  0.25592154649E+03  0.25592154649E+03  0.00000000000E+00 0.  1.
          4   -1    0    0  502    0 -0.00000000000E+00 -0.00000000000E+00 -0.14348797898E+04  0.14348797898E+04  0.00000000000E+00 0.  1.
        -13    1    1    2    0    0 -0.31707034857E+03  0.45402697697E+03 -0.41086338901E+03  0.68955263566E+03  0.10566000000E+00 0.  1.
         13    1    1    2    0    0  0.10290588577E+03 -0.68398763599E+01 -0.30811483469E+03  0.32491717060E+03  0.10566000000E+00 0. -1.
          4    1    1    2  501    0  0.21416446280E+03 -0.44718710061E+03 -0.45998001963E+03  0.67633153005E+03  0.00000000000E+00 0.  1.
</event>
<event>
 5    1  0.1196676E-004  0.1404845E+03  0.7818608E-02  0.1159758E+00
         -4   -1    0    0    0  501 -0.00000000000E+00  0.00000000000E+00  0.22976278092E+03  0.22976278092E+03  0.00000000000E+00 0. -1.
         21   -1    0    0  501  502  0.00000000000E+00 -0.00000000000E+00 -0.19317682330E+03  0.19317682330E+03  0.00000000000E+00 0. -1.
        -13    1    1    2    0    0 -0.21437079084E+02 -0.34387308524E+02 -0.85198220179E+02  0.94343962355E+02  0.10566000000E+00 0.  1.
         13    1    1    2    0    0  0.56293224927E+02  0.15774605977E+03  0.10885800984E+03  0.19975691232E+03  0.10566000000E+00 0. -1.
         -4    1    1    2    0  502 -0.34856145843E+02 -0.12335875125E+03  0.12926167956E+02  0.12883872955E+03  0.00000000000E+00 0. -1.
</event>
<event>
 5    1  0.1196676E-004  0.2436781E+02  0.7818608E-02  0.1511704E+00
         21   -1    0    0  501  502  0.00000000000E+00  0.00000000000E+00  0.11633355616E+03  0.11633355616E+03  0.00000000000E+00 0. -1.
         -4   -1    0    0    0  501 -0.00000000000E+00 -0.00000000000E+00 -0.89510221517E+02  0.89510221517E+02  0.00000000000E+00 0. -1.
        -13    1    1    2    0    0  0.29507281603E+02  0.25223661605E+02  0.20225576680E+02  0.43772113136E+02  0.10566000000E+00 0.  1.
         13    1    1    2    0    0 -0.14120057962E+02  0.80473559982E+01 -0.72814978573E+02  0.74606757362E+02  0.10566000000E+00 0. -1.
         -4    1    1    2    0  502 -0.15387223641E+02 -0.33271017603E+02  0.79412736540E+02  0.87464907182E+02  0.00000000000E+00 0. -1.
</event>
<event>
 5    1  0.1196676E-004  0.1019262E+03  0.7818608E-02  0.1161407E+00
         -4   -1    0    0    0  501 -0.00000000000E+00  0.00000000000E+00  0.12098641751E+03  0.12098641751E+03  0.00000000000E+00 0. -1.
         21   -1    0    0  501  502  0.00000000000E+00 -0.00000000000E+00 -0.14743996831E+03  0.14743996831E+03  0.00000000000E+00 0.  1.
        -13    1    1    2    0    0 -0.71243900680E+02 -0.61873938476E+02 -0.70046293500E+02  0.11751839024E+03  0.10566000000E+00 0.  1.
         13    1    1    2    0    0  0.92648079750E+02  0.49365469515E+02  0.60250479100E+02  0.12104027287E+03  0.10566000000E+00 0. -1.
         -4    1    1    2    0  502 -0.21404179070E+02  0.12508468961E+02 -0.16657736403E+02  0.29867722703E+02  0.00000000000E+00 0. -1.
</event>
<event>
 5    1  0.1196676E-004  0.4722061E+03  0.7818608E-02  0.9541063E-01
         -4   -1    0    0    0  501 -0.00000000000E+00  0.00000000000E+00  0.19514054290E+04  0.19514054290E+04  0.00000000000E+00 0. -1.
         21   -1    0    0  501  502  0.00000000000E+00 -0.00000000000E+00 -0.26845968239E+03  0.26845968239E+03  0.00000000000E+00 0. -1.
        -13    1    1    2    0    0  0.12706899506E+03 -0.36104456308E+03  0.55223455782E+03  0.67190975886E+03  0.10566000000E+00 0.  1.
         13    1    1    2    0    0 -0.19416041166E+03  0.53101180106E+03  0.12199492972E+04  0.13445996048E+04  0.10566000000E+00 0. -1.
         -4    1    1    2    0  502  0.67091416595E+02 -0.16996723798E+03 -0.89238108375E+02  0.20335574777E+03  0.00000000000E+00 0. -1.
</event>
<event>
 5    1  0.1196676E-004  0.4879032E+03  0.7818608E-02  0.9706165E-01
         -4   -1    0    0    0  501 -0.00000000000E+00  0.00000000000E+00  0.68686964853E+03  0.68686964853E+03  0.00000000000E+00 0. -1.
         21   -1    0    0  501  502  0.00000000000E+00 -0.00000000000E+00 -0.63197946940E+03  0.63197946940E+03  0.00000000000E+00 0. -1.
        -13    1    1    2    0    0 -0.12363560409E+02 -0.23830944590E+03  0.16002706671E+03  0.28732024446E+03  0.10566000000E+00 0.  1.
         13    1    1    2    0    0 -0.45275490919E+03  0.30612735561E+03  0.13682722937E+02  0.54670667979E+03  0.10566000000E+00 0. -1.
         -4    1    1    2    0  502  0.46511846960E+03 -0.67817909709E+02 -0.11881961052E+03  0.48482219368E+03  0.00000000000E+00 0. -1.
</event>
<event>
 5    1  0.1196676E-004  0.3140668E+03  0.7818608E-02  0.1001662E+00
         -4   -1    0    0    0  501 -0.00000000000E+00  0.00000000000E+00  0.18415572417E+04  0.18415572417E+04  0.00000000000E+00 0. -1.
         21   -1    0    0  501  502  0.00000000000E+00 -0.00000000000E+00 -0.15985054735E+03  0.15985054735E+03  0.00000000000E+00 0. -1.
        -13    1    1    2    0    0  0.29696511436E+03  0.18727336781E+03  0.91945857736E+03  0.98420713271E+03  0.10566000000E+00 0.  1.
         13    1    1    2    0    0 -0.23086221938E+03 -0.17143850290E+03  0.85508410121E+03  0.90214043027E+03  0.10566000000E+00 0. -1.
         -4    1    1    2    0  502 -0.66102894979E+02 -0.15834864915E+02 -0.92835984187E+02  0.11506022611E+03  0.00000000000E+00 0. -1.
</event>
<event>
 5    1  0.1196676E-004  0.4881466E+02  0.7818608E-02  0.1372139E+00
          4   -1    0    0  502    0 -0.00000000000E+00  0.00000000000E+00  0.62831657179E+02  0.62831657179E+02  0.00000000000E+00 0.  1.
         21   -1    0    0  501  502  0.00000000000E+00 -0.00000000000E+00 -0.57232980353E+02  0.57232980353E+02  0.00000000000E+00 0.  1.
        -13    1    1    2    0    0 -0.47645449014E+02  0.27792741198E+02  0.92384879972E+01  0.55927507539E+02  0.10566000000E+00 0.  1.
         13    1    1    2    0    0  0.11598385231E+02 -0.36441156929E+01 -0.14978521652E+02  0.19291692359E+02  0.10566000000E+00 0. -1.
          4    1    1    2  501    0  0.36047063783E+02 -0.24148625505E+02  0.11338710481E+02  0.44845437633E+02  0.00000000000E+00 0.  1.
</event>
<event>
 5    1  0.1196676E-004  0.4036418E+03  0.7818608E-02  0.1021726E+00
          4   -1    0    0  502    0 -0.00000000000E+00  0.00000000000E+00  0.19083346009E+03  0.19083346009E+03  0.00000000000E+00 0.  1.
         21   -1    0    0  501  502  0.00000000000E+00 -0.00000000000E+00 -0.21619375632E+04  0.21619375632E+04  0.00000000000E+00 0.  1.
        -13    1    1    2    0    0  0.39094329589E+03  0.22067410789E+03 -0.46752863675E+03  0.64816414576E+03  0.10566000000E+00 0.  1.
         13    1    1    2    0    0 -0.76561892759E+02  0.13839525566E+02  0.56391026595E+02  0.96089619290E+02  0.10566000000E+00 0. -1.
          4    1    1    2  501    0 -0.31438140313E+03 -0.23451363346E+03 -0.15599664930E+04  0.16085172583E+04  0.00000000000E+00 0.  1.
</event>
<event>
 5    1  0.1196676E-004  0.4348749E+03  0.7818608E-02  0.9633850E-01
         -4   -1    0    0    0  501 -0.00000000000E+00  0.00000000000E+00  0.62116509730E+03  0.62116509730E+03  0.00000000000E+00 0. -1.
         21   -1    0    0  501  502  0.00000000000E+00 -0.00000000000E+00 -0.10664462922E+04  0.10664462922E+04  0.00000000000E+00 0. -1.
        -13    1    1    2    0    0 -0.38063691331E+03  0.21100015605E+03  0.11823578835E+03  0.45098252565E+03  0.10566000000E+00 0.  1.
         13    1    1    2    0    0 -0.27997771511E+03 -0.27445619765E+03 -0.38475858294E+03  0.54932040168E+03  0.10566000000E+00 0. -1.
         -4    1    1    2    0  502  0.66061462842E+03  0.63456041593E+02 -0.17875840031E+03  0.68730846218E+03  0.00000000000E+00 0. -1.
</event>
<event>
 5    1  0.1196676E-004  0.4232704E+03  0.7818608E-02  0.1015738E+00
         21   -1    0    0  501  502  0.00000000000E+00  0.00000000000E+00  0.13596102883E+03  0.13596102883E+03  0.00000000000E+00 0.  1.
          4   -1    0    0  502    0 -0.00000000000E+00 -0.00000000000E+00 -0.23644513066E+04  0.23644513066E+04  0.00000000000E+00 0.  1.
        -13    1    1    2    0    0 -0.16145125841E+03  0.38525495930E+03 -0.15423738151E+04  0.15979376988E+04  0.10566000000E+00 0.  1.
         13    1    1    2    0    0 -0.75548117188E+02 -0.30643350405E+02 -0.35018319487E+03  0.35954806920E+03  0.10566000000E+00 0. -1.
          4    1    1    2  501    0  0.23699937560E+03 -0.35461160890E+03 -0.33593326776E+03  0.54292656740E+03  0.00000000000E+00 0.  1.
</event>
<event>
 5    1  0.1196676E-004  0.4919219E+03  0.7818608E-02  0.9802417E-01
         -4   -1    0    0    0  501 -0.00000000000E+00  0.00000000000E+00  0.24482452771E+04  0.24482452771E+04  0.00000000000E+00 0. -1.
         21   -1    0    0  501  502  0.00000000000E+00 -0.00000000000E+00 -0.14923580925E+03  0.14923580925E+03  0.00000000000E+00 0. -1.
        -13    1    1    2    0    0  0.16336324108E+03 -0.35216425469E+02  0.14100661143E+03  0.21865639893E+03  0.10566000000E+00 0.  1.
         13    1    1    2    0    0 -0.55695504259E+03 -0.12978454192E+03  0.11560311865E+04  0.12897484492E+04  0.10566000000E+00 0. -1.
         -4    1    1    2    0  502  0.39359180151E+03  0.16500096739E+03  0.10019716699E+04  0.10890762383E+04  0.00000000000E+00 0. -1.
</event>
<event>
 5    1  0.1196676E-004  0.4849743E+03  0.7818608E-02  0.9657066E-01
          4   -1    0    0  502    0 -0.00000000000E+00  0.00000000000E+00  0.41099677939E+03  0.41099677939E+03  0.00000000000E+00 0.  1.
         21   -1    0    0  501  502  0.00000000000E+00 -0.00000000000E+00 -0.12681936719E+04  0.12681936719E+04  0.00000000000E+00 0.  1.
        -13    1    1    2    0    0 -0.28130773148E+03  0.19610553843E+03 -0.30237868666E+02  0.34424665846E+03  0.10566000000E+00 0.  1.
         13    1    1    2    0    0 -0.27899779641E+03 -0.73357797615E+02  0.44259831356E+02  0.29185626720E+03  0.10566000000E+00 0. -1.
          4    1    1    2  501    0  0.56030552789E+03 -0.12274774081E+03 -0.87121885522E+03  0.10430875256E+04  0.00000000000E+00 0.  1.
</event>
<event>
 5    1  0.1196676E-004  0.7511495E+03  0.7818608E-02  0.9051907E-01
          4   -1    0    0  502    0 -0.00000000000E+00  0.00000000000E+00  0.28384717801E+04  0.28384717801E+04  0.00000000000E+00 0.  1.
         21   -1    0    0  501  502  0.00000000000E+00 -0.00000000000E+00 -0.36505658044E+03  0.36505658044E+03  0.00000000000E+00 0. -1.
        -13    1    1    2    0    0 -0.59400780178E+03 -0.54010080867E+03  0.12767213980E+04  0.15081683233E+04  0.10566000000E+00 0.  1.
         13    1    1    2    0    0  0.74134641387E+03  0.12124426804E+03  0.67097392688E+03  0.10072242549E+04  0.10566000000E+00 0. -1.
          4    1    1    2  501    0 -0.14733861209E+03  0.41885654063E+03  0.52571987479E+03  0.68813578238E+03  0.00000000000E+00 0.  1.
</event>
<event>
 5    1  0.1196676E-004  0.2210828E+03  0.7818608E-02  0.1066983E+00
         -4   -1    0    0    0  501 -0.00000000000E+00  0.00000000000E+00  0.80775130305E+03  0.80775130305E+03  0.00000000000E+00 0. -1.
         21   -1    0    0  501  502  0.00000000000E+00 -0.00000000000E+00 -0.39615738548E+03  0.39615738548E+03  0.00000000000E+00 0. -1.
        -13    1    1    2    0    0  0.58322290885E+02  0.10648867702E+03  0.12809071575E+03  0.17648957639E+03  0.10566000000E+00 0.  1.
         13    1    1    2    0    0  0.11045434330E+03 -0.24718897354E+03  0.59066201337E+03  0.64975701289E+03  0.10566000000E+00 0. -1.
         -4    1    1    2    0  502 -0.16877663419E+03  0.14070029652E+03 -0.30715881156E+03  0.37766209925E+03  0.00000000000E+00 0. -1.
</event>
<event>
 5    1  0.1196676E-004  0.9248744E+02  0.7818608E-02  0.1177622E+00
         21   -1    0    0  501  502  0.00000000000E+00  0.00000000000E+00  0.65350706726E+03  0.65350706726E+03  0.00000000000E+00 0.  1.
          4   -1    0    0  502    0 -0.00000000000E+00 -0.00000000000E+00 -0.88921906919E+02  0.88921906919E+02  0.00000000000E+00 0.  1.
        -13    1    1    2    0    0 -0.51192929024E+02  0.81481891356E+02 -0.26372751377E+02  0.99777491351E+02  0.10566000000E+00 0.  1.
         13    1    1    2    0    0  0.44009629245E+02 -0.73077751106E+02  0.44749841560E+02  0.96331535110E+02  0.10566000000E+00 0. -1.
          4    1    1    2  501    0  0.71832997796E+01 -0.84041402505E+01  0.54620807016E+03  0.54631994772E+03  0.00000000000E+00 0.  1.
</event>
<event>
 5    1  0.1196676E-004  0.1211591E+03  0.7818608E-02  0.1133636E+00
         21   -1    0    0  501  502  0.00000000000E+00  0.00000000000E+00  0.41640463819E+03  0.41640463819E+03  0.00000000000E+00 0.  1.
         -4   -1    0    0    0  501 -0.00000000000E+00 -0.00000000000E+00 -0.50835016668E+02  0.50835016668E+02  0.00000000000E+00 0. -1.
        -13    1    1    2    0    0 -0.12984162167E+03  0.27184330478E+00  0.25907509577E+03  0.28979102303E+03  0.10566000000E+00 0.  1.
         13    1    1    2    0    0  0.11795094432E+03  0.28235923917E+01  0.66126444550E+02  0.13525204535E+03  0.10566000000E+00 0. -1.
         -4    1    1    2    0  502  0.11890677353E+02 -0.30954356964E+01  0.40368081210E+02  0.42196586481E+02  0.00000000000E+00 0. -1.
</event>
<event>
 5    1  0.1196676E-004  0.2087976E+03  0.7818608E-02  0.1054267E+00
         21   -1    0    0  501  502  0.00000000000E+00  0.00000000000E+00  0.24740430695E+03  0.24740430695E+03  0.00000000000E+00 0.  1.
         -4   -1    0    0    0  501 -0.00000000000E+00 -0.00000000000E+00 -0.43813770562E+03  0.43813770562E+03  0.00000000000E+00 0. -1.
        -13    1    1    2    0    0 -0.20255226424E+03  0.82854036313E+02  0.62840262735E+02  0.22768645297E+03  0.10566000000E+00 0.  1.
         13    1    1    2    0    0  0.19198509015E+03 -0.76644953129E+02 -0.32511640033E+03  0.38527056545E+03  0.10566000000E+00 0. -1.
         -4    1    1    2    0  502  0.10567174090E+02 -0.62090831836E+01  0.71542738927E+02  0.72584994147E+02  0.00000000000E+00 0. -1.
</event>
<event>
 5    1  0.1196676E-004  0.4647988E+03  0.7818608E-02  0.9705478E-01
          4   -1    0    0  502    0 -0.00000000000E+00  0.00000000000E+00  0.12532712181E+04  0.12532712181E+04  0.00000000000E+00 0.  1.
         21   -1    0    0  501  502  0.00000000000E+00 -0.00000000000E+00 -0.41730868718E+03  0.41730868718E+03  0.00000000000E+00 0. -1.
        -13    1    1    2    0    0 -0.26521084974E+03  0.25756071233E+03  0.75508196930E+03  0.84072772458E+03  0.10566000000E+00 0.  1.
         13    1    1    2    0    0  0.12529150309E+03  0.24667877542E+03 -0.69713850489E+02  0.28532159243E+03  0.10566000000E+00 0. -1.
          4    1    1    2  501    0  0.13991934665E+03 -0.50423948775E+03  0.15059441208E+03  0.54453058823E+03  0.00000000000E+00 0.  1.
</event>
<event>
 5    1  0.1196676E-004  0.5304605E+03  0.7818608E-02  0.9413596E-01
         21   -1    0    0  501  502  0.00000000000E+00  0.00000000000E+00  0.57113932618E+03  0.57113932618E+03  0.00000000000E+00 0. -1.
          4   -1    0    0  502    0 -0.00000000000E+00 -0.00000000000E+00 -0.10741715553E+04  0.10741715553E+04  0.00000000000E+00 0.  1.
        -13    1    1    2    0    0  0.41994913991E+03 -0.56626132719E+03 -0.20640946032E+03  0.73458426832E+03  0.10566000000E+00 0.  1.
         13    1    1    2    0    0 -0.42973594511E+03  0.17386354368E+03 -0.20918354164E+03  0.50858556763E+03  0.10566000000E+00 0. -1.
          4    1    1    2  501    0  0.97868051968E+01  0.39239778351E+03 -0.87439227155E+02  0.40214104553E+03  0.00000000000E+00 0.  1.
</event>
<event>
 5    1  0.1196676E-004  0.4958578E+03  0.7818608E-02  0.9620815E-01
         -4   -1    0    0    0  501 -0.00000000000E+00  0.00000000000E+00  0.10339713590E+04  0.10339713590E+04  0.00000000000E+00 0. -1.
         21   -1    0    0  501  502  0.00000000000E+00 -0.00000000000E+00 -0.61441590389E+03  0.61441590389E+03  0.00000000000E+00 0. -1.
        -13    1    1    2    0    0  0.30649701711E+03 -0.11717230197E+02  0.49562888759E+03  0.58285994918E+03  0.10566000000E+00 0.  1.
         13    1    1    2    0    0 -0.28268768263E+03 -0.46348408581E+03 -0.19194574759E+03  0.57582376201E+03  0.10566000000E+00 0. -1.
         -4    1    1    2    0  502 -0.23809334488E+02  0.47520131601E+03  0.11587231512E+03  0.48970355171E+03  0.00000000000E+00 0. -1.
</event>
<event>
 5    1  0.1196676E-004  0.5122698E+03  0.7818608E-02  0.9451477E-01
         21   -1    0    0  501  502  0.00000000000E+00  0.00000000000E+00  0.15299705576E+04  0.15299705576E+04  0.00000000000E+00 0. -1.
          4   -1    0    0  502    0 -0.00000000000E+00 -0.00000000000E+00 -0.53539683866E+03  0.53539683866E+03  0.00000000000E+00 0.  1.
        -13    1    1    2    0    0 -0.26162535899E+03 -0.23878514725E+03  0.10178284595E+04  0.10777017023E+04  0.10566000000E+00 0.  1.
         13    1    1    2    0    0  0.58273766054E+03  0.56284655670E+02  0.10869388784E+03  0.59545404179E+03  0.10566000000E+00 0. -1.
          4    1    1    2  501    0 -0.32111230154E+03  0.18250049158E+03 -0.13194862833E+03  0.39221165223E+03  0.00000000000E+00 0.  1.
</event>
<event>
 5    1  0.1196676E-004  0.5316033E+03  0.7818608E-02  0.9411270E-01
         21   -1    0    0  501  502  0.00000000000E+00  0.00000000000E+00  0.48414611999E+03  0.48414611999E+03  0.00000000000E+00 0. -1.
          4   -1    0    0  502    0 -0.00000000000E+00 -0.00000000000E+00 -0.20991137175E+04  0.20991137175E+04  0.00000000000E+00 0.  1.
        -13    1    1    2    0    0 -0.26087455683E+03  0.67292917000E+03 -0.44549300652E+03  0.84814694026E+03  0.10566000000E+00 0.  1.
         13    1    1    2    0    0  0.13691964301E+03 -0.47172268614E+03 -0.13507396217E+04  0.14372775717E+04  0.10566000000E+00 0. -1.
          4    1    1    2  501    0  0.12395491383E+03 -0.20120648387E+03  0.18126503068E+03  0.29783532557E+03  0.00000000000E+00 0.  1.
</event>
<event>
 5    1  0.1196676E-004  0.9772617E+02  0.7818608E-02  0.1168373E+00
          4   -1    0    0  502    0 -0.00000000000E+00  0.00000000000E+00  0.38813254448E+02  0.38813254448E+02  0.00000000000E+00 0.  1.
         21   -1    0    0  501  502  0.00000000000E+00 -0.00000000000E+00 -0.69858568248E+03  0.69858568248E+03  0.00000000000E+00 0. -1.
        -13    1    1    2    0    0  0.45147196850E+02 -0.82144299396E+02 -0.47470780434E+02  0.10506874638E+03  0.10566000000E+00 0.  1.
         13    1    1    2    0    0 -0.42062469105E+02  0.11151546873E+03 -0.38249660090E+03  0.40063526047E+03  0.10566000000E+00 0. -1.
          4    1    1    2  501    0 -0.30847277453E+01 -0.29371169334E+02 -0.22980504670E+03  0.23169493007E+03  0.00000000000E+00 0.  1.
</event>
<event>
 5    1  0.1196676E-004  0.2763802E+03  0.7818608E-02  0.1042877E+00
         -4   -1    0    0    0  501 -0.00000000000E+00  0.00000000000E+00  0.24721190730E+04  0.24721190730E+04  0.00000000000E+00 0. -1.
         21   -1    0    0  501  502  0.00000000000E+00 -0.00000000000E+00 -0.24035333957E+03  0.24035333957E+03  0.00000000000E+00 0. -1.
        -13    1    1    2    0    0 -0.29156518623E+03  0.28629329727E+03  0.92484021433E+03  0.10110902744E+04  0.10566000000E+00 0.  1.
         13    1    1    2    0    0 -0.10821126951E+03  0.13434447111E+03 -0.85748160072E+02  0.19264182798E+03  0.10566000000E+00 0. -1.
         -4    1    1    2    0  502  0.39977645574E+03 -0.42063776838E+03  0.13926736792E+04  0.15087403101E+04  0.00000000000E+00 0. -1.
</event>
<event>
 5    1  0.1196676E-004  0.2150834E+03  0.7818608E-02  0.1050260E+00
         -4   -1    0    0    0  501 -0.00000000000E+00  0.00000000000E+00  0.12648837039E+03  0.12648837039E+03  0.00000000000E+00 0. -1.
         21   -1    0    0  501  502  0.00000000000E+00 -0.00000000000E+00 -0.19265314633E+04  0.19265314633E+04  0.00000000000E+00 0. -1.
        -13    1    1    2    0    0 -0.20343392598E+03 -0.10507275121E+02 -0.54697822107E+03  0.58367880770E+03  0.10566000000E+00 0.  1.
         13    1    1    2    0    0  0.21483546639E+03  0.33731504909E+02 -0.14636201901E+01  0.21747240145E+03  0.10566000000E+00 0. -1.
         -4    1    1    2    0  502 -0.11401540417E+02 -0.23224229787E+02 -0.12516012516E+04  0.12518686245E+04  0.00000000000E+00 0. -1.
</event>
<event>
 5    1  0.1196676E-004  0.6071962E+02  0.7818608E-02  0.1253412E+00
         21   -1    0    0  501  502  0.00000000000E+00  0.00000000000E+00  0.87656091480E+03  0.87656091480E+03  0.00000000000E+00 0. -1.
         -4   -1    0    0    0  501 -0.00000000000E+00 -0.00000000000E+00 -0.21493387599E+02  0.21493387599E+02  0.00000000000E+00 0. -1.
        -13    1    1    2    0    0 -0.75216671597E+02 -0.26857588986E+02  0.27264345785E+03  0.28410093988E+03  0.10566000000E+00 0.  1.
         13    1    1    2    0    0  0.56855108827E+02  0.73844655175E+01  0.37800593428E+02  0.68672627431E+02  0.10566000000E+00 0. -1.
         -4    1    1    2    0  502  0.18361562769E+02  0.19473123468E+02  0.54462347593E+03  0.54528073509E+03  0.00000000000E+00 0. -1.
</event>
<event>
 5    1  0.1196676E-004  0.4838437E+03  0.7818608E-02  0.9757891E-01
         21   -1    0    0  501  502  0.00000000000E+00  0.00000000000E+00  0.27333731014E+03  0.27333731014E+03  0.00000000000E+00 0. -1.
         -4   -1    0    0    0  501 -0.00000000000E+00 -0.00000000000E+00 -0.17991298801E+04  0.17991298801E+04  0.00000000000E+00 0. -1.
        -13    1    1    2    0    0  0.42260439139E+02  0.20017170785E+03 -0.82299044185E+03  0.84803769720E+03  0.10566000000E+00 0.  1.
         13    1    1    2    0    0 -0.26509074743E+03  0.33242708202E+03 -0.28844061916E+03  0.51378874178E+03  0.10566000000E+00 0. -1.
         -4    1    1    2    0  502  0.22283030829E+03 -0.53259878987E+03 -0.41436150896E+03  0.71064075128E+03  0.00000000000E+00 0. -1.
</event>
<event>
 5    1  0.1196676E-004  0.1281597E+03  0.7818608E-02  0.1124897E+00
         21   -1    0    0  501  502  0.00000000000E+00  0.00000000000E+00  0.35872110635E+03  0.35872110635E+03  0.00000000000E+00 0.  1.
         -4   -1    0    0    0  501 -0.00000000000E+00 -0.00000000000E+00 -0.17148488916E+03  0.17148488916E+03  0.00000000000E+00 0. -1.
        -13    1    1    2    0    0 -0.13521537773E+03 -0.87083026121E+02  0.13444818384E+03  0.20962580260E+03  0.10566000000E+00 0.  1.
         13    1    1    2    0    0  0.11646601710E+03  0.40307535802E+02 -0.10062336088E+03  0.15910406186E+03  0.10566000000E+00 0. -1.
         -4    1    1    2    0  502  0.18749360622E+02  0.46775490320E+02  0.15341139423E+03  0.16147613105E+03  0.00000000000E+00 0. -1.
</event>
<event>
 5    1  0.1196676E-004  0.8795069E+02  0.7818608E-02  0.1186195E+00
         21   -1    0    0  501  502  0.00000000000E+00  0.00000000000E+00  0.10969253520E+03  0.10969253520E+03  0.00000000000E+00 0. -1.
         -4   -1    0    0    0  501 -0.00000000000E+00 -0.00000000000E+00 -0.20761286314E+03  0.20761286314E+03  0.00000000000E+00 0. -1.
        -13    1    1    2    0    0  0.52597692803E+02 -0.49913761295E+02  0.31465110760E+02  0.79044071340E+02  0.10566000000E+00 0.  1.
         13    1    1    2    0    0 -0.32685097681E+02  0.86878524580E+02 -0.16090529146E+03  0.18575983858E+03  0.10566000000E+00 0. -1.
         -4    1    1    2    0  502 -0.19912595122E+02 -0.36964763286E+02  0.31519852762E+02  0.52501488430E+02  0.00000000000E+00 0. -1.
</event>
<event>
 5    1  0.1196676E-004  0.5556308E+02  0.7818608E-02  0.1270659E+00
         21   -1    0    0  501  502  0.00000000000E+00  0.00000000000E+00  0.15631382320E+03  0.15631382320E+03  0.00000000000E+00 0.  1.
         -4   -1    0    0    0  501 -0.00000000000E+00 -0.00000000000E+00 -0.38335352542E+02  0.38335352542E+02  0.00000000000E+00 0. -1.
        -13    1    1    2    0    0 -0.46468666665E+01 -0.59765039721E+02  0.85965498290E+02  0.10480234445E+03  0.10566000000E+00 0.  1.
         13    1    1    2    0    0  0.27447863531E+02  0.48226165376E+02  0.10570483766E+02  0.56488003420E+02  0.10566000000E+00 0. -1.
         -4    1    1    2    0  502 -0.22800996865E+02  0.11538874345E+02  0.21442488599E+02  0.33358827864E+02  0.00000000000E+00 0. -1.
</event>
<event>
 5    1  0.1196676E-004  0.5297365E+03  0.7818608E-02  0.9415074E-01
          4   -1    0    0  502    0 -0.00000000000E+00  0.00000000000E+00  0.24329043706E+04  0.24329043706E+04  0.00000000000E+00 0.  1.
         21   -1    0    0  501  502  0.00000000000E+00 -0.00000000000E+00 -0.27662674036E+03  0.27662674036E+03  0.00000000000E+00 0. -1.
        -13    1    1    2    0    0  0.46066338702E+03  0.60342328464E+03  0.89851444930E+03  0.11762902037E+04  0.10566000000E+00 0.  1.
         13    1    1    2    0    0 -0.29812090727E+03 -0.34389151892E+03  0.10963736431E+04  0.11870857714E+04  0.10566000000E+00 0. -1.
          4    1    1    2  501    0 -0.16254247974E+03 -0.25953176572E+03  0.16138953777E+03  0.34615513580E+03  0.00000000000E+00 0.  1.
</event>
<event>
 5    1  0.1196676E-004  0.3716154E+03  0.7818608E-02  0.1000967E+00
          4   -1    0    0  502    0 -0.00000000000E+00  0.00000000000E+00  0.23600802696E+03  0.23600802696E+03  0.00000000000E+00 0.  1.
         21   -1    0    0  501  502  0.00000000000E+00 -0.00000000000E+00 -0.15979676304E+04  0.15979676304E+04  0.00000000000E+00 0.  1.
        -13    1    1    2    0    0 -0.23059161707E+03  0.26243460214E+03 -0.96919661798E+03  0.10302361427E+04  0.10566000000E+00 0.  1.
         13    1    1    2    0    0 -0.19380716511E+03  0.71815195576E+01 -0.15124045240E+03  0.24593998674E+03  0.10566000000E+00 0. -1.
          4    1    1    2  501    0  0.42439878217E+03 -0.26961612170E+03 -0.24152253309E+03  0.55779952795E+03  0.00000000000E+00 0.  1.
</event>
<event>
 5    1  0.1196676E-004  0.1995021E+03  0.7818608E-02  0.1060478E+00
          4   -1    0    0  502    0 -0.00000000000E+00  0.00000000000E+00  0.24325640966E+03  0.24325640966E+03  0.00000000000E+00 0.  1.
         21   -1    0    0  501  502  0.00000000000E+00 -0.00000000000E+00 -0.23769386892E+03  0.23769386892E+03  0.00000000000E+00 0. -1.
        -13    1    1    2    0    0 -0.14549233002E+03  0.13850930019E+03  0.12596804103E+03  0.23710926355E+03  0.10566000000E+00 0.  1.
         13    1    1    2    0    0  0.14948467356E+03 -0.12643804380E+03 -0.10012063375E+03  0.21990088453E+03  0.10566000000E+00 0. -1.
          4    1    1    2  501    0 -0.39923435399E+01 -0.12071256389E+02 -0.20284866551E+02  0.23940130508E+02  0.00000000000E+00 0.  1.
</event>
<event>
 5    1  0.1196676E-004  0.4731051E+03  0.7818608E-02  0.9558095E-01
         -4   -1    0    0    0  501 -0.00000000000E+00  0.00000000000E+00  0.23459927345E+04  0.23459927345E+04  0.00000000000E+00 0. -1.
         21   -1    0    0  501  502  0.00000000000E+00 -0.00000000000E+00 -0.25358612223E+03  0.25358612223E+03  0.00000000000E+00 0. -1.
        -13    1    1    2    0    0  0.43156642622E+03 -0.93740654156E+02  0.70076891463E+03  0.82831997039E+03  0.10566000000E+00 0.  1.
         13    1    1    2    0    0 -0.20277849194E+03  0.52789706255E+03  0.97670639433E+03  0.11286052531E+04  0.10566000000E+00 0. -1.
         -4    1    1    2    0  502 -0.22878793427E+03 -0.43415640840E+03  0.41493130329E+03  0.64265363320E+03  0.00000000000E+00 0. -1.
</event>
<event>
 5    1  0.1196676E-004  0.3132423E+03  0.7818608E-02  0.1001984E+00
         -4   -1    0    0    0  501 -0.00000000000E+00  0.00000000000E+00  0.22908628327E+03  0.22908628327E+03  0.00000000000E+00 0. -1.
         21   -1    0    0  501  502  0.00000000000E+00 -0.00000000000E+00 -0.76551888135E+03  0.76551888135E+03  0.00000000000E+00 0.  1.
        -13    1    1    2    0    0  0.20696528033E+03  0.20659085457E+03 -0.65124929719E+02  0.29959251675E+03  0.10566000000E+00 0.  1.
         13    1    1    2    0    0 -0.31397672189E+03 -0.17266772353E+03 -0.22180352489E+03  0.42141706119E+03  0.10566000000E+00 0. -1.
         -4    1    1    2    0  502  0.10701144156E+03 -0.33923131042E+02 -0.24950414346E+03  0.27359558668E+03  0.00000000000E+00 0. -1.
</event>
<event>
 5    1  0.1196676E-004  0.3602716E+03  0.7818608E-02  0.1022923E+00
         -4   -1    0    0    0  501 -0.00000000000E+00  0.00000000000E+00  0.36227664852E+03  0.36227664852E+03  0.00000000000E+00 0. -1.
         21   -1    0    0  501  502  0.00000000000E+00 -0.00000000000E+00 -0.90076307949E+03  0.90076307949E+03  0.00000000000E+00 0. -1.
        -13    1    1    2    0    0 -0.10099302083E+03 -0.30102318934E+02  0.43810034873E+02  0.11412742958E+03  0.10566000000E+00 0.  1.
         13    1    1    2    0    0 -0.20114681588E+03  0.24431444708E+03  0.13310950357E+03  0.34331871737E+03  0.10566000000E+00 0. -1.
         -4    1    1    2    0  502  0.30213983671E+03 -0.21421212815E+03 -0.71540596942E+03  0.80559358106E+03  0.00000000000E+00 0. -1.
</event>
<event>
 5    1  0.1196676E-004  0.9317522E+02  0.7818608E-02  0.1176369E+00
         21   -1    0    0  501  502  0.00000000000E+00  0.00000000000E+00  0.81909128223E+03  0.81909128223E+03  0.00000000000E+00 0.  1.
         -4   -1    0    0    0  501 -0.00000000000E+00 -0.00000000000E+00 -0.18730086705E+02  0.18730086705E+02  0.00000000000E+00 0. -1.
        -13    1    1    2    0    0 -0.82805368387E+00  0.10082122688E+03  0.48708503570E+03  0.49741074438E+03  0.10566000000E+00 0.  1.
         13    1    1    2    0    0 -0.84891488227E+01 -0.90484414311E+02  0.14214691498E+03  0.16871648255E+03  0.10566000000E+00 0. -1.
         -4    1    1    2    0  502  0.93172025065E+01 -0.10336812569E+02  0.17112924484E+03  0.17169414200E+03  0.00000000000E+00 0. -1.
</event>
<event>
 5    1  0.1196676E-004  0.4596052E+03  0.7818608E-02  0.9960499E-01
         -4   -1    0    0    0  501 -0.00000000000E+00  0.00000000000E+00  0.34729094338E+04  0.34729094338E+04  0.00000000000E+00 0. -1.
         21   -1    0    0  501  502  0.00000000000E+00 -0.00000000000E+00 -0.95374296849E+02  0.95374296849E+02  0.00000000000E+00 0. -1.
        -13    1    1    2    0    0 -0.83319790687E+02 -0.87057520438E+02  0.61965427378E+03  0.63126272626E+03  0.10566000000E+00 0.  1.
         13    1    1    2    0    0  0.40958474968E+03 -0.22553829277E+03  0.79061112946E+03  0.91852771209E+03  0.10566000000E+00 0. -1.
         -4    1    1    2    0  502 -0.32626495899E+03  0.31259581321E+03  0.19672697337E+04  0.20184932923E+04  0.00000000000E+00 0. -1.
</event>
<event>
 5    1  0.1196676E-004  0.1922964E+03  0.7818608E-02  0.1065549E+00
         21   -1    0    0  501  502  0.00000000000E+00  0.00000000000E+00  0.29512380306E+03  0.29512380306E+03  0.00000000000E+00 0.  1.
          4   -1    0    0  502    0 -0.00000000000E+00 -0.00000000000E+00 -0.18553247327E+03  0.18553247327E+03  0.00000000000E+00 0.  1.
        -13    1    1    2    0    0 -0.18017038931E+03  0.10844473734E+03  0.22691952618E+02  0.21151020334E+03  0.10566000000E+00 0.  1.
         13    1    1    2    0    0  0.16259620532E+03 -0.74182081469E+02  0.51633753374E+01  0.17879367664E+03  0.10566000000E+00 0. -1.
          4    1    1    2  501    0  0.17574183985E+02 -0.34262655872E+02  0.81736001838E+02  0.90352396352E+02  0.00000000000E+00 0.  1.
</event>
<event>
 5    1  0.1196676E-004  0.4818133E+03  0.7818608E-02  0.9838032E-01
         21   -1    0    0  501  502  0.00000000000E+00  0.00000000000E+00  0.18603915955E+03  0.18603915955E+03  0.00000000000E+00 0. -1.
         -4   -1    0    0    0  501 -0.00000000000E+00 -0.00000000000E+00 -0.18292702588E+04  0.18292702588E+04  0.00000000000E+00 0. -1.
        -13    1    1    2    0    0 -0.14967210982E+03 -0.49267860388E+02 -0.24232878618E+03  0.28905417192E+03  0.10566000000E+00 0.  1.
         13    1    1    2    0    0 -0.23737525215E+03 -0.36395044228E+03 -0.50230417409E+03  0.66416596514E+03  0.10566000000E+00 0. -1.
         -4    1    1    2    0  502  0.38704736197E+03  0.41321830267E+03 -0.89859813893E+03  0.10620892813E+04  0.00000000000E+00 0. -1.
</event>
<event>
 5    1  0.1196676E-004  0.1662259E+03  0.7818608E-02  0.1086126E+00
         21   -1    0    0  501  502  0.00000000000E+00  0.00000000000E+00  0.30819704811E+02  0.30819704811E+02  0.00000000000E+00 0.  1.
         -4   -1    0    0    0  501 -0.00000000000E+00 -0.00000000000E+00 -0.12211950815E+04  0.12211950815E+04  0.00000000000E+00 0. -1.
        -13    1    1    2    0    0 -0.58033744087E+02 -0.15917804317E+03 -0.62516864498E+03  0.64772016389E+03  0.10566000000E+00 0.  1.
         13    1    1    2    0    0  0.42689465878E+02  0.15757295542E+03 -0.56577379911E+03  0.58885620461E+03  0.10566000000E+00 0. -1.
         -4    1    1    2    0  502  0.15344278209E+02  0.16050877500E+01  0.56706736337E+00  0.15438417854E+02  0.00000000000E+00 0. -1.
</event>
<event>
 5    1  0.1196676E-004  0.4546019E+02  0.7818608E-02  0.1311464E+00
         -4   -1    0    0    0  501 -0.00000000000E+00  0.00000000000E+00  0.19346125520E+02  0.19346125520E+02  0.00000000000E+00 0. -1.
         21   -1    0    0  501  502  0.00000000000E+00 -0.00000000000E+00 -0.52596968296E+03  0.52596968296E+03  0.00000000000E+00 0. -1.
        -13    1    1    2    0    0 -0.28019620635E+01 -0.32688221280E+02 -0.11886342605E+03  0.12330813443E+03  0.10566000000E+00 0.  1.
         13    1    1    2    0    0  0.54126052817E+01  0.48895385007E+02 -0.18771294523E+02  0.52653847277E+02  0.10566000000E+00 0. -1.
         -4    1    1    2    0  502 -0.26106432183E+01 -0.16207163727E+02 -0.36898883687E+03  0.36935382677E+03  0.00000000000E+00 0. -1.
</event>
<event>
 5    1  0.1196676E-004  0.1799797E+03  0.7818608E-02  0.1103469E+00
         21   -1    0    0  501  502  0.00000000000E+00  0.00000000000E+00  0.17799957384E+04  0.17799957384E+04  0.00000000000E+00 0.  1.
          4   -1    0    0  502    0 -0.00000000000E+00 -0.00000000000E+00 -0.20659229152E+03  0.20659229152E+03  0.00000000000E+00 0.  1.
        -13    1    1    2    0    0  0.12047441514E+03  0.16715843481E+02 -0.11038479080E+03  0.16425077574E+03  0.10566000000E+00 0.  1.
         13    1    1    2    0    0  0.57049226988E+02 -0.58179303858E+02 -0.38715942853E+02  0.90212976296E+02  0.10566000000E+00 0. -1.
          4    1    1    2  501    0 -0.17752364213E+03  0.41463460376E+02  0.17225041806E+04  0.17321242779E+04  0.00000000000E+00 0.  1.
</event>
<event>
 5    1  0.1196676E-004  0.2027659E+03  0.7818608E-02  0.1058256E+00
         21   -1    0    0  501  502  0.00000000000E+00  0.00000000000E+00  0.16604170992E+03  0.16604170992E+03  0.00000000000E+00 0. -1.
          4   -1    0    0  502    0 -0.00000000000E+00 -0.00000000000E+00 -0.39763729143E+03  0.39763729143E+03  0.00000000000E+00 0.  1.
        -13    1    1    2    0    0 -0.10185008421E+03 -0.17477980326E+03 -0.25838482084E+03  0.32815262621E+03  0.10566000000E+00 0.  1.
         13    1    1    2    0    0  0.94104628314E+02  0.18136053096E+03 -0.26951322825E+01  0.20433941901E+03  0.10566000000E+00 0. -1.
          4    1    1    2  501    0  0.77454558984E+01 -0.65807276929E+01  0.29484371608E+02  0.31186956138E+02  0.00000000000E+00 0.  1.
</event>
<event>
 5    1  0.1196676E-004  0.5011786E+03  0.7818608E-02  0.1013562E+00
         21   -1    0    0  501  502  0.00000000000E+00  0.00000000000E+00  0.11939197813E+03  0.11939197813E+03  0.00000000000E+00 0.  1.
          4   -1    0    0  502    0 -0.00000000000E+00 -0.00000000000E+00 -0.24393910907E+04  0.24393910907E+04  0.00000000000E+00 0.  1.
        -13    1    1    2    0    0 -0.36833486440E+03  0.30858515122E+03 -0.86482067162E+03  0.98934835781E+03  0.10566000000E+00 0.  1.
         13    1    1    2    0    0 -0.27095915153E+02  0.45124289613E+02 -0.19836863230E+03  0.20523283260E+03  0.10566000000E+00 0. -1.
          4    1    1    2  501    0  0.39543077955E+03 -0.35370944084E+03 -0.12568098086E+04  0.13642018784E+04  0.00000000000E+00 0.  1.
</event>
<event>
 5    1  0.1196676E-004  0.2905117E+03  0.7818608E-02  0.1011301E+00
         -4   -1    0    0    0  501 -0.00000000000E+00  0.00000000000E+00  0.40077283686E+03  0.40077283686E+03  0.00000000000E+00 0. -1.
         21   -1    0    0  501  502  0.00000000000E+00 -0.00000000000E+00 -0.38731812542E+03  0.38731812542E+03  0.00000000000E+00 0.  1.
        -13    1    1    2    0    0  0.15981047074E+03 -0.25678966328E+03 -0.55586934840E+02  0.30752274097E+03  0.10566000000E+00 0.  1.
         13    1    1    2    0    0 -0.10046857382E+03  0.26905633226E+03  0.19063449810E+03  0.34471258649E+03  0.10566000000E+00 0. -1.
         -4    1    1    2    0  502 -0.59341896913E+02 -0.12266668972E+02 -0.12159285182E+03  0.13585563481E+03  0.00000000000E+00 0. -1.
</event>
<event>
 5    1  0.1196676E-004  0.6814350E+02  0.7818608E-02  0.1231685E+00
          4   -1    0    0  502    0 -0.00000000000E+00  0.00000000000E+00  0.93209250035E+02  0.93209250035E+02  0.00000000000E+00 0.  1.
         21   -1    0    0  501  502  0.00000000000E+00 -0.00000000000E+00 -0.10444247020E+03  0.10444247020E+03  0.00000000000E+00 0. -1.
        -13    1    1    2    0    0  0.16643570101E+02 -0.58418342304E+02  0.23723460177E+02  0.65211386047E+02  0.10566000000E+00 0.  1.
         13    1    1    2    0    0 -0.26657649600E+02  0.76141879816E+02  0.11717363990E+02  0.81520082967E+02  0.10566000000E+00 0. -1.
          4    1    1    2  501    0  0.10014079499E+02 -0.17723537511E+02 -0.46674044335E+02  0.50920251225E+02  0.00000000000E+00 0.  1.
</event>
<event>
 5    1  0.1196676E-004  0.4767119E+03  0.7818608E-02  0.9697393E-01
         21   -1    0    0  501  502  0.00000000000E+00  0.00000000000E+00  0.22945767094E+03  0.22945767094E+03  0.00000000000E+00 0.  1.
          4   -1    0    0  502    0 -0.00000000000E+00 -0.00000000000E+00 -0.23521811268E+04  0.23521811268E+04  0.00000000000E+00 0.  1.
        -13    1    1    2    0    0  0.41541080151E+03 -0.72048408496E+02 -0.74871196699E+03  0.85925940661E+03  0.10566000000E+00 0.  1.
         13    1    1    2    0    0  0.81566895779E+02  0.25083880048E+03 -0.10924793108E+04  0.11238702407E+04  0.10566000000E+00 0. -1.
          4    1    1    2  501    0 -0.49697769729E+03 -0.17879039198E+03 -0.28153217816E+03  0.59850915048E+03  0.00000000000E+00 0.  1.
</event>
<event>
 5    1  0.1196676E-004  0.6179839E+03  0.7818608E-02  0.9251285E-01
          4   -1    0    0  502    0 -0.00000000000E+00  0.00000000000E+00  0.28244567860E+04  0.28244567860E+04  0.00000000000E+00 0.  1.
         21   -1    0    0  501  502  0.00000000000E+00 -0.00000000000E+00 -0.36067216759E+03  0.36067216759E+03  0.00000000000E+00 0.  1.
        -13    1    1    2    0    0 -0.42918017140E+03  0.26235851194E+03 -0.53554218659E+02  0.50586131875E+03  0.10566000000E+00 0.  1.
         13    1    1    2    0    0  0.45099724448E+03 -0.46915875421E+03  0.14148688802E+04  0.15573575089E+04  0.10566000000E+00 0. -1.
          4    1    1    2  501    0 -0.21817073081E+02  0.20680024227E+03  0.11024699569E+04  0.11219101259E+04  0.00000000000E+00 0.  1.
</event>
<event>
 5    1  0.1196676E-004  0.5693798E+03  0.7818608E-02  0.9458119E-01
         21   -1    0    0  501  502  0.00000000000E+00  0.00000000000E+00  0.58540228702E+03  0.58540228702E+03  0.00000000000E+00 0.  1.
          4   -1    0    0  502    0 -0.00000000000E+00 -0.00000000000E+00 -0.17223847693E+04  0.17223847693E+04  0.00000000000E+00 0.  1.
        -13    1    1    2    0    0  0.27297022637E+03  0.48551458133E+03  0.18164739034E+03  0.58586085272E+03  0.10566000000E+00 0.  1.
         13    1    1    2    0    0  0.33299522073E+03 -0.14722913866E+03 -0.71406147952E+03  0.80152731956E+03  0.10566000000E+00 0. -1.
          4    1    1    2  501    0 -0.60596544710E+03 -0.33828544267E+03 -0.60456839304E+03  0.92039888400E+03  0.00000000000E+00 0.  1.
</event>
<event>
 5    1  0.1196676E-004  0.5066226E+03  0.7818608E-02  0.9596288E-01
         21   -1    0    0  501  502  0.00000000000E+00  0.00000000000E+00  0.22721558168E+03  0.22721558168E+03  0.00000000000E+00 0.  1.
          4   -1    0    0  502    0 -0.00000000000E+00 -0.00000000000E+00 -0.27330543884E+04  0.27330543884E+04  0.00000000000E+00 0.  1.
        -13    1    1    2    0    0  0.35177250575E+03 -0.28741954285E+03 -0.66718245598E+03  0.80714703131E+03  0.10566000000E+00 0.  1.
         13    1    1    2    0    0  0.22969388077E+03  0.21372990242E+03 -0.13619485260E+04  0.13976206741E+04  0.10566000000E+00 0. -1.
          4    1    1    2  501    0 -0.58146638652E+03  0.73689640424E+02 -0.47670782476E+03  0.75550226469E+03  0.00000000000E+00 0.  1.
</event>
<event>
 5    1  0.1196676E-004  0.4330404E+02  0.7818608E-02  0.1321744E+00
         21   -1    0    0  501  502  0.00000000000E+00  0.00000000000E+00  0.58267394241E+02  0.58267394241E+02  0.00000000000E+00 0.  1.
          4   -1    0    0  502    0 -0.00000000000E+00 -0.00000000000E+00 -0.17764115637E+03  0.17764115637E+03  0.00000000000E+00 0.  1.
        -13    1    1    2    0    0 -0.87770738699E+01  0.45283667108E+02 -0.15858372974E+03  0.16515585982E+03  0.10566000000E+00 0.  1.
         13    1    1    2    0    0  0.19980944667E+02 -0.22179248854E+02  0.91598903450E+01  0.31226142648E+02  0.10566000000E+00 0. -1.
          4    1    1    2  501    0 -0.11203870797E+02 -0.23104418254E+02  0.30050077267E+02  0.39526548135E+02  0.00000000000E+00 0.  1.
</event>
<event>
 5    1  0.1196676E-004  0.1512044E+03  0.7818608E-02  0.1099930E+00
         -4   -1    0    0    0  501 -0.00000000000E+00  0.00000000000E+00  0.13250527522E+04  0.13250527522E+04  0.00000000000E+00 0. -1.
         21   -1    0    0  501  502  0.00000000000E+00 -0.00000000000E+00 -0.31297347579E+03  0.31297347579E+03  0.00000000000E+00 0. -1.
        -13    1    1    2    0    0 -0.10387752998E+03  0.60138649413E+02  0.51422756722E+03  0.52805037680E+03  0.10566000000E+00 0.  1.
         13    1    1    2    0    0  0.17573993302E+03 -0.13707810310E+03  0.77873942686E+03  0.81000619536E+03  0.10566000000E+00 0. -1.
         -4    1    1    2    0  502 -0.71862403034E+02  0.76939453692E+02 -0.28088771765E+03  0.29996965585E+03  0.00000000000E+00 0. -1.
</event>
<event>
 5    1  0.1196676E-004  0.4994614E+03  0.7818608E-02  0.9786684E-01
         21   -1    0    0  501  502  0.00000000000E+00  0.00000000000E+00  0.66148850375E+03  0.66148850375E+03  0.00000000000E+00 0. -1.
         -4   -1    0    0    0  501 -0.00000000000E+00 -0.00000000000E+00 -0.67429890256E+03  0.67429890256E+03  0.00000000000E+00 0. -1.
        -13    1    1    2    0    0 -0.13295866735E+03  0.10347968281E+03 -0.24397245742E+03  0.29649388378E+03  0.10566000000E+00 0.  1.
         13    1    1    2    0    0 -0.41207047093E+03 -0.19098491552E+03  0.43493440038E+02  0.45625541252E+03  0.10566000000E+00 0. -1.
         -4    1    1    2    0  502  0.54502913828E+03  0.87505232711E+02  0.18766861857E+03  0.58303811001E+03  0.00000000000E+00 0. -1.
</event>
<event>
 5    1  0.1196676E-004  0.4912244E+03  0.7818608E-02  0.9605554E-01
         -4   -1    0    0    0  501 -0.00000000000E+00  0.00000000000E+00  0.26268824428E+04  0.26268824428E+04  0.00000000000E+00 0. -1.
         21   -1    0    0  501  502  0.00000000000E+00 -0.00000000000E+00 -0.26684559110E+03  0.26684559110E+03  0.00000000000E+00 0. -1.
        -13    1    1    2    0    0 -0.33117452803E+03  0.35130934808E+02  0.14865310399E+04  0.15233795634E+04  0.10566000000E+00 0.  1.
         13    1    1    2    0    0  0.66874322944E+03 -0.16174591610E+03  0.49480499245E+03  0.84747344502E+03  0.10566000000E+00 0. -1.
         -4    1    1    2    0  502 -0.33756870140E+03  0.12661498130E+03  0.37870081938E+03  0.52287502546E+03  0.00000000000E+00 0. -1.
</event>
<event>
 5    1  0.1196676E-004  0.4294479E+03  0.7818608E-02  0.9688129E-01
         -4   -1    0    0    0  501 -0.00000000000E+00  0.00000000000E+00  0.63530668665E+03  0.63530668665E+03  0.00000000000E+00 0. -1.
         21   -1    0    0  501  502  0.00000000000E+00 -0.00000000000E+00 -0.80663544299E+03  0.80663544299E+03  0.00000000000E+00 0. -1.
        -13    1    1    2    0    0  0.34858871635E+03  0.13170552741E+03 -0.38370887960E+01  0.37265959471E+03  0.10566000000E+00 0.  1.
         13    1    1    2    0    0  0.16896869271E+03 -0.97884250892E+02  0.30863251495E+03  0.36522018857E+03  0.10566000000E+00 0. -1.
         -4    1    1    2    0  502 -0.51755740905E+03 -0.33821276515E+02 -0.47612418250E+03  0.70406234636E+03  0.00000000000E+00 0. -1.
</event>
<event>
 5    1  0.1196676E-004  0.6128562E+03  0.7818608E-02  0.9465386E-01
          4   -1    0    0  502    0 -0.00000000000E+00  0.00000000000E+00  0.17322214316E+04  0.17322214316E+04  0.00000000000E+00 0.  1.
         21   -1    0    0  501  502  0.00000000000E+00 -0.00000000000E+00 -0.56996283995E+03  0.56996283995E+03  0.00000000000E+00 0. -1.
        -13    1    1    2    0    0 -0.19814075091E+03 -0.16200297205E+03  0.70627796548E+03  0.75122120298E+03  0.10566000000E+00 0.  1.
         13    1    1    2    0    0 -0.26372688404E+02  0.73225417029E+03  0.56907438574E+03  0.92775932023E+03  0.10566000000E+00 0. -1.
          4    1    1    2  501    0  0.22451343932E+03 -0.57025119825E+03 -0.11309375954E+03  0.62320374837E+03  0.00000000000E+00 0.  1.
</event>
<event>
 5    1  0.1196676E-004  0.4497540E+03  0.7818608E-02  0.9881266E-01
         21   -1    0    0  501  502  0.00000000000E+00  0.00000000000E+00  0.16041173697E+04  0.16041173697E+04  0.00000000000E+00 0. -1.
         -4   -1    0    0    0  501 -0.00000000000E+00 -0.00000000000E+00 -0.25368662650E+03  0.25368662650E+03  0.00000000000E+00 0. -1.
        -13    1    1    2    0    0  0.13261204025E+03 -0.10222549775E+03  0.31913499585E+02  0.17045377153E+03  0.10566000000E+00 0.  1.
         13    1    1    2    0    0 -0.52425913300E+03  0.22469977069E+03  0.44913005589E+03  0.72598584267E+03  0.10566000000E+00 0. -1.
         -4    1    1    2    0  502  0.39164709275E+03 -0.12247427294E+03  0.86938718771E+03  0.96136438198E+03  0.00000000000E+00 0. -1.
</event>
<event>
 5    1  0.1196676E-004  0.6961796E+02  0.7818608E-02  0.1258756E+00
         21   -1    0    0  501  502  0.00000000000E+00  0.00000000000E+00  0.44947032145E+02  0.44947032145E+02  0.00000000000E+00 0. -1.
          4   -1    0    0  502    0 -0.00000000000E+00 -0.00000000000E+00 -0.26631573372E+03  0.26631573372E+03  0.00000000000E+00 0.  1.
        -13    1    1    2    0    0 -0.56550891403E+02 -0.43813542059E+02 -0.16402257418E+03  0.17894425330E+03  0.10566000000E+00 0.  1.
         13    1    1    2    0    0  0.28480758049E+02 -0.22103283761E+02  0.61662915851E+01  0.36575169828E+02  0.10566000000E+00 0. -1.
          4    1    1    2  501    0  0.28070133355E+02  0.65916825819E+02 -0.63512418980E+02  0.95743342731E+02  0.00000000000E+00 0.  1.
</event>
<event>
 5    1  0.1196676E-004  0.4329523E+03  0.7818608E-02  0.9810529E-01
         21   -1    0    0  501  502  0.00000000000E+00  0.00000000000E+00  0.19401877111E+03  0.19401877111E+03  0.00000000000E+00 0.  1.
          4   -1    0    0  502    0 -0.00000000000E+00 -0.00000000000E+00 -0.21212770186E+04  0.21212770186E+04  0.00000000000E+00 0.  1.
        -13    1    1    2    0    0  0.34424075801E+03 -0.46213623974E+03 -0.12530076358E+04  0.13791663243E+04  0.10566000000E+00 0.  1.
         13    1    1    2    0    0 -0.22211195437E+03  0.86710823116E+02 -0.35874103061E+03  0.43075239445E+03  0.10566000000E+00 0. -1.
          4    1    1    2  501    0 -0.12212880364E+03  0.37542541662E+03 -0.31550958114E+03  0.50537707102E+03  0.00000000000E+00 0.  1.
</event>
<event>
 5    1  0.1196676E-004  0.4286077E+03  0.7818608E-02  0.1006031E+00
         21   -1    0    0  501  502  0.00000000000E+00  0.00000000000E+00  0.12589791632E+03  0.12589791632E+03  0.00000000000E+00 0.  1.
         -4   -1    0    0    0  501 -0.00000000000E+00 -0.00000000000E+00 -0.21026898583E+04  0.21026898583E+04  0.00000000000E+00 0. -1.
        -13    1    1    2    0    0  0.10720036714E+03  0.58221974495E+00 -0.53345419587E+02  0.11974139906E+03  0.10566000000E+00 0.  1.
         13    1    1    2    0    0 -0.43737583729E+03  0.19496242964E+03 -0.99544749885E+03  0.11046373641E+04  0.10566000000E+00 0. -1.
         -4    1    1    2    0  502  0.33017547015E+03 -0.19554464939E+03 -0.92799902353E+03  0.10042090114E+04  0.00000000000E+00 0. -1.
</event>
<event>
 5    1  0.1196676E-004  0.4429536E+03  0.7818608E-02  0.9881881E-01
         -4   -1    0    0    0  501 -0.00000000000E+00  0.00000000000E+00  0.12485202615E+04  0.12485202615E+04  0.00000000000E+00 0. -1.
         21   -1    0    0  501  502  0.00000000000E+00 -0.00000000000E+00 -0.63555948433E+03  0.63555948433E+03  0.00000000000E+00 0. -1.
        -13    1    1    2    0    0 -0.55300627568E+02  0.16593678490E+03  0.83125087117E+03  0.84945347016E+03  0.10566000000E+00 0.  1.
         13    1    1    2    0    0  0.64364952343E+02  0.39515745630E+03 -0.25094423742E+03  0.47250955950E+03  0.10566000000E+00 0. -1.
         -4    1    1    2    0  502 -0.90643247743E+01 -0.56109424120E+03  0.32654143410E+02  0.56211671615E+03  0.00000000000E+00 0. -1.
</event>
<event>
 5    1  0.1196676E-004  0.1070041E+03  0.7818608E-02  0.1224705E+00
         21   -1    0    0  501  502  0.00000000000E+00  0.00000000000E+00  0.11209542682E+03  0.11209542682E+03  0.00000000000E+00 0.  1.
          4   -1    0    0  502    0 -0.00000000000E+00 -0.00000000000E+00 -0.20183088189E+03  0.20183088189E+03  0.00000000000E+00 0.  1.
        -13    1    1    2    0    0 -0.10015792389E+03  0.39006581010E+02 -0.13548070908E+03  0.17293974898E+03  0.10566000000E+00 0.  1.
         13    1    1    2    0    0 -0.54013825575E+01 -0.19755776385E+02  0.23917668206E+02  0.31488595563E+02  0.10566000000E+00 0. -1.
          4    1    1    2  501    0  0.10555930645E+03 -0.19250804626E+02  0.21827585803E+02  0.10949796417E+03  0.00000000000E+00 0.  1.
</event>
<event>
 5    1  0.1196676E-004  0.1691974E+03  0.7818608E-02  0.1083582E+00
         21   -1    0    0  501  502  0.00000000000E+00  0.00000000000E+00  0.11447859040E+03  0.11447859040E+03  0.00000000000E+00 0.  1.
         -4   -1    0    0    0  501 -0.00000000000E+00 -0.00000000000E+00 -0.38895655687E+03  0.38895655687E+03  0.00000000000E+00 0. -1.
        -13    1    1    2    0    0 -0.13021316973E+03 -0.11945400055E+03 -0.11622933091E+03  0.21150412844E+03  0.10566000000E+00 0.  1.
         13    1    1    2    0    0  0.10558131662E+03  0.12672041132E+03 -0.18966551271E+03  0.25135332689E+03  0.10566000000E+00 0. -1.
         -4    1    1    2    0  502  0.24631853110E+02 -0.72664107696E+01  0.31416877157E+02  0.40577691943E+02  0.00000000000E+00 0. -1.
</event>
<event>
 5    1  0.1196676E-004  0.4775756E+03  0.7818608E-02  0.9692663E-01
         21   -1    0    0  501  502  0.00000000000E+00  0.00000000000E+00  0.27593333039E+03  0.27593333039E+03  0.00000000000E+00 0. -1.
          4   -1    0    0  502    0 -0.00000000000E+00 -0.00000000000E+00 -0.17286753992E+04  0.17286753992E+04  0.00000000000E+00 0.  1.
        -13    1    1    2    0    0  0.27826749218E+03 -0.58005180847E+03 -0.92556997437E+03  0.11271968268E+04  0.10566000000E+00 0.  1.
         13    1    1    2    0    0 -0.39371834557E+02  0.26377810008E+03 -0.76951999063E+02  0.27757998624E+03  0.10566000000E+00 0. -1.
          4    1    1    2  501    0 -0.23889565763E+03  0.31627370838E+03 -0.45022009538E+03  0.59983191657E+03  0.00000000000E+00 0.  1.
</event>
<event>
 5    1  0.1196676E-004  0.5008963E+03  0.7818608E-02  0.9790411E-01
         -4   -1    0    0    0  501 -0.00000000000E+00  0.00000000000E+00  0.16779067404E+04  0.16779067404E+04  0.00000000000E+00 0. -1.
         21   -1    0    0  501  502  0.00000000000E+00 -0.00000000000E+00 -0.37069943625E+03  0.37069943625E+03  0.00000000000E+00 0. -1.
        -13    1    1    2    0    0 -0.13073157083E+03 -0.10054039583E+03  0.96151656501E+03  0.97555790744E+03  0.10566000000E+00 0.  1.
         13    1    1    2    0    0  0.22537367701E+03  0.52247639093E+03  0.10653344572E+03  0.57889917912E+03  0.10566000000E+00 0. -1.
         -4    1    1    2    0  502 -0.94642106180E+02 -0.42193599510E+03  0.23915729338E+03  0.49414909005E+03  0.00000000000E+00 0. -1.
</event>
<event>
 5    1  0.1196676E-004  0.1453755E+03  0.7818608E-02  0.1105764E+00
         -4   -1    0    0    0  501 -0.00000000000E+00  0.00000000000E+00  0.81289258895E+03  0.81289258895E+03  0.00000000000E+00 0. -1.
         21   -1    0    0  501  502  0.00000000000E+00 -0.00000000000E+00 -0.14236157665E+03  0.14236157665E+03  0.00000000000E+00 0.  1.
        -13    1    1    2    0    0 -0.83726450703E+02 -0.72144735392E+02 -0.10680705922E+02  0.11103634556E+03  0.10566000000E+00 0.  1.
         13    1    1    2    0    0  0.62844108053E+02  0.13718956858E+03  0.73930155995E+03  0.75454434419E+03  0.10566000000E+00 0. -1.
         -4    1    1    2    0  502  0.20882342650E+02 -0.65044833190E+02 -0.58089841732E+02  0.89673475854E+02  0.00000000000E+00 0. -1.
</event>
<event>
 5    1  0.1196676E-004  0.4718373E+03  0.7818608E-02  0.9578782E-01
         21   -1    0    0  501  502  0.00000000000E+00  0.00000000000E+00  0.17186660834E+04  0.17186660834E+04  0.00000000000E+00 0.  1.
          4   -1    0    0  502    0 -0.00000000000E+00 -0.00000000000E+00 -0.41464624790E+03  0.41464624790E+03  0.00000000000E+00 0.  1.
        -13    1    1    2    0    0  0.25879011322E+03  0.34773989655E+03  0.24407348819E+02  0.43415560366E+03  0.10566000000E+00 0.  1.
         13    1    1    2    0    0 -0.53292081065E+03  0.36295033041E+02  0.30195526789E+03  0.61359507398E+03  0.10566000000E+00 0. -1.
          4    1    1    2  501    0  0.27413069743E+03 -0.38403492959E+03  0.97765721882E+03  0.10855616537E+04  0.00000000000E+00 0.  1.
</event>
<event>
 5    1  0.1366081E-004  0.4286526E+03  0.7818608E-02  0.1005104E+00
         -4   -1    0    0    0  501 -0.00000000000E+00  0.00000000000E+00  0.73938427176E+03  0.73938427176E+03  0.00000000000E+00 0. -1.
         21   -1    0    0  501  502  0.00000000000E+00 -0.00000000000E+00 -0.48185653676E+03  0.48185653676E+03  0.00000000000E+00 0. -1.
        -13    1    1    2    0    0  0.10986105401E+02  0.10989007066E+03  0.18555880643E+03  0.21593657390E+03  0.10566000000E+00 0.  1.
         13    1    1    2    0    0 -0.43420923014E+03 -0.34596506510E+02  0.29001159379E+03  0.52329848987E+03  0.10566000000E+00 0. -1.
         -4    1    1    2    0  502  0.42322312474E+03 -0.75293564148E+02 -0.21804266521E+03  0.48200574475E+03  0.00000000000E+00 0. -1.
</event>
<event>
 5    1  0.1196676E-004  0.8608465E+02  0.7818608E-02  0.1189889E+00
         21   -1    0    0  501  502  0.00000000000E+00  0.00000000000E+00  0.57318410632E+02  0.57318410632E+02  0.00000000000E+00 0.  1.
         -4   -1    0    0    0  501 -0.00000000000E+00 -0.00000000000E+00 -0.25397422405E+03  0.25397422405E+03  0.00000000000E+00 0. -1.
        -13    1    1    2    0    0  0.88184529340E+02  0.71726660035E+01 -0.15350924167E+03  0.17718085900E+03  0.10566000000E+00 0.  1.
         13    1    1    2    0    0 -0.80830247706E+02 -0.16692540602E+02 -0.67713193410E+02  0.10675793920E+03  0.10566000000E+00 0. -1.
         -4    1    1    2    0  502 -0.73542816338E+01  0.95198745986E+01  0.24566621662E+02  0.27353836488E+02  0.00000000000E+00 0. -1.
</event>
<event>
 5    1  0.1196676E-004  0.4674494E+03  0.7818608E-02  0.9814412E-01
         21   -1    0    0  501  502  0.00000000000E+00  0.00000000000E+00  0.28297076255E+03  0.28297076255E+03  0.00000000000E+00 0. -1.
         -4   -1    0    0    0  501 -0.00000000000E+00 -0.00000000000E+00 -0.13025037031E+04  0.13025037031E+04  0.00000000000E+00 0. -1.
        -13    1    1    2    0    0  0.18688603861E+03  0.52481769112E+01 -0.21706571437E+03  0.28648118666E+03  0.10566000000E+00 0.  1.
         13    1    1    2    0    0  0.15461103201E+03 -0.37625904044E+03 -0.65950257743E+03  0.77486714831E+03  0.10566000000E+00 0. -1.
         -4    1    1    2    0  502 -0.34149707062E+03  0.37101086352E+03 -0.14296464877E+03  0.52412613071E+03  0.00000000000E+00 0. -1.
</event>
<event>
 5    1  0.1196676E-004  0.4844875E+03  0.7818608E-02  0.9766574E-01
          4   -1    0    0  502    0 -0.00000000000E+00  0.00000000000E+00  0.44729375782E+03  0.44729375782E+03  0.00000000000E+00 0.  1.
         21   -1    0    0  501  502  0.00000000000E+00 -0.00000000000E+00 -0.78872140176E+03  0.78872140176E+03  0.00000000000E+00 0.  1.
        -13    1    1    2    0    0  0.91202074548E+01  0.39675957553E+03 -0.11441929534E+02  0.39702930355E+03  0.10566000000E+00 0.  1.
         13    1    1    2    0    0 -0.11169099487E+03  0.16321597362E+03 -0.47199795417E+02  0.20332772617E+03  0.10566000000E+00 0. -1.
          4    1    1    2  501    0  0.10257078741E+03 -0.55997554916E+03 -0.28278591899E+03  0.63565812986E+03  0.00000000000E+00 0.  1.
</event>
<event>
 5    1  0.1196676E-004  0.4358164E+03  0.7818608E-02  0.9667271E-01
         21   -1    0    0  501  502  0.00000000000E+00  0.00000000000E+00  0.72308664086E+03  0.72308664086E+03  0.00000000000E+00 0. -1.
         -4   -1    0    0    0  501 -0.00000000000E+00 -0.00000000000E+00 -0.17790499923E+04  0.17790499923E+04  0.00000000000E+00 0. -1.
        -13    1    1    2    0    0  0.36480922784E+03 -0.11837287099E+03 -0.13491296927E+04  0.14025864851E+04  0.10566000000E+00 0.  1.
         13    1    1    2    0    0 -0.24147029646E+02 -0.27398808449E+03 -0.23269339048E+03  0.36027597008E+03  0.10566000000E+00 0. -1.
         -4    1    1    2    0  502 -0.34066219819E+03  0.39236095549E+03  0.52585973177E+03  0.73927417794E+03  0.00000000000E+00 0. -1.
</event>
<event>
 5    1  0.1196676E-004  0.4276990E+03  0.7818608E-02  0.9985065E-01
         21   -1    0    0  501  502  0.00000000000E+00  0.00000000000E+00  0.43201433634E+03  0.43201433634E+03  0.00000000000E+00 0.  1.
          4   -1    0    0  502    0 -0.00000000000E+00 -0.00000000000E+00 -0.70711823909E+03  0.70711823909E+03  0.00000000000E+00 0.  1.
        -13    1    1    2    0    0 -0.37596920541E+03  0.10964804681E+03  0.10402239729E+02  0.39177002864E+03  0.10566000000E+00 0.  1.
         13    1    1    2    0    0 -0.98854915254E+02  0.96152499476E+02  0.30182380143E+02  0.14116863908E+03  0.10566000000E+00 0. -1.
          4    1    1    2  501    0  0.47482412066E+03 -0.20580054629E+03 -0.31568852263E+03  0.60619390770E+03  0.00000000000E+00 0.  1.
</event>
<event>
 5    1  0.1196676E-004  0.5109127E+03  0.7818608E-02  0.9454369E-01
          4   -1    0    0  502    0 -0.00000000000E+00  0.00000000000E+00  0.12133332590E+04  0.12133332590E+04  0.00000000000E+00 0.  1.
         21   -1    0    0  501  502  0.00000000000E+00 -0.00000000000E+00 -0.33156864791E+03  0.33156864791E+03  0.00000000000E+00 0. -1.
        -13    1    1    2    0    0 -0.53624554875E+03  0.11847910806E+03  0.63678965520E+03  0.84089099397E+03  0.10566000000E+00 0.  1.
         13    1    1    2    0    0  0.46173213549E+03  0.59193066148E+02  0.14907452109E+03  0.48879812604E+03  0.10566000000E+00 0. -1.
          4    1    1    2  501    0  0.74513413265E+02 -0.17767217421E+03  0.95900434758E+02  0.21521278687E+03  0.00000000000E+00 0.  1.
</event>
<event>
 5    1  0.1196676E-004  0.1063068E+03  0.7818608E-02  0.1154522E+00
         21   -1    0    0  501  502  0.00000000000E+00  0.00000000000E+00  0.18721186167E+03  0.18721186167E+03  0.00000000000E+00 0. -1.
         -4   -1    0    0    0  501 -0.00000000000E+00 -0.00000000000E+00 -0.54035101773E+03  0.54035101773E+03  0.00000000000E+00 0. -1.
        -13    1    1    2    0    0 -0.12094362332E+03 -0.11218151650E+03  0.87828238561E+02  0.18688462569E+03  0.10566000000E+00 0.  1.
         13    1    1    2    0    0  0.62729295903E+02  0.82871006658E+02 -0.46093781538E+03  0.47251058096E+03  0.10566000000E+00 0. -1.
         -4    1    1    2    0  502  0.58214327413E+02  0.29310509842E+02  0.19970420764E+02  0.68167672755E+02  0.00000000000E+00 0. -1.
</event>
<event>
 5    1  0.1196676E-004  0.6067559E+02  0.7818608E-02  0.1253551E+00
         21   -1    0    0  501  502  0.00000000000E+00  0.00000000000E+00  0.45581373530E+03  0.45581373530E+03  0.00000000000E+00 0. -1.
         -4   -1    0    0    0  501 -0.00000000000E+00 -0.00000000000E+00 -0.24663419147E+03  0.24663419147E+03  0.00000000000E+00 0. -1.
        -13    1    1    2    0    0 -0.24111282316E+02  0.67069358175E+02  0.72313643027E+02  0.10153288567E+03  0.10566000000E+00 0.  1.
         13    1    1    2    0    0  0.18091817857E+02 -0.57418894290E+02 -0.22802943486E+03  0.23584248477E+03  0.10566000000E+00 0. -1.
         -4    1    1    2    0  502  0.60194644590E+01 -0.96504638848E+01  0.36489533566E+03  0.36507255634E+03  0.00000000000E+00 0. -1.
</event>
<event>
 5    1  0.1196676E-004  0.3990282E+03  0.7818608E-02  0.1050745E+00
         21   -1    0    0  501  502  0.00000000000E+00  0.00000000000E+00  0.26747699219E+03  0.26747699219E+03  0.00000000000E+00 0. -1.
         -4   -1    0    0    0  501 -0.00000000000E+00 -0.00000000000E+00 -0.12681202454E+04  0.12681202454E+04  0.00000000000E+00 0. -1.
        -13    1    1    2    0    0  0.22627229058E+01 -0.33124342362E+02 -0.55462797091E+02  0.64641124658E+02  0.10566000000E+00 0.  1.
         13    1    1    2    0    0  0.38721717776E+03  0.99889754247E+02  0.47318307723E+02  0.40268367134E+03  0.10566000000E+00 0. -1.
         -4    1    1    2    0  502 -0.38947990067E+03 -0.66765411886E+02 -0.99249876385E+03  0.10682724416E+04  0.00000000000E+00 0. -1.
</event>
<event>
 5    1  0.1196676E-004  0.1230531E+03  0.7818608E-02  0.1131209E+00
          4   -1    0    0  502    0 -0.00000000000E+00  0.00000000000E+00  0.11569094322E+03  0.11569094322E+03  0.00000000000E+00 0.  1.
         21   -1    0    0  501  502  0.00000000000E+00 -0.00000000000E+00 -0.31307907899E+03  0.31307907899E+03  0.00000000000E+00 0. -1.
        -13    1    1    2    0    0  0.56247730915E+02 -0.10195434534E+03  0.31897243652E+02  0.12073086218E+03  0.10566000000E+00 0.  1.
         13    1    1    2    0    0 -0.40568981821E+02  0.14523547019E+03 -0.13198040702E+03  0.20039466832E+03  0.10566000000E+00 0. -1.
          4    1    1    2  501    0 -0.15678749094E+02 -0.43281124851E+02 -0.97304972395E+02  0.10764449170E+03  0.00000000000E+00 0.  1.
</event>
<event>
 5    1  0.1196676E-004  0.1347452E+03  0.7818608E-02  0.1117213E+00
         -4   -1    0    0    0  501 -0.00000000000E+00  0.00000000000E+00  0.25993026236E+03  0.25993026236E+03  0.00000000000E+00 0. -1.
         21   -1    0    0  501  502  0.00000000000E+00 -0.00000000000E+00 -0.12375005366E+03  0.12375005366E+03  0.00000000000E+00 0.  1.
        -13    1    1    2    0    0 -0.10449487374E+03 -0.54576897736E+02 -0.21428681958E+02  0.11982076606E+03  0.10566000000E+00 0.  1.
         13    1    1    2    0    0  0.12297931889E+03  0.67859574489E+02  0.18239321792E+03  0.23020888738E+03  0.10566000000E+00 0. -1.
         -4    1    1    2    0  502 -0.18484445148E+02 -0.13282676753E+02 -0.24784327262E+02  0.33650662579E+02  0.00000000000E+00 0. -1.
</event>
<event>
 5    1  0.1196676E-004  0.3679233E+03  0.7818608E-02  0.9826551E-01
         21   -1    0    0  501  502  0.00000000000E+00  0.00000000000E+00  0.25972024175E+03  0.25972024175E+03  0.00000000000E+00 0. -1.
         -4   -1    0    0    0  501 -0.00000000000E+00 -0.00000000000E+00 -0.93958495875E+03  0.93958495875E+03  0.00000000000E+00 0. -1.
        -13    1    1    2    0    0  0.12789148753E+03 -0.31858805216E+03 -0.76343163995E+02  0.35168575379E+03  0.10566000000E+00 0.  1.
         13    1    1    2    0    0 -0.11374753190E+03  0.35945676800E+03 -0.66971660999E+03  0.76854929441E+03  0.10566000000E+00 0. -1.
         -4    1    1    2    0  502 -0.14143955628E+02 -0.40868715835E+02  0.66195056991E+02  0.79070152300E+02  0.00000000000E+00 0. -1.
</event>
<event>
 5    1  0.1196676E-004  0.4389696E+03  0.7818608E-02  0.9988264E-01
         -4   -1    0    0    0  501 -0.00000000000E+00  0.00000000000E+00  0.22183441831E+04  0.22183441831E+04  0.00000000000E+00 0. -1.
         21   -1    0    0  501  502  0.00000000000E+00 -0.00000000000E+00 -0.15190153027E+03  0.15190153027E+03  0.00000000000E+00 0. -1.
        -13    1    1    2    0    0 -0.35931715855E+02 -0.12099639067E+03  0.11024031460E+03  0.16758327150E+03  0.10566000000E+00 0.  1.
         13    1    1    2    0    0  0.45000292919E+03  0.20611170918E+03  0.15053219779E+04  0.15846068728E+04  0.10566000000E+00 0. -1.
         -4    1    1    2    0  502 -0.41407121333E+03 -0.85115318506E+02  0.45088036029E+03  0.61805556906E+03  0.00000000000E+00 0. -1.
</event>
<event>
 5    1  0.1196676E-004  0.2946726E+03  0.7818608E-02  0.1009529E+00
         21   -1    0    0  501  502  0.00000000000E+00  0.00000000000E+00  0.14340244444E+03  0.14340244444E+03  0.00000000000E+00 0.  1.
         -4   -1    0    0    0  501 -0.00000000000E+00 -0.00000000000E+00 -0.21075292363E+04  0.21075292363E+04  0.00000000000E+00 0. -1.
        -13    1    1    2    0    0 -0.24827973083E+03  0.25105613093E+03 -0.19965106286E+03  0.40562613782E+03  0.10566000000E+00 0.  1.
         13    1    1    2    0    0  0.15512274741E+03 -0.24342349526E+03 -0.17158213375E+04  0.17399313027E+04  0.10566000000E+00 0. -1.
         -4    1    1    2    0  502  0.93156983418E+02 -0.76326356751E+01 -0.48654391521E+02  0.10537424022E+03  0.00000000000E+00 0. -1.
</event>
<event>
 5    1  0.1196676E-004  0.5188241E+03  0.7818608E-02  0.9437641E-01
         21   -1    0    0  501  502  0.00000000000E+00  0.00000000000E+00  0.48087047645E+03  0.48087047645E+03  0.00000000000E+00 0. -1.
         -4   -1    0    0    0  501 -0.00000000000E+00 -0.00000000000E+00 -0.10820108415E+04  0.10820108415E+04  0.00000000000E+00 0. -1.
        -13    1    1    2    0    0 -0.12544792708E+02 -0.51546520405E+03 -0.69286166818E+03  0.86366605283E+03  0.10566000000E+00 0.  1.
         13    1    1    2    0    0  0.24237503507E+02  0.52696678345E+03 -0.73995964895E+02  0.53268833422E+03  0.10566000000E+00 0. -1.
         -4    1    1    2    0  502 -0.11692710799E+02 -0.11501579399E+02  0.16571726799E+03  0.16652693093E+03  0.00000000000E+00 0. -1.
</event>
<event>
 5    1  0.1196676E-004  0.2296844E+03  0.7818608E-02  0.1083958E+00
          4   -1    0    0  502    0 -0.00000000000E+00  0.00000000000E+00  0.63726873818E+03  0.63726873818E+03  0.00000000000E+00 0.  1.
         21   -1    0    0  501  502  0.00000000000E+00 -0.00000000000E+00 -0.46846282899E+03  0.46846282899E+03  0.00000000000E+00 0.  1.
        -13    1    1    2    0    0  0.20153947787E+03  0.87608676516E+02  0.56349824439E+03  0.60483363327E+03  0.10566000000E+00 0.  1.
         13    1    1    2    0    0  0.27705771618E+02 -0.60926365597E+02 -0.40756511431E+02  0.78362849577E+02  0.10566000000E+00 0. -1.
          4    1    1    2  501    0 -0.22924524949E+03 -0.26682310919E+02 -0.35393582377E+03  0.42253508431E+03  0.00000000000E+00 0.  1.
</event>
<event>
 5    1  0.1196676E-004  0.9161784E+02  0.7818608E-02  0.1191555E+00
         -4   -1    0    0    0  501 -0.00000000000E+00  0.00000000000E+00  0.71267158744E+02  0.71267158744E+02  0.00000000000E+00 0. -1.
         21   -1    0    0  501  502  0.00000000000E+00 -0.00000000000E+00 -0.35814381466E+03  0.35814381466E+03  0.00000000000E+00 0.  1.
        -13    1    1    2    0    0 -0.89225430526E+01  0.10541312172E+03 -0.16232734126E+03  0.19375684475E+03  0.10566000000E+00 0.  1.
         13    1    1    2    0    0  0.21413776584E+02  0.63892719541E+01  0.34339870418E+02  0.40970849247E+02  0.10566000000E+00 0. -1.
         -4    1    1    2    0  502 -0.12491233531E+02 -0.11180239367E+03 -0.15888918508E+03  0.19468327941E+03  0.00000000000E+00 0. -1.
</event>
<event>
 5    1  0.1196676E-004  0.4800382E+03  0.7818608E-02  0.9549479E-01
          4   -1    0    0  502    0 -0.00000000000E+00  0.00000000000E+00  0.23713754965E+04  0.23713754965E+04  0.00000000000E+00 0.  1.
         21   -1    0    0  501  502  0.00000000000E+00 -0.00000000000E+00 -0.34325266648E+03  0.34325266648E+03  0.00000000000E+00 0.  1.
        -13    1    1    2    0    0  0.11983632170E+03 -0.39866726821E+03  0.22839416681E+03  0.47482653816E+03  0.10566000000E+00 0.  1.
         13    1    1    2    0    0  0.43534513840E+03  0.24956281226E+02  0.13860506425E+04  0.14530260150E+04  0.10566000000E+00 0. -1.
          4    1    1    2  501    0 -0.55518146010E+03  0.37371098699E+03  0.41367802077E+03  0.78677560988E+03  0.00000000000E+00 0.  1.
</event>
<event>
 5    1  0.1196676E-004  0.2278795E+03  0.7818608E-02  0.1042539E+00
         21   -1    0    0  501  502  0.00000000000E+00  0.00000000000E+00  0.19096232696E+04  0.19096232696E+04  0.00000000000E+00 0.  1.
         -4   -1    0    0    0  501 -0.00000000000E+00 -0.00000000000E+00 -0.64605319203E+02  0.64605319203E+02  0.00000000000E+00 0. -1.
        -13    1    1    2    0    0 -0.26282831381E+03 -0.75529628328E+02  0.13315006887E+04  0.13592930304E+04  0.10566000000E+00 0.  1.
         13    1    1    2    0    0  0.21847024927E+03  0.23933679658E+02  0.21032392605E+03  0.30420097941E+03  0.10566000000E+00 0. -1.
         -4    1    1    2    0  502  0.44358064540E+02  0.51595948671E+02  0.30319333573E+03  0.31073457909E+03  0.00000000000E+00 0. -1.
</event>
<event>
 5    1  0.1196676E-004  0.1484569E+03  0.7818608E-02  0.1102643E+00
         21   -1    0    0  501  502  0.00000000000E+00  0.00000000000E+00  0.48889361324E+03  0.48889361324E+03  0.00000000000E+00 0.  1.
         -4   -1    0    0    0  501 -0.00000000000E+00 -0.00000000000E+00 -0.13262826926E+03  0.13262826926E+03  0.00000000000E+00 0. -1.
        -13    1    1    2    0    0 -0.89193080288E+02 -0.13053485851E+03  0.24561842957E+03  0.29210131627E+03  0.10566000000E+00 0.  1.
         13    1    1    2    0    0  0.67479644199E+02  0.13043811540E+03 -0.59089493126E+02  0.15830092764E+03  0.10566000000E+00 0. -1.
         -4    1    1    2    0  502  0.21713436089E+02  0.96743111258E-01  0.16973640753E+03  0.17111963858E+03  0.00000000000E+00 0. -1.
</event>
<event>
 5    1  0.1196676E-004  0.4689438E+03  0.7818608E-02  0.1000966E+00
         21   -1    0    0  501  502  0.00000000000E+00  0.00000000000E+00  0.19875589818E+03  0.19875589818E+03  0.00000000000E+00 0.  1.
          4   -1    0    0  502    0 -0.00000000000E+00 -0.00000000000E+00 -0.16240034350E+04  0.16240034350E+04  0.00000000000E+00 0.  1.
        -13    1    1    2    0    0  0.37586691663E+03  0.28233437909E+03 -0.31104234085E+03  0.56368075149E+03  0.10566000000E+00 0.  1.
         13    1    1    2    0    0  0.52429848115E+02 -0.81036845810E+02 -0.32330846504E+03  0.33740811206E+03  0.10566000000E+00 0. -1.
          4    1    1    2  501    0 -0.42829676475E+03 -0.20129753328E+03 -0.79089673089E+03  0.92167046959E+03  0.00000000000E+00 0.  1.
</event>
<event>
 5    1  0.1196676E-004  0.4804125E+03  0.7818608E-02  0.9695520E-01
         -4   -1    0    0    0  501 -0.00000000000E+00  0.00000000000E+00  0.52408009617E+03  0.52408009617E+03  0.00000000000E+00 0. -1.
         21   -1    0    0  501  502  0.00000000000E+00 -0.00000000000E+00 -0.82056109685E+03  0.82056109685E+03  0.00000000000E+00 0.  1.
        -13    1    1    2    0    0  0.12652552852E+03  0.22645741904E+03 -0.17016575693E+03  0.31023872743E+03  0.10566000000E+00 0.  1.
         13    1    1    2    0    0  0.78792349081E+02 -0.59561401534E+03 -0.32399572636E+02  0.60167601998E+03  0.10566000000E+00 0. -1.
         -4    1    1    2    0  502 -0.20531787760E+03  0.36915659630E+03 -0.93915671120E+02  0.43272644562E+03  0.00000000000E+00 0. -1.
</event>
<event>
 5    1  0.1196676E-004  0.4036734E+03  0.7818608E-02  0.9718497E-01
         21   -1    0    0  501  502  0.00000000000E+00  0.00000000000E+00  0.43721799964E+03  0.43721799964E+03  0.00000000000E+00 0. -1.
          4   -1    0    0  502    0 -0.00000000000E+00 -0.00000000000E+00 -0.16793586728E+04  0.16793586728E+04  0.00000000000E+00 0.  1.
        -13    1    1    2    0    0  0.28478928333E+03  0.28780201390E+03 -0.15294702232E+04  0.15821548945E+04  0.10566000000E+00 0.  1.
         13    1    1    2    0    0 -0.26762505756E+03 -0.28300998259E+03  0.18618732855E+03  0.43172161650E+03  0.10566000000E+00 0. -1.
          4    1    1    2  501    0 -0.17164225770E+02 -0.47920313040E+01  0.10114222149E+03  0.10270016153E+03  0.00000000000E+00 0.  1.
</event>
<event>
 5    1  0.1196676E-004  0.4116866E+03  0.7818608E-02  0.1005645E+00
         21   -1    0    0  501  502  0.00000000000E+00  0.00000000000E+00  0.44132087460E+03  0.44132087460E+03  0.00000000000E+00 0.  1.
          4   -1    0    0  502    0 -0.00000000000E+00 -0.00000000000E+00 -0.11385935050E+04  0.11385935050E+04  0.00000000000E+00 0.  1.
        -13    1    1    2    0    0 -0.10198801307E+03  0.37218418757E+03  0.15967577144E+03  0.41763499307E+03  0.10566000000E+00 0.  1.
         13    1    1    2    0    0 -0.81091944850E+02  0.91809877647E+02 -0.57786581807E+03  0.59070624849E+03  0.10566000000E+00 0. -1.
          4    1    1    2  501    0  0.18307995792E+03 -0.46399406522E+03 -0.27908258376E+03  0.57157313802E+03  0.00000000000E+00 0.  1.
</event>
<event>
 5    1  0.1196676E-004  0.1495413E+03  0.7818608E-02  0.1101565E+00
         -4   -1    0    0    0  501 -0.00000000000E+00  0.00000000000E+00  0.32563395686E+03  0.32563395686E+03  0.00000000000E+00 0. -1.
         21   -1    0    0  501  502  0.00000000000E+00 -0.00000000000E+00 -0.11823764033E+03  0.11823764033E+03  0.00000000000E+00 0.  1.
        -13    1    1    2    0    0  0.13586898280E+03  0.82227937609E+02 -0.13394053829E+02  0.15937762093E+03  0.10566000000E+00 0.  1.
         13    1    1    2    0    0 -0.13117840758E+03 -0.66916519115E+02  0.22408848621E+03  0.26814409552E+03  0.10566000000E+00 0. -1.
         -4    1    1    2    0  502 -0.46905752177E+01 -0.15311418494E+02 -0.32981158546E+01  0.16349880745E+02  0.00000000000E+00 0. -1.
</event>
<event>
 5    1  0.1196676E-004  0.3808458E+03  0.7818608E-02  0.1003469E+00
          4   -1    0    0  502    0 -0.00000000000E+00  0.00000000000E+00  0.30228782209E+04  0.30228782209E+04  0.00000000000E+00 0.  1.
         21   -1    0    0  501  502  0.00000000000E+00 -0.00000000000E+00 -0.33039459537E+03  0.33039459537E+03  0.00000000000E+00 0.  1.
        -13    1    1    2    0    0 -0.22012698970E+03 -0.27406104325E+01 -0.74474374810E+02  0.23240018548E+03  0.10566000000E+00 0.  1.
         13    1    1    2    0    0 -0.45355534784E+03  0.35628464339E+03  0.18020451240E+04  0.18920935074E+04  0.10566000000E+00 0. -1.
          4    1    1    2  501    0  0.67368233754E+03 -0.35354403296E+03  0.96491287632E+03  0.12287791234E+04  0.00000000000E+00 0.  1.
</event>
<event>
 5    1  0.1196676E-004  0.1179095E+03  0.7818608E-02  0.1137914E+00
          4   -1    0    0  502    0 -0.00000000000E+00  0.00000000000E+00  0.86730372175E+03  0.86730372175E+03  0.00000000000E+00 0.  1.
         21   -1    0    0  501  502  0.00000000000E+00 -0.00000000000E+00 -0.49134544835E+03  0.49134544835E+03  0.00000000000E+00 0.  1.
        -13    1    1    2    0    0 -0.10166544962E+03 -0.49585496237E+02  0.54988305811E+03  0.56139644980E+03  0.10566000000E+00 0.  1.
         13    1    1    2    0    0  0.11832867151E+03  0.51712569982E+02  0.29813166748E+03  0.32489747108E+03  0.10566000000E+00 0. -1.
          4    1    1    2  501    0 -0.16663221887E+02 -0.21270737452E+01 -0.47205645219E+03  0.47235524922E+03  0.00000000000E+00 0.  1.
</event>
<event>
 5    1  0.1196676E-004  0.7883101E+02  0.7818608E-02  0.1287155E+00
         -4   -1    0    0    0  501 -0.00000000000E+00  0.00000000000E+00  0.26727649764E+03  0.26727649764E+03  0.00000000000E+00 0. -1.
         21   -1    0    0  501  502  0.00000000000E+00 -0.00000000000E+00 -0.14384177255E+03  0.14384177255E+03  0.00000000000E+00 0. -1.
        -13    1    1    2    0    0  0.25965422598E+01 -0.13735249245E+02 -0.23180077928E+02  0.27068917236E+02  0.10566000000E+00 0.  1.
         13    1    1    2    0    0 -0.56822710469E+02 -0.44069475120E+02  0.24636477525E+03  0.25664479872E+03  0.10566000000E+00 0. -1.
         -4    1    1    2    0  502  0.54226168209E+02  0.57804724365E+02 -0.99749972236E+02  0.12740455423E+03  0.00000000000E+00 0. -1.
</event>
<event>
 5    1  0.1196676E-004  0.2240627E+02  0.7818608E-02  0.1478899E+00
         -4   -1    0    0    0  501 -0.00000000000E+00  0.00000000000E+00  0.56981317109E+02  0.56981317109E+02  0.00000000000E+00 0. -1.
         21   -1    0    0  501  502  0.00000000000E+00 -0.00000000000E+00 -0.95970657820E+02  0.95970657820E+02  0.00000000000E+00 0.  1.
        -13    1    1    2    0    0 -0.27801403795E+02  0.24285999151E+02 -0.50552575212E+02  0.62596340407E+02  0.10566000000E+00 0.  1.
         13    1    1    2    0    0  0.15406084004E+02 -0.15413611405E+02  0.46985015130E+02  0.51793142902E+02  0.10566000000E+00 0. -1.
         -4    1    1    2    0  502  0.12395319791E+02 -0.88723877460E+01 -0.35421780629E+02  0.38562491620E+02  0.00000000000E+00 0. -1.
</event>
<event>
 5    1  0.1196676E-004  0.3862211E+02  0.7818608E-02  0.1346590E+00
          4   -1    0    0  502    0 -0.00000000000E+00  0.00000000000E+00  0.49878068836E+02  0.49878068836E+02  0.00000000000E+00 0.  1.
         21   -1    0    0  501  502  0.00000000000E+00 -0.00000000000E+00 -0.51973110514E+02  0.51973110514E+02  0.00000000000E+00 0. -1.
        -13    1    1    2    0    0  0.34697703954E+02 -0.17189944406E+02  0.17456835953E+02  0.42475606339E+02  0.10566000000E+00 0.  1.
         13    1    1    2    0    0 -0.29127989217E+02  0.26544597185E+02 -0.29459991339E+01  0.39518925472E+02  0.10566000000E+00 0. -1.
          4    1    1    2  501    0 -0.55697147367E+01 -0.93546527795E+01 -0.16605878497E+02  0.19856647540E+02  0.00000000000E+00 0.  1.
</event>
<event>
 5    1  0.1196676E-004  0.4278748E+02  0.7818608E-02  0.1324307E+00
          4   -1    0    0  502    0 -0.00000000000E+00  0.00000000000E+00  0.15920967748E+03  0.15920967748E+03  0.00000000000E+00 0.  1.
         21   -1    0    0  501  502  0.00000000000E+00 -0.00000000000E+00 -0.17060340418E+03  0.17060340418E+03  0.00000000000E+00 0.  1.
        -13    1    1    2    0    0 -0.29379104313E+02 -0.29785995551E+02  0.13564546924E+03  0.14195084287E+03  0.10566000000E+00 0.  1.
         13    1    1    2    0    0  0.40604013612E+02  0.35233496833E+02 -0.15802895221E+02  0.56034167094E+02  0.10566000000E+00 0. -1.
          4    1    1    2  501    0 -0.11224909299E+02 -0.54475012815E+01 -0.13123630072E+03  0.13182807169E+03  0.00000000000E+00 0.  1.
</event>
<event>
 5    1  0.1196676E-004  0.2778347E+03  0.7818608E-02  0.1037405E+00
          4   -1    0    0  502    0 -0.00000000000E+00  0.00000000000E+00  0.12552717605E+04  0.12552717605E+04  0.00000000000E+00 0.  1.
         21   -1    0    0  501  502  0.00000000000E+00 -0.00000000000E+00 -0.26791382990E+03  0.26791382990E+03  0.00000000000E+00 0.  1.
        -13    1    1    2    0    0  0.12949132837E+03 -0.20883392547E+03  0.88384760660E+03  0.91736918163E+03  0.10566000000E+00 0.  1.
         13    1    1    2    0    0  0.12351167447E+03  0.79522406182E+02  0.24709551902E+03  0.28746330809E+03  0.10566000000E+00 0. -1.
          4    1    1    2  501    0 -0.25300300284E+03  0.12931151928E+03 -0.14358519504E+03  0.31835310066E+03  0.00000000000E+00 0.  1.
</event>
<event>
 5    1  0.1196676E-004  0.4853581E+03  0.7818608E-02  0.9669550E-01
          4   -1    0    0  502    0 -0.00000000000E+00  0.00000000000E+00  0.39587214382E+03  0.39587214382E+03  0.00000000000E+00 0.  1.
         21   -1    0    0  501  502  0.00000000000E+00 -0.00000000000E+00 -0.12996153813E+04  0.12996153813E+04  0.00000000000E+00 0.  1.
        -13    1    1    2    0    0  0.42758614434E+03  0.29535362911E+03 -0.66629437603E+03  0.84499223888E+03  0.10566000000E+00 0.  1.
         13    1    1    2    0    0 -0.23500408132E+03  0.14370429599E+03  0.65792911813E+02  0.28320762937E+03  0.10566000000E+00 0. -1.
          4    1    1    2  501    0 -0.19258206302E+03 -0.43905792511E+03 -0.30324177328E+03  0.56728765689E+03  0.00000000000E+00 0.  1.
</event>
<event>
 5    1  0.1196676E-004  0.4616386E+03  0.7818608E-02  0.9656299E-01
         -4   -1    0    0    0  501 -0.00000000000E+00  0.00000000000E+00  0.26396458895E+04  0.26396458895E+04  0.00000000000E+00 0. -1.
         21   -1    0    0  501  502  0.00000000000E+00 -0.00000000000E+00 -0.26571637960E+03  0.26571637960E+03  0.00000000000E+00 0. -1.
        -13    1    1    2    0    0  0.30638673682E+03 -0.13640645925E+03  0.15076428337E+04  0.15444955421E+04  0.10566000000E+00 0.  1.
         13    1    1    2    0    0 -0.55689002543E+03  0.39828283256E+03  0.61025299120E+03  0.91715017286E+03  0.10566000000E+00 0. -1.
         -4    1    1    2    0  502  0.25050328861E+03 -0.26187637331E+03  0.25603368500E+03  0.44371655408E+03  0.00000000000E+00 0. -1.
</event>
<event>
 5    1  0.1196676E-004  0.5063636E+03  0.7818608E-02  0.9728578E-01
          4   -1    0    0  502    0 -0.00000000000E+00  0.00000000000E+00  0.53151111322E+03  0.53151111322E+03  0.00000000000E+00 0.  1.
         21   -1    0    0  501  502  0.00000000000E+00 -0.00000000000E+00 -0.71161887643E+03  0.71161887643E+03  0.00000000000E+00 0.  1.
        -13    1    1    2    0    0  0.14632576063E+03  0.39581546179E+03  0.17153824641E+02  0.42234508743E+03  0.10566000000E+00 0.  1.
         13    1    1    2    0    0 -0.49134458625E+02  0.19128543626E+03 -0.13450780870E+02  0.19795264034E+03  0.10566000000E+00 0. -1.
          4    1    1    2  501    0 -0.97191302009E+02 -0.58710089805E+03 -0.18381080698E+03  0.62283226188E+03  0.00000000000E+00 0.  1.
</event>
<event>
 5    1  0.1196676E-004  0.1757585E+03  0.7818608E-02  0.1078158E+00
         -4   -1    0    0    0  501 -0.00000000000E+00  0.00000000000E+00  0.16653360104E+03  0.16653360104E+03  0.00000000000E+00 0. -1.
         21   -1    0    0  501  502  0.00000000000E+00 -0.00000000000E+00 -0.16541569609E+04  0.16541569609E+04  0.00000000000E+00 0.  1.
        -13    1    1    2    0    0 -0.19456175442E+03 -0.20520225563E+02 -0.85634277925E+03  0.87840669549E+03  0.10566000000E+00 0.  1.
         13    1    1    2    0    0  0.14669892913E+03 -0.99365530985E+02  0.97446015445E+02  0.20221231824E+03  0.10566000000E+00 0. -1.
         -4    1    1    2    0  502  0.47862825291E+02  0.11988575655E+03 -0.72872659605E+03  0.74007154820E+03  0.00000000000E+00 0. -1.
</event>
<event>
 5    1  0.1196676E-004  0.2158711E+03  0.7818608E-02  0.1049768E+00
         21   -1    0    0  501  502  0.00000000000E+00  0.00000000000E+00  0.45870104012E+03  0.45870104012E+03  0.00000000000E+00 0.  1.
         -4   -1    0    0    0  501 -0.00000000000E+00 -0.00000000000E+00 -0.24476654897E+03  0.24476654897E+03  0.00000000000E+00 0. -1.
        -13    1    1    2    0    0  0.17899887426E+02  0.22237409693E+03  0.33164826335E+03  0.39970142194E+03  0.10566000000E+00 0.  1.
         13    1    1    2    0    0 -0.83714960434E+01 -0.21464633186E+03 -0.15475287847E+03  0.26474817145E+03  0.10566000000E+00 0. -1.
         -4    1    1    2    0  502 -0.95283913831E+01 -0.77277650665E+01  0.37039106276E+02  0.39017995707E+02  0.00000000000E+00 0. -1.
</event>
<event>
 5    1  0.1196676E-004  0.1081283E+03  0.7818608E-02  0.1151765E+00
         -4   -1    0    0    0  501 -0.00000000000E+00  0.00000000000E+00  0.75574448577E+03  0.75574448577E+03  0.00000000000E+00 0. -1.
         21   -1    0    0  501  502  0.00000000000E+00 -0.00000000000E+00 -0.28607846389E+02  0.28607846389E+02  0.00000000000E+00 0.  1.
        -13    1    1    2    0    0 -0.76586845363E+02  0.11047158293E+03  0.28762941127E+03  0.31749048003E+03  0.10566000000E+00 0.  1.
         13    1    1    2    0    0  0.71323733146E+02 -0.67280252967E+02  0.38407310136E+03  0.39639105149E+03  0.10566000000E+00 0. -1.
         -4    1    1    2    0  502  0.52631122170E+01 -0.43191329962E+02  0.55434126756E+02  0.70470800643E+02  0.00000000000E+00 0. -1.
</event>
<event>
 5    1  0.1196676E-004  0.4430714E+03  0.7818608E-02  0.9618959E-01
         -4   -1    0    0    0  501 -0.00000000000E+00  0.00000000000E+00  0.11190278900E+04  0.11190278900E+04  0.00000000000E+00 0. -1.
         21   -1    0    0  501  502  0.00000000000E+00 -0.00000000000E+00 -0.49178266264E+03  0.49178266264E+03  0.00000000000E+00 0. -1.
        -13    1    1    2    0    0  0.37582834315E+03 -0.21456041880E+03  0.30610756036E+03  0.53008015102E+03  0.10566000000E+00 0.  1.
         13    1    1    2    0    0  0.19420925258E+03  0.14200766852E+03  0.43295936576E+03  0.49531528875E+03  0.10566000000E+00 0. -1.
         -4    1    1    2    0  502 -0.57003759573E+03  0.72552750281E+02 -0.11182169871E+03  0.58541511291E+03  0.00000000000E+00 0. -1.
</event>
<event>
 5    1  0.1196676E-004  0.3154609E+03  0.7818608E-02  0.1001120E+00
         21   -1    0    0  501  502  0.00000000000E+00  0.00000000000E+00  0.39078711293E+03  0.39078711293E+03  0.00000000000E+00 0.  1.
          4   -1    0    0  502    0 -0.00000000000E+00 -0.00000000000E+00 -0.20453531770E+04  0.20453531770E+04  0.00000000000E+00 0.  1.
        -13    1    1    2    0    0 -0.32872757284E+02  0.49500074857E+03 -0.56375672554E+03  0.75095140722E+03  0.10566000000E+00 0.  1.
         13    1    1    2    0    0 -0.10738212309E+03 -0.27051820027E+03 -0.13097377944E+04  0.13416870418E+04  0.10566000000E+00 0. -1.
          4    1    1    2  501    0  0.14025488037E+03 -0.22448254830E+03  0.21892845580E+03  0.34350184092E+03  0.00000000000E+00 0.  1.
</event>
<event>
 5    1  0.1196676E-004  0.8497558E+03  0.7818608E-02  0.8930228E-01
         -4   -1    0    0    0  501 -0.00000000000E+00  0.00000000000E+00  0.92871541708E+03  0.92871541708E+03  0.00000000000E+00 0. -1.
         21   -1    0    0  501  502  0.00000000000E+00 -0.00000000000E+00 -0.15626083372E+04  0.15626083372E+04  0.00000000000E+00 0.  1.
        -13    1    1    2    0    0 -0.89244108991E+03  0.41161835829E+03 -0.95814278462E+02  0.98745185146E+03  0.10566000000E+00 0.  1.
         13    1    1    2    0    0  0.39229052558E+03 -0.70690196510E+03 -0.20385849754E+03  0.83376288171E+03  0.10566000000E+00 0. -1.
         -4    1    1    2    0  502  0.50015056433E+03  0.29528360681E+03 -0.33422014413E+03  0.67010902112E+03  0.00000000000E+00 0. -1.
</event>
<event>
 5    1  0.1196676E-004  0.5063351E+03  0.7818608E-02  0.9573563E-01
         21   -1    0    0  501  502  0.00000000000E+00  0.00000000000E+00  0.50252689268E+03  0.50252689268E+03  0.00000000000E+00 0.  1.
          4   -1    0    0  502    0 -0.00000000000E+00 -0.00000000000E+00 -0.10018903531E+04  0.10018903531E+04  0.00000000000E+00 0.  1.
        -13    1    1    2    0    0 -0.33848811621E+03 -0.13169490945E+03 -0.24188737658E+03  0.43637972925E+03  0.10566000000E+00 0.  1.
         13    1    1    2    0    0 -0.34019505427E+03 -0.20895287401E+02 -0.90755918517E+02  0.35271225651E+03  0.10566000000E+00 0. -1.
          4    1    1    2  501    0  0.67868317048E+03  0.15259019685E+03 -0.16672016530E+03  0.71532525999E+03  0.00000000000E+00 0.  1.
</event>
<event>
 5    1  0.1196676E-004  0.4904190E+03  0.7818608E-02  0.9499222E-01
         21   -1    0    0  501  502  0.00000000000E+00  0.00000000000E+00  0.24525021065E+03  0.24525021065E+03  0.00000000000E+00 0. -1.
         -4   -1    0    0    0  501 -0.00000000000E+00 -0.00000000000E+00 -0.28730544581E+04  0.28730544581E+04  0.00000000000E+00 0. -1.
        -13    1    1    2    0    0 -0.39249185080E+03  0.27674796521E+03 -0.14049567324E+04  0.14847702584E+04  0.10566000000E+00 0.  1.
         13    1    1    2    0    0  0.19669715617E+03 -0.59538540166E+03 -0.44021017559E+03  0.76613220636E+03  0.10566000000E+00 0. -1.
         -4    1    1    2    0  502  0.19579469463E+03  0.31863743645E+03 -0.78263733945E+03  0.86740220397E+03  0.00000000000E+00 0. -1.
</event>
<event>
 5    1  0.1196676E-004  0.4760642E+03  0.7818608E-02  0.9782887E-01
         21   -1    0    0  501  502  0.00000000000E+00  0.00000000000E+00  0.57290993306E+03  0.57290993306E+03  0.00000000000E+00 0.  1.
          4   -1    0    0  502    0 -0.00000000000E+00 -0.00000000000E+00 -0.11366971374E+04  0.11366971374E+04  0.00000000000E+00 0.  1.
        -13    1    1    2    0    0 -0.19349707161E+03 -0.28680615471E+03 -0.21768592102E+03  0.40876161571E+03  0.10566000000E+00 0.  1.
         13    1    1    2    0    0 -0.12939183926E+03 -0.14869517597E+03 -0.65007426234E+03  0.67930042039E+03  0.10566000000E+00 0. -1.
          4    1    1    2  501    0  0.32288891087E+03  0.43550133068E+03  0.30397297901E+03  0.62154503438E+03  0.00000000000E+00 0.  1.
</event>
<event>
 5    1  0.1196676E-004  0.5181156E+03  0.7818608E-02  0.9439126E-01
         21   -1    0    0  501  502  0.00000000000E+00  0.00000000000E+00  0.21191996299E+03  0.21191996299E+03  0.00000000000E+00 0. -1.
         -4   -1    0    0    0  501 -0.00000000000E+00 -0.00000000000E+00 -0.39878379713E+04  0.39878379713E+04  0.00000000000E+00 0. -1.
        -13    1    1    2    0    0 -0.32449652821E+03 -0.38739730141E+03 -0.22807231190E+04  0.23360378042E+04  0.10566000000E+00 0.  1.
         13    1    1    2    0    0  0.45440412780E+03  0.40266628874E+03 -0.32965937182E+03  0.69086797873E+03  0.10566000000E+00 0. -1.
         -4    1    1    2    0  502 -0.12990759959E+03 -0.15268987328E+02 -0.11655355175E+04  0.11728521514E+04  0.00000000000E+00 0. -1.
</event>
<event>
 5    1  0.1196676E-004  0.4817853E+03  0.7818608E-02  0.9703008E-01
          4   -1    0    0  502    0 -0.00000000000E+00  0.00000000000E+00  0.15603639748E+04  0.15603639748E+04  0.00000000000E+00 0.  1.
         21   -1    0    0  501  502  0.00000000000E+00 -0.00000000000E+00 -0.43874528663E+03  0.43874528663E+03  0.00000000000E+00 0.  1.
        -13    1    1    2    0    0 -0.32308320881E+03 -0.22958914298E+03  0.58469310552E+02  0.40064024490E+03  0.10566000000E+00 0.  1.
         13    1    1    2    0    0 -0.24409050887E+03 -0.56629785752E+02  0.91150635781E+03  0.94532055973E+03  0.10566000000E+00 0. -1.
          4    1    1    2  501    0  0.56717371768E+03  0.28621892873E+03  0.15164301982E+03  0.65314845683E+03  0.00000000000E+00 0.  1.
</event>
<event>
 5    1  0.1196676E-004  0.4453385E+03  0.7818608E-02  0.9606568E-01
         21   -1    0    0  501  502  0.00000000000E+00  0.00000000000E+00  0.40897348481E+03  0.40897348481E+03  0.00000000000E+00 0. -1.
         -4   -1    0    0    0  501 -0.00000000000E+00 -0.00000000000E+00 -0.13345078875E+04  0.13345078875E+04  0.00000000000E+00 0. -1.
        -13    1    1    2    0    0  0.32160722549E+03  0.21052233244E+03 -0.36788785019E+03  0.53206422679E+03  0.10566000000E+00 0.  1.
         13    1    1    2    0    0 -0.66838055075E+03 -0.78291267126E+02 -0.21543127781E+03  0.70659233632E+03  0.10566000000E+00 0. -1.
         -4    1    1    2    0  502  0.34677332526E+03 -0.13223106532E+03 -0.34221527469E+03  0.50482480919E+03  0.00000000000E+00 0. -1.
</event>
<event>
 5    1  0.1196676E-004  0.2778591E+03  0.7818608E-02  0.1020868E+00
         -4   -1    0    0    0  501 -0.00000000000E+00  0.00000000000E+00  0.14363468295E+04  0.14363468295E+04  0.00000000000E+00 0. -1.
         21   -1    0    0  501  502  0.00000000000E+00 -0.00000000000E+00 -0.29261140669E+03  0.29261140669E+03  0.00000000000E+00 0. -1.
        -13    1    1    2    0    0  0.20877304397E+03 -0.12827065959E+03  0.43584006326E+03  0.49999611789E+03  0.10566000000E+00 0.  1.
         13    1    1    2    0    0 -0.37422108794E+03 -0.91308003729E+02  0.83987239173E+03  0.92399362539E+03  0.10566000000E+00 0. -1.
         -4    1    1    2    0  502  0.16544804397E+03  0.21957866332E+03 -0.13197703219E+03  0.30496849290E+03  0.00000000000E+00 0. -1.
</event>
<event>
 5    1  0.1196676E-004  0.9898496E+02  0.7818608E-02  0.1166246E+00
          4   -1    0    0  502    0 -0.00000000000E+00  0.00000000000E+00  0.14431298870E+03  0.14431298870E+03  0.00000000000E+00 0.  1.
         21   -1    0    0  501  502  0.00000000000E+00 -0.00000000000E+00 -0.23355908073E+03  0.23355908073E+03  0.00000000000E+00 0. -1.
        -13    1    1    2    0    0  0.54087188909E+02  0.83592970891E+02  0.10675770857E+03  0.14598091755E+03  0.10566000000E+00 0.  1.
         13    1    1    2    0    0 -0.44044404043E+02 -0.84776905344E+02 -0.11169890112E+03  0.14698193387E+03  0.10566000000E+00 0. -1.
          4    1    1    2  501    0 -0.10042784866E+02  0.11839344534E+01 -0.84304899475E+02  0.84909218016E+02  0.00000000000E+00 0.  1.
</event>
<event>
 5    1  0.1196676E-004  0.4912954E+03  0.7818608E-02  0.9748903E-01
         -4   -1    0    0    0  501 -0.00000000000E+00  0.00000000000E+00  0.22034788669E+04  0.22034788669E+04  0.00000000000E+00 0. -1.
         21   -1    0    0  501  502  0.00000000000E+00 -0.00000000000E+00 -0.21328196781E+03  0.21328196781E+03  0.00000000000E+00 0. -1.
        -13    1    1    2    0    0  0.65205279212E+01  0.20145693505E+03  0.20506934212E+02  0.20260296019E+03  0.10566000000E+00 0.  1.
         13    1    1    2    0    0 -0.31261052398E+03  0.26815163010E+03  0.11465014070E+04  0.12182348394E+04  0.10566000000E+00 0. -1.
         -4    1    1    2    0  502  0.30608999606E+03 -0.46960856515E+03  0.82318855790E+03  0.99592303518E+03  0.00000000000E+00 0. -1.
</event>
<event>
 5    1  0.1196676E-004  0.3875136E+03  0.7818608E-02  0.9835531E-01
         21   -1    0    0  501  502  0.00000000000E+00  0.00000000000E+00  0.10369406513E+03  0.10369406513E+03  0.00000000000E+00 0.  1.
          4   -1    0    0  502    0 -0.00000000000E+00 -0.00000000000E+00 -0.32495941247E+04  0.32495941247E+04  0.00000000000E+00 0.  1.
        -13    1    1    2    0    0  0.25437643787E+03 -0.41859553002E+03 -0.14799774640E+04  0.15589300482E+04  0.10566000000E+00 0.  1.
         13    1    1    2    0    0 -0.29837244046E+03  0.65357776892E+02 -0.65842340097E+03  0.72582307647E+03  0.10566000000E+00 0. -1.
          4    1    1    2  501    0  0.43996002595E+02  0.35323775313E+03 -0.10074991946E+04  0.10685350652E+04  0.00000000000E+00 0.  1.
</event>
<event>
 5    1  0.1196676E-004  0.4627755E+03  0.7818608E-02  0.9689457E-01
         21   -1    0    0  501  502  0.00000000000E+00  0.00000000000E+00  0.15519363311E+04  0.15519363311E+04  0.00000000000E+00 0.  1.
          4   -1    0    0  502    0 -0.00000000000E+00 -0.00000000000E+00 -0.31187566533E+03  0.31187566533E+03  0.00000000000E+00 0.  1.
        -13    1    1    2    0    0  0.49388551009E+03 -0.33045760494E+03  0.50553202686E+03  0.78018444427E+03  0.10566000000E+00 0.  1.
         13    1    1    2    0    0 -0.29351799331E+03 -0.41319694145E+02  0.84098186918E+02  0.30811141771E+03  0.10566000000E+00 0. -1.
          4    1    1    2  501    0 -0.20036751678E+03  0.37177729908E+03  0.65043045195E+03  0.77551613440E+03  0.00000000000E+00 0.  1.
</event>
<event>
 5    1  0.1196676E-004  0.4527847E+02  0.7818608E-02  0.1338934E+00
         -4   -1    0    0    0  501 -0.00000000000E+00  0.00000000000E+00  0.29173820271E+03  0.29173820271E+03  0.00000000000E+00 0. -1.
         21   -1    0    0  501  502  0.00000000000E+00 -0.00000000000E+00 -0.71749307160E+02  0.71749307160E+02  0.00000000000E+00 0. -1.
        -13    1    1    2    0    0  0.20035549973E+02  0.18910683234E+02  0.63279598302E+01  0.28268205510E+02  0.10566000000E+00 0.  1.
         13    1    1    2    0    0 -0.46423004904E+02  0.18020978252E+02  0.26329343295E+03  0.26796136670E+03  0.10566000000E+00 0. -1.
         -4    1    1    2    0  502  0.26387454931E+02 -0.36931661486E+02 -0.49632497230E+02  0.67257937666E+02  0.00000000000E+00 0. -1.
</event>
<event>
 5    1  0.1196676E-004  0.2974256E+03  0.7818608E-02  0.1036198E+00
         -4   -1    0    0    0  501 -0.00000000000E+00  0.00000000000E+00  0.37262192240E+03  0.37262192240E+03  0.00000000000E+00 0. -1.
         21   -1    0    0  501  502  0.00000000000E+00 -0.00000000000E+00 -0.84421543080E+03  0.84421543080E+03  0.00000000000E+00 0. -1.
        -13    1    1    2    0    0 -0.10089955645E+02 -0.12381764492E+03 -0.47970711658E+02  0.13316837740E+03  0.10566000000E+00 0.  1.
         13    1    1    2    0    0 -0.71601225376E+02  0.39766094901E+03  0.15941331573E+03  0.43436572406E+03  0.10566000000E+00 0. -1.
         -4    1    1    2    0  502  0.81691181021E+02 -0.27384330409E+03 -0.58303611248E+03  0.64930325173E+03  0.00000000000E+00 0. -1.
</event>
<event>
 5    1  0.1196676E-004  0.3937156E+03  0.7818608E-02  0.9747373E-01
         -4   -1    0    0    0  501 -0.00000000000E+00  0.00000000000E+00  0.28063385505E+04  0.28063385505E+04  0.00000000000E+00 0. -1.
         21   -1    0    0  501  502  0.00000000000E+00 -0.00000000000E+00 -0.15267646412E+03  0.15267646412E+03  0.00000000000E+00 0.  1.
        -13    1    1    2    0    0  0.11233953439E+03  0.28313176629E+03  0.26690931195E+03  0.40499920993E+03  0.10566000000E+00 0.  1.
         13    1    1    2    0    0 -0.25686975448E+02 -0.42056392978E+03  0.23499568255E+04  0.23874318697E+04  0.10566000000E+00 0. -1.
         -4    1    1    2    0  502 -0.86652558938E+02  0.13743216349E+03  0.36795948947E+02  0.16658393497E+03  0.00000000000E+00 0. -1.
</event>
<event>
 5    1  0.1196676E-004  0.4227608E+02  0.7818608E-02  0.1326885E+00
         -4   -1    0    0    0  501 -0.00000000000E+00  0.00000000000E+00  0.15569429634E+03  0.15569429634E+03  0.00000000000E+00 0. -1.
         21   -1    0    0  501  502  0.00000000000E+00 -0.00000000000E+00 -0.21783585164E+02  0.21783585164E+02  0.00000000000E+00 0. -1.
        -13    1    1    2    0    0 -0.30608559107E+02 -0.21634550928E+02  0.69710448451E+02  0.79148565822E+02  0.10566000000E+00 0.  1.
         13    1    1    2    0    0  0.39135228359E+02  0.33139217435E+02  0.66340658420E+02  0.83850271046E+02  0.10566000000E+00 0. -1.
         -4    1    1    2    0  502 -0.85266692520E+01 -0.11504666507E+02 -0.21403956892E+01  0.14479044639E+02  0.00000000000E+00 0. -1.
</event>
<event>
 5    1  0.1196676E-004  0.4932592E+03  0.7818608E-02  0.9822103E-01
         21   -1    0    0  501  502  0.00000000000E+00  0.00000000000E+00  0.18229103235E+03  0.18229103235E+03  0.00000000000E+00 0. -1.
          4   -1    0    0  502    0 -0.00000000000E+00 -0.00000000000E+00 -0.19179866059E+04  0.19179866059E+04  0.00000000000E+00 0.  1.
        -13    1    1    2    0    0 -0.44227951685E+03 -0.27061828900E+02 -0.90484043194E+03  0.10075116536E+04  0.10566000000E+00 0.  1.
         13    1    1    2    0    0 -0.79677548337E+02  0.13296671754E+03 -0.31614667945E+03  0.35210423708E+03  0.10566000000E+00 0. -1.
          4    1    1    2  501    0  0.52195706519E+03 -0.10590488864E+03 -0.51470846215E+03  0.74066174760E+03  0.00000000000E+00 0.  1.
</event>
<event>
 5    1  0.1196676E-004  0.1158631E+04  0.7818608E-02  0.8638383E-01
         21   -1    0    0  501  502  0.00000000000E+00  0.00000000000E+00  0.52787317078E+03  0.52787317078E+03  0.00000000000E+00 0.  1.
          4   -1    0    0  502    0 -0.00000000000E+00 -0.00000000000E+00 -0.41081675726E+04  0.41081675726E+04  0.00000000000E+00 0.  1.
        -13    1    1    2    0    0 -0.12697539576E+04 -0.94292882708E+02 -0.76732823373E+03  0.14865930479E+04  0.10566000000E+00 0.  1.
         13    1    1    2    0    0  0.11221297957E+04 -0.78728577562E+02 -0.26196372358E+04  0.28509424276E+04  0.10566000000E+00 0. -1.
          4    1    1    2  501    0  0.14762416192E+03  0.17302146027E+03 -0.19332893226E+03  0.29850526787E+03  0.00000000000E+00 0.  1.
</event>
<event>
 5    1  0.1196676E-004  0.4568569E+03  0.7818608E-02  0.9577903E-01
         -4   -1    0    0    0  501 -0.00000000000E+00  0.00000000000E+00  0.32650853054E+04  0.32650853054E+04  0.00000000000E+00 0. -1.
         21   -1    0    0  501  502  0.00000000000E+00 -0.00000000000E+00 -0.18569268602E+03  0.18569268602E+03  0.00000000000E+00 0. -1.
        -13    1    1    2    0    0 -0.37287710633E+03 -0.19234020808E+03  0.12207656846E+04  0.12908528034E+04  0.10566000000E+00 0.  1.
         13    1    1    2    0    0  0.50765838655E+03  0.45079327207E+02  0.18902986680E+04  0.19577993381E+04  0.10566000000E+00 0. -1.
         -4    1    1    2    0  502 -0.13478128023E+03  0.14726088088E+03 -0.31671733147E+02  0.20212584995E+03  0.00000000000E+00 0. -1.
</event>
<event>
 5    1  0.1196676E-004  0.4182102E+03  0.7818608E-02  0.9812224E-01
         21   -1    0    0  501  502  0.00000000000E+00  0.00000000000E+00  0.19158860208E+04  0.19158860208E+04  0.00000000000E+00 0.  1.
          4   -1    0    0  502    0 -0.00000000000E+00 -0.00000000000E+00 -0.26501397926E+03  0.26501397926E+03  0.00000000000E+00 0.  1.
        -13    1    1    2    0    0  0.12035045068E+03 -0.50583028624E+03  0.33863898152E+03  0.62050373120E+03  0.10566000000E+00 0.  1.
         13    1    1    2    0    0  0.15876775838E+03  0.20970768344E+03  0.99516781604E+02  0.28122609157E+03  0.10566000000E+00 0. -1.
          4    1    1    2  501    0 -0.27911820906E+03  0.29612260280E+03  0.12127162784E+04  0.12791701773E+04  0.00000000000E+00 0.  1.
</event>
<event>
 5    1  0.1196676E-004  0.4731368E+03  0.7818608E-02  0.9995365E-01
         21   -1    0    0  501  502  0.00000000000E+00  0.00000000000E+00  0.55351703632E+03  0.55351703632E+03  0.00000000000E+00 0.  1.
          4   -1    0    0  502    0 -0.00000000000E+00 -0.00000000000E+00 -0.51173925099E+03  0.51173925099E+03  0.00000000000E+00 0.  1.
        -13    1    1    2    0    0 -0.44199131682E+03  0.24956000220E+02  0.54689973468E+02  0.44606068023E+03  0.10566000000E+00 0.  1.
         13    1    1    2    0    0 -0.67184213951E+02  0.72002514374E+02  0.17317576326E+02  0.99989950966E+02  0.10566000000E+00 0. -1.
          4    1    1    2  501    0  0.50917553077E+03 -0.96958514594E+02 -0.30229764464E+02  0.51920565612E+03  0.00000000000E+00 0.  1.
</event>
<event>
 5    1  0.1196676E-004  0.4784146E+03  0.7818608E-02  0.9656604E-01
         21   -1    0    0  501  502  0.00000000000E+00  0.00000000000E+00  0.21430554089E+03  0.21430554089E+03  0.00000000000E+00 0.  1.
          4   -1    0    0  502    0 -0.00000000000E+00 -0.00000000000E+00 -0.32622090906E+04  0.32622090906E+04  0.00000000000E+00 0.  1.
        -13    1    1    2    0    0  0.64898945209E+03 -0.18031665085E+03 -0.19498621581E+04  0.20629260409E+04  0.10566000000E+00 0.  1.
         13    1    1    2    0    0 -0.29539955805E+03  0.57783748517E+02 -0.55701999481E+02  0.30610877870E+03  0.10566000000E+00 0. -1.
          4    1    1    2  501    0 -0.35358989404E+03  0.12253290234E+03 -0.10423393921E+04  0.11074798118E+04  0.00000000000E+00 0.  1.
</event>
<event>
 5    1  0.1196676E-004  0.1338062E+03  0.7818608E-02  0.1219817E+00
         -4   -1    0    0    0  501 -0.00000000000E+00  0.00000000000E+00  0.22792273714E+03  0.22792273714E+03  0.00000000000E+00 0. -1.
         21   -1    0    0  501  502  0.00000000000E+00 -0.00000000000E+00 -0.90450208040E+02  0.90450208040E+02  0.00000000000E+00 0. -1.
        -13    1    1    2    0    0  0.11603382493E+02  0.11446682388E+01  0.23710644341E+02  0.26422614741E+02  0.10566000000E+00 0.  1.
         13    1    1    2    0    0  0.56812469989E+02 -0.11903941730E+03  0.45698089685E+02  0.13959357500E+03  0.10566000000E+00 0. -1.
         -4    1    1    2    0  502 -0.68415852482E+02  0.11789474906E+03  0.68063795078E+02  0.15235675544E+03  0.00000000000E+00 0. -1.
</event>
<event>
 5    1  0.1196676E-004  0.1483086E+03  0.7818608E-02  0.1131156E+00
         -4   -1    0    0    0  501 -0.00000000000E+00  0.00000000000E+00  0.65880250309E+03  0.65880250309E+03  0.00000000000E+00 0. -1.
         21   -1    0    0  501  502  0.00000000000E+00 -0.00000000000E+00 -0.96631475130E+02  0.96631475130E+02  0.00000000000E+00 0. -1.
        -13    1    1    2    0    0 -0.70279593365E+02  0.38026235720E+01 -0.11996878725E+02  0.71397601169E+02  0.10566000000E+00 0.  1.
         13    1    1    2    0    0  0.10460151061E+03 -0.14299854032E+03  0.48217434165E+03  0.51369462278E+03  0.10566000000E+00 0. -1.
         -4    1    1    2    0  502 -0.34321917243E+02  0.13919591675E+03  0.91993565028E+02  0.17034175427E+03  0.00000000000E+00 0. -1.
</event>
<event>
 5    1  0.1196676E-004  0.4723412E+02  0.7818608E-02  0.1303479E+00
         -4   -1    0    0    0  501 -0.00000000000E+00  0.00000000000E+00  0.18831516874E+03  0.18831516874E+03  0.00000000000E+00 0. -1.
         21   -1    0    0  501  502  0.00000000000E+00 -0.00000000000E+00 -0.14594168566E+03  0.14594168566E+03  0.00000000000E+00 0.  1.
        -13    1    1    2    0    0 -0.26713781961E+02  0.55165911014E+02 -0.91172972944E+02  0.10986093957E+03  0.10566000000E+00 0.  1.
         13    1    1    2    0    0 -0.92665262197E+01 -0.46247917858E+02  0.16756879212E+03  0.17408058384E+03  0.10566000000E+00 0. -1.
         -4    1    1    2    0  502  0.35980308181E+02 -0.89179931557E+01 -0.34022336098E+02  0.50315330987E+02  0.00000000000E+00 0. -1.
</event>
<event>
 5    1  0.1196676E-004  0.4921859E+03  0.7818608E-02  0.1006630E+00
         -4   -1    0    0    0  501 -0.00000000000E+00  0.00000000000E+00  0.25425022303E+04  0.25425022303E+04  0.00000000000E+00 0. -1.
         21   -1    0    0  501  502  0.00000000000E+00 -0.00000000000E+00 -0.12192031301E+03  0.12192031301E+03  0.00000000000E+00 0. -1.
        -13    1    1    2    0    0 -0.61576526813E+02  0.32086463952E+02  0.34137577803E+03  0.34836567399E+03  0.10566000000E+00 0.  1.
         13    1    1    2    0    0 -0.44433233865E+03  0.14262879562E+03  0.75248431072E+03  0.88544161273E+03  0.10566000000E+00 0. -1.
         -4    1    1    2    0  502  0.50590886547E+03 -0.17471525957E+03  0.13267218286E+04  0.14306152566E+04  0.00000000000E+00 0. -1.
</event>
<event>
 5    1  0.1196676E-004  0.4525493E+03  0.7818608E-02  0.9922900E-01
          4   -1    0    0  502    0 -0.00000000000E+00  0.00000000000E+00  0.10529087046E+04  0.10529087046E+04  0.00000000000E+00 0.  1.
         21   -1    0    0  501  502  0.00000000000E+00 -0.00000000000E+00 -0.12311134435E+04  0.12311134435E+04  0.00000000000E+00 0.  1.
        -13    1    1    2    0    0 -0.11039663333E+03  0.65487685955E+02  0.42161112460E+03  0.44071760257E+03  0.10566000000E+00 0.  1.
         13    1    1    2    0    0  0.44440731798E+03  0.23986086231E+03  0.46489371805E+03  0.68640897269E+03  0.10566000000E+00 0. -1.
          4    1    1    2  501    0 -0.33401068465E+03 -0.30534854826E+03 -0.10647095815E+04  0.11568955728E+04  0.00000000000E+00 0.  1.
</event>
<event>
 5    1  0.1196676E-004  0.4836015E+03  0.7818608E-02  0.9875264E-01
          4   -1    0    0  502    0 -0.00000000000E+00  0.00000000000E+00  0.16701940511E+04  0.16701940511E+04  0.00000000000E+00 0.  1.
         21   -1    0    0  501  502  0.00000000000E+00 -0.00000000000E+00 -0.21905705222E+03  0.21905705222E+03  0.00000000000E+00 0.  1.
        -13    1    1    2    0    0  0.11899607821E+03  0.45076327565E+03  0.32716519771E+03  0.56954778119E+03  0.10566000000E+00 0.  1.
         13    1    1    2    0    0 -0.11598266639E+03  0.73721110836E+02  0.41941328830E+03  0.44135507095E+03  0.10566000000E+00 0. -1.
          4    1    1    2  501    0 -0.30134118154E+01 -0.52448438648E+03  0.70455851288E+03  0.87834825120E+03  0.00000000000E+00 0.  1.
</event>
<event>
 5    1  0.1196676E-004  0.1757397E+03  0.7818608E-02  0.1078173E+00
         -4   -1    0    0    0  501 -0.00000000000E+00  0.00000000000E+00  0.89260807377E+03  0.89260807377E+03  0.00000000000E+00 0. -1.
         21   -1    0    0  501  502  0.00000000000E+00 -0.00000000000E+00 -0.60042179189E+03  0.60042179189E+03  0.00000000000E+00 0. -1.
        -13    1    1    2    0    0 -0.15677724933E+03 -0.80570551762E+02 -0.32051627152E+01  0.17629805430E+03  0.10566000000E+00 0.  1.
         13    1    1    2    0    0  0.75253838937E+02  0.16296142838E+03  0.78927565398E+03  0.80942920416E+03  0.10566000000E+00 0. -1.
         -4    1    1    2    0  502  0.81523410396E+02 -0.82390876616E+02 -0.49388420938E+03  0.50730260720E+03  0.00000000000E+00 0. -1.
</event>
<event>
 5    1  0.1196676E-004  0.4657445E+03  0.7818608E-02  0.9898621E-01
         -4   -1    0    0    0  501 -0.00000000000E+00  0.00000000000E+00  0.17419075717E+04  0.17419075717E+04  0.00000000000E+00 0. -1.
         21   -1    0    0  501  502  0.00000000000E+00 -0.00000000000E+00 -0.18965702939E+03  0.18965702939E+03  0.00000000000E+00 0. -1.
        -13    1    1    2    0    0  0.79519926075E+02  0.11795610679E+03  0.20756014432E+03  0.25163125093E+03  0.10566000000E+00 0.  1.
         13    1    1    2    0    0 -0.48800911875E+03  0.17649885039E+02  0.36436354897E+03  0.60928254973E+03  0.10566000000E+00 0. -1.
         -4    1    1    2    0  502  0.40848919268E+03 -0.13560599183E+03  0.98032684901E+03  0.10706508004E+04  0.00000000000E+00 0. -1.
</event>
<event>
 5    1  0.1196676E-004  0.7523849E+03  0.7818608E-02  0.9050264E-01
         21   -1    0    0  501  502  0.00000000000E+00  0.00000000000E+00  0.92239452624E+03  0.92239452624E+03  0.00000000000E+00 0.  1.
         -4   -1    0    0    0  501 -0.00000000000E+00 -0.00000000000E+00 -0.90393870323E+03  0.90393870323E+03  0.00000000000E+00 0. -1.
        -13    1    1    2    0    0  0.56985527857E+03 -0.33658732522E+03  0.20836752854E+03  0.69386101211E+03  0.10566000000E+00 0.  1.
         13    1    1    2    0    0 -0.67764164252E+03  0.43141423984E+03 -0.38455130889E+03  0.89061560864E+03  0.10566000000E+00 0. -1.
         -4    1    1    2    0  502  0.10778636395E+03 -0.94826914628E+02  0.19463960335E+03  0.24185660873E+03  0.00000000000E+00 0. -1.
</event>
<event>
 5    1  0.1196676E-004  0.5000168E+03  0.7818608E-02  0.9599856E-01
         21   -1    0    0  501  502  0.00000000000E+00  0.00000000000E+00  0.13112955027E+03  0.13112955027E+03  0.00000000000E+00 0. -1.
         -4   -1    0    0    0  501 -0.00000000000E+00 -0.00000000000E+00 -0.37318628814E+04  0.37318628814E+04  0.00000000000E+00 0. -1.
        -13    1    1    2    0    0  0.23908581116E+03 -0.21603811731E+03 -0.63051961135E+03  0.70808861358E+03  0.10566000000E+00 0.  1.
         13    1    1    2    0    0 -0.14512332435E+03 -0.37433763276E+03 -0.17584800708E+04  0.18037299169E+04  0.10566000000E+00 0. -1.
         -4    1    1    2    0  502 -0.93962486812E+02  0.59037575007E+03 -0.12117336490E+04  0.13511739012E+04  0.00000000000E+00 0. -1.
</event>
<event>
 5    1  0.1196676E-004  0.4011301E+03  0.7818608E-02  0.9868354E-01
         21   -1    0    0  501  502  0.00000000000E+00  0.00000000000E+00  0.78991148689E+03  0.78991148689E+03  0.00000000000E+00 0.  1.
          4   -1    0    0  502    0 -0.00000000000E+00 -0.00000000000E+00 -0.54348265871E+03  0.54348265871E+03  0.00000000000E+00 0.  1.
        -13    1    1    2    0    0  0.32578571449E+03  0.83605292474E+02 -0.21222423999E+03  0.39770003256E+03  0.10566000000E+00 0.  1.
         13    1    1    2    0    0  0.77336040384E+02 -0.23403501448E+03 -0.67933693628E+02  0.25567215147E+03  0.10566000000E+00 0. -1.
          4    1    1    2  501    0 -0.40312175488E+03  0.15042972200E+03  0.52658676180E+03  0.68002196157E+03  0.00000000000E+00 0.  1.
</event>
<event>
 5    1  0.1196676E-004  0.3576044E+03  0.7818608E-02  0.1005042E+00
         21   -1    0    0  501  502  0.00000000000E+00  0.00000000000E+00  0.13394525661E+03  0.13394525661E+03  0.00000000000E+00 0.  1.
          4   -1    0    0  502    0 -0.00000000000E+00 -0.00000000000E+00 -0.27293679191E+04  0.27293679191E+04  0.00000000000E+00 0.  1.
        -13    1    1    2    0    0 -0.29718636941E+03  0.21823318376E+03 -0.23450910368E+03  0.43696680827E+03  0.10566000000E+00 0.  1.
         13    1    1    2    0    0 -0.38382385073E+02 -0.18668813271E+03 -0.49875368917E+03  0.53392969575E+03  0.10566000000E+00 0. -1.
          4    1    1    2  501    0  0.33556875448E+03 -0.31545051046E+02 -0.18621598697E+04  0.18924166717E+04  0.00000000000E+00 0.  1.
</event>
<event>
 5    1  0.1196676E-004  0.2157818E+03  0.7818608E-02  0.1049824E+00
         -4   -1    0    0    0  501 -0.00000000000E+00  0.00000000000E+00  0.30886391023E+03  0.30886391023E+03  0.00000000000E+00 0. -1.
         21   -1    0    0  501  502  0.00000000000E+00 -0.00000000000E+00 -0.41206602871E+03  0.41206602871E+03  0.00000000000E+00 0.  1.
        -13    1    1    2    0    0  0.15972459136E+02  0.21481992388E+03 -0.22705018204E+03  0.31297686092E+03  0.10566000000E+00 0.  1.
         13    1    1    2    0    0 -0.29081487308E+02 -0.21392991182E+03  0.22156385493E+03  0.30935787213E+03  0.10566000000E+00 0. -1.
         -4    1    1    2    0  502  0.13109028172E+02 -0.89001206243E+00 -0.97715791365E+02  0.98595205883E+02  0.00000000000E+00 0. -1.
</event>
<event>
 5    1  0.1196676E-004  0.4171162E+03  0.7818608E-02  0.9872998E-01
         -4   -1    0    0    0  501 -0.00000000000E+00  0.00000000000E+00  0.25086886660E+03  0.25086886660E+03  0.00000000000E+00 0. -1.
         21   -1    0    0  501  502  0.00000000000E+00 -0.00000000000E+00 -0.20935946857E+04  0.20935946857E+04  0.00000000000E+00 0. -1.
        -13    1    1    2    0    0  0.94282405153E+02 -0.19413125173E+03  0.30250660540E+02  0.21792482293E+03  0.10566000000E+00 0.  1.
         13    1    1    2    0    0  0.34439714206E+03  0.17088048154E+03 -0.28406809808E+03  0.47802115638E+03  0.10566000000E+00 0. -1.
         -4    1    1    2    0  502 -0.43867954722E+03  0.23250770191E+02 -0.15889083816E+04  0.16485175730E+04  0.00000000000E+00 0. -1.
</event>
<event>
 5    1  0.1196676E-004  0.2321980E+03  0.7818608E-02  0.1043031E+00
         -4   -1    0    0    0  501 -0.00000000000E+00  0.00000000000E+00  0.37919191064E+03  0.37919191064E+03  0.00000000000E+00 0. -1.
         21   -1    0    0  501  502  0.00000000000E+00 -0.00000000000E+00 -0.10948821613E+04  0.10948821613E+04  0.00000000000E+00 0. -1.
        -13    1    1    2    0    0  0.11064691669E+02 -0.24262329122E+03 -0.46454826690E+01  0.24291990556E+03  0.10566000000E+00 0.  1.
         13    1    1    2    0    0 -0.16658115794E+03 -0.13411822831E+03 -0.78788680719E+03  0.81639611308E+03  0.10566000000E+00 0. -1.
         -4    1    1    2    0  502  0.15551646627E+03  0.37674151953E+03  0.76842039163E+02  0.41475805333E+03  0.00000000000E+00 0. -1.
</event>
<event>
 5    1  0.1196676E-004  0.4646429E+03  0.7818608E-02  0.9764452E-01
          4   -1    0    0  502    0 -0.00000000000E+00  0.00000000000E+00  0.34457396177E+03  0.34457396177E+03  0.00000000000E+00 0.  1.
         21   -1    0    0  501  502  0.00000000000E+00 -0.00000000000E+00 -0.16773668209E+04  0.16773668209E+04  0.00000000000E+00 0.  1.
        -13    1    1    2    0    0 -0.42827807046E+03 -0.33537166225E+03 -0.63051905070E+03  0.83273677831E+03  0.10566000000E+00 0.  1.
         13    1    1    2    0    0  0.54961312670E+01  0.22578592442E+03  0.12175842973E+03  0.25658257443E+03  0.10566000000E+00 0. -1.
          4    1    1    2  501    0  0.42278193919E+03  0.10958573784E+03 -0.82403223818E+03  0.93262142995E+03  0.00000000000E+00 0.  1.
</event>
<event>
 5    1  0.1196676E-004  0.9082230E+02  0.7818608E-02  0.1180704E+00
          4   -1    0    0  502    0 -0.00000000000E+00  0.00000000000E+00  0.76458930185E+02  0.76458930185E+02  0.00000000000E+00 0.  1.
         21   -1    0    0  501  502  0.00000000000E+00 -0.00000000000E+00 -0.22345739656E+03  0.22345739656E+03  0.00000000000E+00 0. -1.
        -13    1    1    2    0    0 -0.11085251106E+02  0.94557735071E+02  0.26875945013E+02  0.98926112014E+02  0.10566000000E+00 0.  1.
         13    1    1    2    0    0  0.21238841140E+02 -0.72803941141E+02 -0.11924116688E+03  0.14131514166E+03  0.10566000000E+00 0. -1.
          4    1    1    2  501    0 -0.10153590034E+02 -0.21753793930E+02 -0.54633244514E+02  0.59675073080E+02  0.00000000000E+00 0.  1.
</event>
<event>
 5    1  0.1196676E-004  0.9092782E+03  0.7818608E-02  0.8864846E-01
         21   -1    0    0  501  502  0.00000000000E+00  0.00000000000E+00  0.52003072109E+03  0.52003072109E+03  0.00000000000E+00 0.  1.
         -4   -1    0    0    0  501 -0.00000000000E+00 -0.00000000000E+00 -0.21473443752E+04  0.21473443752E+04  0.00000000000E+00 0. -1.
        -13    1    1    2    0    0 -0.81146592096E+03  0.56290847508E+02 -0.50313133916E+03  0.95644485257E+03  0.10566000000E+00 0.  1.
         13    1    1    2    0    0  0.98949082191E+03  0.45666695360E+02 -0.11338013705E+04  0.15055507605E+04  0.10566000000E+00 0. -1.
         -4    1    1    2    0  502 -0.17802490095E+03 -0.10195754287E+03  0.96190554760E+01  0.20537948323E+03  0.00000000000E+00 0. -1.
</event>
<event>
 5    1  0.1196676E-004  0.5238072E+03  0.7818608E-02  0.9427264E-01
         21   -1    0    0  501  502  0.00000000000E+00  0.00000000000E+00  0.49562046110E+03  0.49562046110E+03  0.00000000000E+00 0.  1.
          4   -1    0    0  502    0 -0.00000000000E+00 -0.00000000000E+00 -0.17814003299E+04  0.17814003299E+04  0.00000000000E+00 0.  1.
        -13    1    1    2    0    0 -0.17656734332E+03 -0.56307888574E+03 -0.52442146074E+03  0.78946294273E+03  0.10566000000E+00 0.  1.
         13    1    1    2    0    0 -0.13019589034E+03  0.50336550329E+03 -0.97777660942E+03  0.11074181274E+04  0.10566000000E+00 0. -1.
          4    1    1    2  501    0  0.30676323366E+03  0.59713382448E+02  0.21641820131E+03  0.38013972093E+03  0.00000000000E+00 0.  1.
</event>
<event>
 5    1  0.1196676E-004  0.2499014E+03  0.7818608E-02  0.1030444E+00
         21   -1    0    0  501  502  0.00000000000E+00  0.00000000000E+00  0.16131699112E+03  0.16131699112E+03  0.00000000000E+00 0. -1.
          4   -1    0    0  502    0 -0.00000000000E+00 -0.00000000000E+00 -0.87697450688E+03  0.87697450688E+03  0.00000000000E+00 0.  1.
        -13    1    1    2    0    0 -0.36208840663E+02  0.23525117151E+03 -0.39127708040E+03  0.45798685423E+03  0.10566000000E+00 0.  1.
         13    1    1    2    0    0  0.36199310054E+02 -0.26116028218E+03 -0.41188535184E+03  0.48904461684E+03  0.10566000000E+00 0. -1.
          4    1    1    2  501    0  0.95306092501E-02  0.25909110666E+02  0.87504916477E+02  0.91260026923E+02  0.00000000000E+00 0.  1.
</event>
<event>
 5    1  0.1196676E-004  0.4779156E+03  0.7818608E-02  0.9944728E-01
          4   -1    0    0  502    0 -0.00000000000E+00  0.00000000000E+00  0.23358865824E+04  0.23358865824E+04  0.00000000000E+00 0.  1.
         21   -1    0    0  501  502  0.00000000000E+00 -0.00000000000E+00 -0.14690057054E+03  0.14690057054E+03  0.00000000000E+00 0.  1.
        -13    1    1    2    0    0  0.34376871053E+03  0.39379107297E+03  0.58604367229E+03  0.78529964503E+03  0.10566000000E+00 0.  1.
         13    1    1    2    0    0 -0.56178451835E+02 -0.97953215040E+02  0.63988582749E+03  0.64977283274E+03  0.10566000000E+00 0. -1.
          4    1    1    2  501    0 -0.28759025870E+03 -0.29583785793E+03  0.96305651208E+03  0.10477146752E+04  0.00000000000E+00 0.  1.
</event>
<event>
 5    1  0.1196676E-004  0.3846421E+03  0.7818608E-02  0.9982950E-01
         21   -1    0    0  501  502  0.00000000000E+00  0.00000000000E+00  0.32638744075E+03  0.32638744075E+03  0.00000000000E+00 0. -1.
         -4   -1    0    0    0  501 -0.00000000000E+00 -0.00000000000E+00 -0.14340359389E+04  0.14340359389E+04  0.00000000000E+00 0. -1.
        -13    1    1    2    0    0 -0.11652363374E+03  0.15123281405E+03 -0.57876666828E+03  0.60944235884E+03  0.10566000000E+00 0.  1.
         13    1    1    2    0    0  0.47534480288E+03 -0.18611772066E+03 -0.59551025956E+03  0.78436277829E+03  0.10566000000E+00 0. -1.
         -4    1    1    2    0  502 -0.35882116914E+03  0.34884906612E+02  0.66628429660E+02  0.36661824255E+03  0.00000000000E+00 0. -1.
</event>
<event>
 5    1  0.1196676E-004  0.4096454E+03  0.7818608E-02  0.9701595E-01
         21   -1    0    0  501  502  0.00000000000E+00  0.00000000000E+00  0.61548159537E+03  0.61548159537E+03  0.00000000000E+00 0.  1.
          4   -1    0    0  502    0 -0.00000000000E+00 -0.00000000000E+00 -0.94858697453E+03  0.94858697453E+03  0.00000000000E+00 0.  1.
        -13    1    1    2    0    0 -0.17278085310E+02  0.47348922525E+03 -0.26141686823E+03  0.54113710723E+03  0.10566000000E+00 0.  1.
         13    1    1    2    0    0  0.35058635442E+03 -0.26248982549E+03 -0.33262794130E+03  0.54995732461E+03  0.10566000000E+00 0. -1.
          4    1    1    2  501    0 -0.33330826911E+03 -0.21099939976E+03  0.26093943037E+03  0.47297413807E+03  0.00000000000E+00 0.  1.
</event>
<event>
 5    1  0.1196676E-004  0.7056705E+02  0.7818608E-02  0.1225247E+00
         21   -1    0    0  501  502  0.00000000000E+00  0.00000000000E+00  0.59576121919E+02  0.59576121919E+02  0.00000000000E+00 0. -1.
          4   -1    0    0  502    0 -0.00000000000E+00 -0.00000000000E+00 -0.16378280277E+03  0.16378280277E+03  0.00000000000E+00 0.  1.
        -13    1    1    2    0    0 -0.81514549830E+01 -0.79530334233E+02 -0.10685990044E+03  0.13345624664E+03  0.10566000000E+00 0.  1.
         13    1    1    2    0    0 -0.90682193948E+01  0.55090222701E+02 -0.11212978519E+02  0.56946530110E+02  0.10566000000E+00 0. -1.
          4    1    1    2  501    0  0.17219674378E+02  0.24440111532E+02  0.13866198103E+02  0.32956147942E+02  0.00000000000E+00 0.  1.
</event>
<event>
 5    1  0.1196676E-004  0.5046454E+03  0.7818608E-02  0.9490465E-01
         21   -1    0    0  501  502  0.00000000000E+00  0.00000000000E+00  0.34335385407E+03  0.34335385407E+03  0.00000000000E+00 0.  1.
          4   -1    0    0  502    0 -0.00000000000E+00 -0.00000000000E+00 -0.22455205557E+04  0.22455205557E+04  0.00000000000E+00 0.  1.
        -13    1    1    2    0    0 -0.12793227848E+03  0.16886041022E+03 -0.55875320448E+03  0.59756644877E+03  0.10566000000E+00 0.  1.
         13    1    1    2    0    0 -0.11495738348E+03  0.51318732510E+03 -0.11138781798E+04  0.12317877420E+04  0.10566000000E+00 0. -1.
          4    1    1    2  501    0  0.24288966196E+03 -0.68204773532E+03 -0.22953531729E+03  0.75952021897E+03  0.00000000000E+00 0.  1.
</event>
<event>
 5    1  0.1196676E-004  0.4071006E+03  0.7818608E-02  0.1008623E+00
         21   -1    0    0  501  502  0.00000000000E+00  0.00000000000E+00  0.21961416668E+03  0.21961416668E+03  0.00000000000E+00 0.  1.
          4   -1    0    0  502    0 -0.00000000000E+00 -0.00000000000E+00 -0.14629896438E+04  0.14629896438E+04  0.00000000000E+00 0.  1.
        -13    1    1    2    0    0 -0.16387168253E+03  0.27836865470E+03 -0.93508387969E+03  0.98930526607E+03  0.10566000000E+00 0.  1.
         13    1    1    2    0    0 -0.11326589730E+02  0.11449856409E+03 -0.22845240400E+03  0.25579039245E+03  0.10566000000E+00 0. -1.
          4    1    1    2  501    0  0.17519827226E+03 -0.39286721879E+03 -0.79839193395E+02  0.43750815193E+03  0.00000000000E+00 0.  1.
</event>
<event>
 5    1  0.1196676E-004  0.3531508E+03  0.7818608E-02  0.9920762E-01
          4   -1    0    0  502    0 -0.00000000000E+00  0.00000000000E+00  0.19578832044E+04  0.19578832044E+04  0.00000000000E+00 0.  1.
         21   -1    0    0  501  502  0.00000000000E+00 -0.00000000000E+00 -0.23692164279E+03  0.23692164279E+03  0.00000000000E+00 0.  1.
        -13    1    1    2    0    0 -0.47549687330E+03  0.32112382147E+03  0.10862337062E+04  0.12284630482E+04  0.10566000000E+00 0.  1.
         13    1    1    2    0    0  0.29819211798E+03 -0.54109850031E+02  0.56073212653E+03  0.63739073101E+03  0.10566000000E+00 0. -1.
          4    1    1    2  501    0  0.17730475531E+03 -0.26701397144E+03  0.73995728861E+02  0.32895106793E+03  0.00000000000E+00 0.  1.
</event>
<event>
 5    1  0.1196676E-004  0.4974200E+03  0.7818608E-02  0.9552185E-01
         21   -1    0    0  501  502  0.00000000000E+00  0.00000000000E+00  0.19676607081E+04  0.19676607081E+04  0.00000000000E+00 0.  1.
          4   -1    0    0  502    0 -0.00000000000E+00 -0.00000000000E+00 -0.16617860499E+04  0.16617860499E+04  0.00000000000E+00 0.  1.
        -13    1    1    2    0    0 -0.44725698924E+03 -0.24990173317E+03  0.87015606824E+03  0.10097827910E+04  0.10566000000E+00 0.  1.
         13    1    1    2    0    0 -0.94868807782E+02  0.37635949965E+03 -0.14898543411E+04  0.15395819344E+04  0.10566000000E+00 0. -1.
          4    1    1    2  501    0  0.54212579703E+03 -0.12645776648E+03  0.92557293107E+03  0.10800820326E+04  0.00000000000E+00 0.  1.
</event>
<event>
 5    1  0.1196676E-004  0.3711057E+02  0.7818608E-02  0.1355483E+00
          4   -1    0    0  502    0 -0.00000000000E+00  0.00000000000E+00  0.58417938649E+01  0.58417938649E+01  0.00000000000E+00 0.  1.
         21   -1    0    0  501  502  0.00000000000E+00 -0.00000000000E+00 -0.35576483500E+03  0.35576483500E+03  0.00000000000E+00 0. -1.
        -13    1    1    2    0    0  0.38134063684E+02  0.10594884519E+02 -0.93150476394E+02  0.10121008254E+03  0.10566000000E+00 0.  1.
         13    1    1    2    0    0 -0.32801699246E+02 -0.17033237963E+01 -0.18824284685E+03  0.19108697847E+03  0.10566000000E+00 0. -1.
          4    1    1    2  501    0 -0.53323644384E+01 -0.88915607224E+01 -0.68529717888E+02  0.69309567856E+02  0.00000000000E+00 0.  1.
</event>
<event>
 5    1  0.1196676E-004  0.1914906E+03  0.7818608E-02  0.1066131E+00
         21   -1    0    0  501  502  0.00000000000E+00  0.00000000000E+00  0.34016511779E+02  0.34016511779E+02  0.00000000000E+00 0.  1.
         -4   -1    0    0    0  501 -0.00000000000E+00 -0.00000000000E+00 -0.15092163248E+04  0.15092163248E+04  0.00000000000E+00 0. -1.
        -13    1    1    2    0    0 -0.18074613337E+03 -0.72065757627E+02 -0.92873192562E+03  0.94889706448E+03  0.10566000000E+00 0.  1.
         13    1    1    2    0    0  0.17616685557E+03  0.62297933629E+02 -0.55159931718E+03  0.58238957015E+03  0.10566000000E+00 0. -1.
         -4    1    1    2    0  502  0.45792777970E+01  0.97678239976E+01  0.51314297429E+01  0.11946201990E+02  0.00000000000E+00 0. -1.
</event>
<event>
 5    1  0.1196676E-004  0.2823188E+03  0.7818608E-02  0.1021725E+00
         21   -1    0    0  501  502  0.00000000000E+00  0.00000000000E+00  0.14023459842E+04  0.14023459842E+04  0.00000000000E+00 0.  1.
          4   -1    0    0  502    0 -0.00000000000E+00 -0.00000000000E+00 -0.32767211289E+03  0.32767211289E+03  0.00000000000E+00 0.  1.
        -13    1    1    2    0    0 -0.85347966404E+01 -0.11521823195E+03 -0.17287749661E+03  0.20792961243E+03  0.10566000000E+00 0.  1.
         13    1    1    2    0    0 -0.20704592904E+03 -0.94017688487E+02 -0.11507617620E+02  0.22768350600E+03  0.10566000000E+00 0. -1.
          4    1    1    2  501    0  0.21558072568E+03  0.20923592044E+03  0.12590589855E+04  0.12944049786E+04  0.00000000000E+00 0.  1.
</event>
<event>
 5    1  0.1196676E-004  0.3782311E+03  0.7818608E-02  0.9927776E-01
          4   -1    0    0  502    0 -0.00000000000E+00  0.00000000000E+00  0.96548370091E+03  0.96548370091E+03  0.00000000000E+00 0.  1.
         21   -1    0    0  501  502  0.00000000000E+00 -0.00000000000E+00 -0.56465057955E+03  0.56465057955E+03  0.00000000000E+00 0.  1.
        -13    1    1    2    0    0 -0.11653083022E+03 -0.45440248306E+03  0.26855562236E+03  0.54053971590E+03  0.10566000000E+00 0.  1.
         13    1    1    2    0    0 -0.14486582514E+03  0.19258821633E+03  0.44441105486E+03  0.50554675867E+03  0.10566000000E+00 0. -1.
          4    1    1    2  501    0  0.26139665535E+03  0.26181426673E+03 -0.31213355586E+03  0.48404780589E+03  0.00000000000E+00 0.  1.
</event>
<event>
 5    1  0.1196676E-004  0.4169925E+03  0.7818608E-02  0.9681213E-01
         -4   -1    0    0    0  501 -0.00000000000E+00  0.00000000000E+00  0.15913796433E+04  0.15913796433E+04  0.00000000000E+00 0. -1.
         21   -1    0    0  501  502  0.00000000000E+00 -0.00000000000E+00 -0.51750735953E+03  0.51750735953E+03  0.00000000000E+00 0. -1.
        -13    1    1    2    0    0 -0.20061102428E+03  0.32323521370E+03  0.96331547379E+03  0.10357135220E+04  0.10566000000E+00 0.  1.
         13    1    1    2    0    0  0.19342042505E+03 -0.54763562124E+03  0.40121802958E+03  0.70589811794E+03  0.10566000000E+00 0. -1.
         -4    1    1    2    0  502  0.71905992288E+01  0.22440040754E+03 -0.29066121960E+03  0.36727536291E+03  0.00000000000E+00 0. -1.
</event>
<event>
 5    1  0.1196676E-004  0.2120120E+03  0.7818608E-02  0.1053146E+00
         -4   -1    0    0    0  501 -0.00000000000E+00  0.00000000000E+00  0.18958394029E+03  0.18958394029E+03  0.00000000000E+00 0. -1.
         21   -1    0    0  501  502  0.00000000000E+00 -0.00000000000E+00 -0.93343205763E+03  0.93343205763E+03  0.00000000000E+00 0. -1.
        -13    1    1    2    0    0  0.10024142683E+02 -0.20591233006E+03 -0.97557537719E+02  0.22807423230E+03  0.10566000000E+00 0.  1.
         13    1    1    2    0    0  0.19514490536E+03  0.11459076283E+03 -0.17184599629E+02  0.22695351648E+03  0.10566000000E+00 0. -1.
         -4    1    1    2    0  502 -0.20516904805E+03  0.91321567226E+02 -0.62910597999E+03  0.66798824913E+03  0.00000000000E+00 0. -1.
</event>
<event>
 5    1  0.1196676E-004  0.4863393E+03  0.7818608E-02  0.9508426E-01
         21   -1    0    0  501  502  0.00000000000E+00  0.00000000000E+00  0.59547504784E+03  0.59547504784E+03  0.00000000000E+00 0. -1.
         -4   -1    0    0    0  501 -0.00000000000E+00 -0.00000000000E+00 -0.10382987843E+04  0.10382987843E+04  0.00000000000E+00 0. -1.
        -13    1    1    2    0    0  0.34196630783E+03  0.27974257889E+03 -0.29120311622E+03  0.52914660747E+03  0.10566000000E+00 0.  1.
         13    1    1    2    0    0 -0.19772819066E+03 -0.65522184596E+03 -0.32707265498E+02  0.68518747886E+03  0.10566000000E+00 0. -1.
         -4    1    1    2    0  502 -0.14423811717E+03  0.37547926707E+03 -0.11891335475E+03  0.41943974583E+03  0.00000000000E+00 0. -1.
</event>
<event>
 5    1  0.1196676E-004  0.1650285E+03  0.7818608E-02  0.1087167E+00
         -4   -1    0    0    0  501 -0.00000000000E+00  0.00000000000E+00  0.31413254341E+03  0.31413254341E+03  0.00000000000E+00 0. -1.
         21   -1    0    0  501  502  0.00000000000E+00 -0.00000000000E+00 -0.18792171543E+03  0.18792171543E+03  0.00000000000E+00 0.  1.
        -13    1    1    2    0    0 -0.28992253723E+02  0.14059686341E+03 -0.44968391995E+02  0.15043336139E+03  0.10566000000E+00 0.  1.
         13    1    1    2    0    0  0.15102193770E+02 -0.17088091483E+03  0.22825497585E+03  0.28553232474E+03  0.10566000000E+00 0. -1.
         -4    1    1    2    0  502  0.13890059953E+02  0.30284051418E+02 -0.57075755864E+02  0.66088572713E+02  0.00000000000E+00 0. -1.
</event>
<event>
 5    1  0.1196676E-004  0.2035259E+03  0.7818608E-02  0.1109826E+00
          4   -1    0    0  502    0 -0.00000000000E+00  0.00000000000E+00  0.29376694485E+03  0.29376694485E+03  0.00000000000E+00 0.  1.
         21   -1    0    0  501  502  0.00000000000E+00 -0.00000000000E+00 -0.46350431281E+03  0.46350431281E+03  0.00000000000E+00 0.  1.
        -13    1    1    2    0    0  0.16552127342E+03 -0.10567573839E+03 -0.32992148976E+03  0.38394381647E+03  0.10566000000E+00 0.  1.
         13    1    1    2    0    0  0.29672867540E+02 -0.37133054554E+02  0.11879808814E+03  0.12795444391E+03  0.10566000000E+00 0. -1.
          4    1    1    2  501    0 -0.19519414096E+03  0.14280879295E+03  0.41386033669E+02  0.24537299727E+03  0.00000000000E+00 0.  1.
</event>
<event>
 5    1  0.1196676E-004  0.4832001E+03  0.7818608E-02  0.9744506E-01
         21   -1    0    0  501  502  0.00000000000E+00  0.00000000000E+00  0.57830119634E+03  0.57830119634E+03  0.00000000000E+00 0.  1.
          4   -1    0    0  502    0 -0.00000000000E+00 -0.00000000000E+00 -0.11155926244E+04  0.11155926244E+04  0.00000000000E+00 0.  1.
        -13    1    1    2    0    0  0.53679800227E+03 -0.40318204223E+02  0.22900166228E+03  0.58499523530E+03  0.10566000000E+00 0.  1.
         13    1    1    2    0    0 -0.13970270977E+03  0.16356155490E+03 -0.63874876721E+03  0.67399497634E+03  0.10566000000E+00 0. -1.
          4    1    1    2  501    0 -0.39709529250E+03 -0.12324335068E+03 -0.12754432308E+03  0.43490360905E+03  0.00000000000E+00 0.  1.
</event>
<event>
 5    1  0.1196676E-004  0.1276527E+03  0.7818608E-02  0.1125509E+00
         21   -1    0    0  501  502  0.00000000000E+00  0.00000000000E+00  0.14917546649E+03  0.14917546649E+03  0.00000000000E+00 0.  1.
          4   -1    0    0  502    0 -0.00000000000E+00 -0.00000000000E+00 -0.68920563722E+03  0.68920563722E+03  0.00000000000E+00 0.  1.
        -13    1    1    2    0    0  0.93462430054E+02 -0.84348647915E+02 -0.61730464885E+03  0.63001187361E+03  0.10566000000E+00 0.  1.
         13    1    1    2    0    0 -0.11046738355E+03  0.11009876661E+03  0.42036828582E+02  0.16152983427E+03  0.10566000000E+00 0. -1.
          4    1    1    2  501    0  0.17004953495E+02 -0.25750118697E+02  0.35237649543E+02  0.46839395829E+02  0.00000000000E+00 0.  1.
</event>
<event>
 5    1  0.1196676E-004  0.3687510E+03  0.7818608E-02  0.9823904E-01
         -4   -1    0    0    0  501 -0.00000000000E+00  0.00000000000E+00  0.22494498907E+04  0.22494498907E+04  0.00000000000E+00 0. -1.
         21   -1    0    0  501  502  0.00000000000E+00 -0.00000000000E+00 -0.41145812165E+03  0.41145812165E+03  0.00000000000E+00 0. -1.
        -13    1    1    2    0    0 -0.32543912605E+03  0.14650514432E+03  0.14859489862E+04  0.15282077028E+04  0.10566000000E+00 0.  1.
         13    1    1    2    0    0  0.49112883786E+03  0.11737962954E+03  0.56310534431E+03  0.75635517633E+03  0.10566000000E+00 0. -1.
         -4    1    1    2    0  502 -0.16568971181E+03 -0.26388477386E+03 -0.21106256146E+03  0.37634513325E+03  0.00000000000E+00 0. -1.
</event>
<event>
 5    1  0.1196676E-004  0.5277824E+02  0.7818608E-02  0.1285712E+00
         21   -1    0    0  501  502  0.00000000000E+00  0.00000000000E+00  0.54469190949E+03  0.54469190949E+03  0.00000000000E+00 0. -1.
         -4   -1    0    0    0  501 -0.00000000000E+00 -0.00000000000E+00 -0.22039664144E+03  0.22039664144E+03  0.00000000000E+00 0. -1.
        -13    1    1    2    0    0  0.59847436914E+02  0.13767714698E+02 -0.51462343047E+02  0.80122715812E+02  0.10566000000E+00 0.  1.
         13    1    1    2    0    0 -0.38535747622E+02  0.37350539260E+02 -0.14844380132E+03  0.15784688766E+03  0.10566000000E+00 0. -1.
         -4    1    1    2    0  502 -0.21311689292E+02 -0.51118253958E+02  0.52420141242E+03  0.52711894746E+03  0.00000000000E+00 0. -1.
</event>
<event>
 5    1  0.1196676E-004  0.5001297E+03  0.7818608E-02  0.9642833E-01
         21   -1    0    0  501  502  0.00000000000E+00  0.00000000000E+00  0.44832515793E+03  0.44832515793E+03  0.00000000000E+00 0. -1.
         -4   -1    0    0    0  501 -0.00000000000E+00 -0.00000000000E+00 -0.16465874270E+04  0.16465874270E+04  0.00000000000E+00 0. -1.
        -13    1    1    2    0    0  0.23560734374E+03 -0.14481471661E+03 -0.99402310614E+03  0.10317771413E+04  0.10566000000E+00 0.  1.
         13    1    1    2    0    0  0.11846612997E+03 -0.35368374426E+03 -0.25149755817E+03  0.44986381032E+03  0.10566000000E+00 0. -1.
         -4    1    1    2    0  502 -0.35407347371E+03  0.49849846087E+03  0.47258395279E+02  0.61327163329E+03  0.00000000000E+00 0. -1.
</event>
<event>
 5    1  0.1196676E-004  0.2822750E+03  0.7818608E-02  0.1060963E+00
         21   -1    0    0  501  502  0.00000000000E+00  0.00000000000E+00  0.14789054367E+04  0.14789054367E+04  0.00000000000E+00 0. -1.
         -4   -1    0    0    0  501 -0.00000000000E+00 -0.00000000000E+00 -0.19424354768E+03  0.19424354768E+03  0.00000000000E+00 0. -1.
        -13    1    1    2    0    0  0.64906374493E+02  0.24686198445E+02 -0.61738084071E+02  0.92918502099E+02  0.10566000000E+00 0.  1.
         13    1    1    2    0    0  0.57797500636E+02  0.27095581033E+03  0.11939748813E+04  0.12256972019E+04  0.10566000000E+00 0. -1.
         -4    1    1    2    0  502 -0.12270387513E+03 -0.29564200877E+03  0.15242509174E+03  0.35453328041E+03  0.00000000000E+00 0. -1.
</event>
<event>
 5    1  0.1196676E-004  0.4828132E+03  0.7818608E-02  0.9826712E-01
         21   -1    0    0  501  502  0.00000000000E+00  0.00000000000E+00  0.83117946843E+03  0.83117946843E+03  0.00000000000E+00 0.  1.
          4   -1    0    0  502    0 -0.00000000000E+00 -0.00000000000E+00 -0.42123579128E+03  0.42123579128E+03  0.00000000000E+00 0.  1.
        -13    1    1    2    0    0 -0.28370559043E+03  0.30951668964E+03 -0.39064457067E+02  0.42168173564E+03  0.10566000000E+00 0.  1.
         13    1    1    2    0    0 -0.15975769860E+03 -0.30933589939E+02  0.43651501776E+02  0.16847811140E+03  0.10566000000E+00 0. -1.
          4    1    1    2  501    0  0.44346328903E+03 -0.27858309970E+03  0.40535663244E+03  0.66225541267E+03  0.00000000000E+00 0.  1.
</event>
<event>
 5    1  0.1196676E-004  0.4034676E+03  0.7818608E-02  0.9719085E-01
         21   -1    0    0  501  502  0.00000000000E+00  0.00000000000E+00  0.13692561307E+03  0.13692561307E+03  0.00000000000E+00 0. -1.
          4   -1    0    0  502    0 -0.00000000000E+00 -0.00000000000E+00 -0.14568035401E+04  0.14568035401E+04  0.00000000000E+00 0.  1.
        -13    1    1    2    0    0  0.38562708214E+03 -0.13326584796E+03 -0.43921547556E+03  0.59948167432E+03  0.10566000000E+00 0.  1.
         13    1    1    2    0    0 -0.37313519419E+03  0.14728926513E+03 -0.88774646088E+03  0.97417544145E+03  0.10566000000E+00 0. -1.
          4    1    1    2  501    0 -0.12491887953E+02 -0.14023417173E+02  0.70840094422E+01  0.20072037356E+02  0.00000000000E+00 0.  1.
</event>
<event>
 5    1  0.1196676E-004  0.3329425E+03  0.7818608E-02  0.9945664E-01
          4   -1    0    0  502    0 -0.00000000000E+00  0.00000000000E+00  0.35778486052E+03  0.35778486052E+03  0.00000000000E+00 0.  1.
         21   -1    0    0  501  502  0.00000000000E+00 -0.00000000000E+00 -0.90368823164E+03  0.90368823164E+03  0.00000000000E+00 0. -1.
        -13    1    1    2    0    0 -0.10272714683E+01  0.39185419272E+03  0.15174209804E+03  0.42020999407E+03  0.10566000000E+00 0.  1.
         13    1    1    2    0    0 -0.69432745877E+02 -0.22324302819E+03 -0.18850394056E+03  0.30032000034E+03  0.10566000000E+00 0. -1.
          4    1    1    2  501    0  0.70460017345E+02 -0.16861116452E+03 -0.50914152860E+03  0.54094309774E+03  0.00000000000E+00 0.  1.
</event>
<event>
 5    1  0.1196676E-004  0.3592704E+02  0.7818608E-02  0.1362790E+00
         21   -1    0    0  501  502  0.00000000000E+00  0.00000000000E+00  0.50125804412E+03  0.50125804412E+03  0.00000000000E+00 0.  1.
          4   -1    0    0  502    0 -0.00000000000E+00 -0.00000000000E+00 -0.15795549534E+02  0.15795549534E+02  0.00000000000E+00 0.  1.
        -13    1    1    2    0    0  0.13868632957E+02  0.38520944587E+02  0.25067686982E+02  0.48006272993E+02  0.10566000000E+00 0.  1.
         13    1    1    2    0    0 -0.12669843317E+02 -0.26249332106E+02  0.45921771809E+02  0.54390924388E+02  0.10566000000E+00 0. -1.
          4    1    1    2  501    0 -0.11987896402E+01 -0.12271612482E+02  0.41447303579E+03  0.41465639627E+03  0.00000000000E+00 0.  1.
</event>
<event>
 5    1  0.1196676E-004  0.4788369E+03  0.7818608E-02  0.9525604E-01
         21   -1    0    0  501  502  0.00000000000E+00  0.00000000000E+00  0.18527323071E+03  0.18527323071E+03  0.00000000000E+00 0. -1.
         -4   -1    0    0    0  501 -0.00000000000E+00 -0.00000000000E+00 -0.29529348755E+04  0.29529348755E+04  0.00000000000E+00 0. -1.
        -13    1    1    2    0    0 -0.61461652802E+02  0.38934195053E+03 -0.89006558008E+03  0.97343794729E+03  0.10566000000E+00 0.  1.
         13    1    1    2    0    0 -0.18066289920E+03 -0.67740395685E+03 -0.12316066885E+04  0.14171698029E+04  0.10566000000E+00 0. -1.
         -4    1    1    2    0  502  0.24212455201E+03  0.28806200631E+03 -0.64598937621E+03  0.74760035604E+03  0.00000000000E+00 0. -1.
</event>
<event>
 5    1  0.1398525E-004  0.3756094E+03  0.7818608E-02  0.1021327E+00
          4   -1    0    0  502    0 -0.00000000000E+00  0.00000000000E+00  0.95407549146E+03  0.95407549146E+03  0.00000000000E+00 0.  1.
         21   -1    0    0  501  502  0.00000000000E+00 -0.00000000000E+00 -0.31875825073E+03  0.31875825073E+03  0.00000000000E+00 0.  1.
        -13    1    1    2    0    0 -0.33820473440E+03  0.60840295778E+02  0.67046685079E+03  0.75339882741E+03  0.10566000000E+00 0.  1.
         13    1    1    2    0    0 -0.44872772953E+02 -0.86866963962E+02  0.71279575831E+02  0.12099679448E+03  0.10566000000E+00 0. -1.
          4    1    1    2  501    0  0.38307750736E+03  0.26026668184E+02 -0.10642918589E+03  0.39843812030E+03  0.00000000000E+00 0.  1.
</event>
<event>
 5    1  0.1196676E-004  0.1951070E+03  0.7818608E-02  0.1063543E+00
         21   -1    0    0  501  502  0.00000000000E+00  0.00000000000E+00  0.12404019786E+03  0.12404019786E+03  0.00000000000E+00 0. -1.
          4   -1    0    0  502    0 -0.00000000000E+00 -0.00000000000E+00 -0.56547739092E+03  0.56547739092E+03  0.00000000000E+00 0.  1.
        -13    1    1    2    0    0  0.13454348646E+03  0.15435508115E+03 -0.31235826408E+03  0.37349047796E+03  0.10566000000E+00 0.  1.
         13    1    1    2    0    0 -0.17859289014E+03 -0.69416858912E+02 -0.99346577235E+02  0.21583297775E+03  0.10566000000E+00 0. -1.
          4    1    1    2  501    0  0.44049403682E+02 -0.84938222235E+02 -0.29732351748E+02  0.10019413307E+03  0.00000000000E+00 0.  1.
</event>
<event>
 5    1  0.1196676E-004  0.4804393E+03  0.7818608E-02  0.9739945E-01
         -4   -1    0    0    0  501 -0.00000000000E+00  0.00000000000E+00  0.74891953407E+03  0.74891953407E+03  0.00000000000E+00 0. -1.
         21   -1    0    0  501  502  0.00000000000E+00 -0.00000000000E+00 -0.89540065546E+03  0.89540065546E+03  0.00000000000E+00 0. -1.
        -13    1    1    2    0    0  0.21732409810E+03 -0.46799925516E+02  0.41465728645E+03  0.47048982243E+03  0.10566000000E+00 0.  1.
         13    1    1    2    0    0 -0.31311870798E+02 -0.46191896032E+03 -0.39123903842E+03  0.60614977976E+03  0.10566000000E+00 0. -1.
         -4    1    1    2    0  502 -0.18601222730E+03  0.50871888584E+03 -0.16989936941E+03  0.56768058734E+03  0.00000000000E+00 0. -1.
</event>
<event>
 5    1  0.1196676E-004  0.3811665E+03  0.7818608E-02  0.1030549E+00
         21   -1    0    0  501  502  0.00000000000E+00  0.00000000000E+00  0.17448177287E+03  0.17448177287E+03  0.00000000000E+00 0. -1.
         -4   -1    0    0    0  501 -0.00000000000E+00 -0.00000000000E+00 -0.19126271128E+04  0.19126271128E+04  0.00000000000E+00 0. -1.
        -13    1    1    2    0    0 -0.14417794656E+02 -0.68700481341E+02 -0.40758159331E+03  0.41358239241E+03  0.10566000000E+00 0.  1.
         13    1    1    2    0    0  0.37401043287E+03 -0.73353218672E+02 -0.11522883208E+03  0.39817357206E+03  0.10566000000E+00 0. -1.
         -4    1    1    2    0  502 -0.35959263821E+03  0.14205370001E+03 -0.12153349145E+04  0.12753529212E+04  0.00000000000E+00 0. -1.
</event>
<event>
 5    1  0.1196676E-004  0.8311077E+02  0.7818608E-02  0.1195996E+00
         21   -1    0    0  501  502  0.00000000000E+00  0.00000000000E+00  0.14415076062E+02  0.14415076062E+02  0.00000000000E+00 0. -1.
          4   -1    0    0  502    0 -0.00000000000E+00 -0.00000000000E+00 -0.70587024743E+03  0.70587024743E+03  0.00000000000E+00 0.  1.
        -13    1    1    2    0    0 -0.70868297833E+02  0.69680825641E+02 -0.32194624985E+03  0.33693787566E+03  0.10566000000E+00 0.  1.
         13    1    1    2    0    0  0.57760272355E+02 -0.43270500335E+02 -0.24600643664E+03  0.25637426410E+03  0.10566000000E+00 0. -1.
          4    1    1    2  501    0  0.13108025478E+02 -0.26410325307E+02 -0.12350248489E+03  0.12697318373E+03  0.00000000000E+00 0.  1.
</event>
<event>
 5    1  0.1196676E-004  0.2270953E+02  0.7818608E-02  0.1475321E+00
          4   -1    0    0  502    0 -0.00000000000E+00  0.00000000000E+00  0.70607640978E+01  0.70607640978E+01  0.00000000000E+00 0.  1.
         21   -1    0    0  501  502  0.00000000000E+00 -0.00000000000E+00 -0.68921357459E+03  0.68921357459E+03  0.00000000000E+00 0.  1.
        -13    1    1    2    0    0  0.20806866992E+02  0.32934375790E+01 -0.27308062085E+02  0.34489329712E+02  0.10566000000E+00 0.  1.
         13    1    1    2    0    0 -0.22848528009E+02 -0.13349779220E+02 -0.47662247190E+02  0.54515803292E+02  0.10566000000E+00 0. -1.
          4    1    1    2  501    0  0.20416610173E+01  0.10056341641E+02 -0.60718250122E+03  0.60726920569E+03  0.00000000000E+00 0.  1.
</event>
<event>
 5    1  0.1196676E-004  0.3313919E+02  0.7818608E-02  0.1381342E+00
         21   -1    0    0  501  502  0.00000000000E+00  0.00000000000E+00  0.27117176267E+03  0.27117176267E+03  0.00000000000E+00 0. -1.
          4   -1    0    0  502    0 -0.00000000000E+00 -0.00000000000E+00 -0.12744974950E+03  0.12744974950E+03  0.00000000000E+00 0.  1.
        -13    1    1    2    0    0  0.19478025888E+02 -0.26989749525E+02 -0.12329447492E+03  0.12770817821E+03  0.10566000000E+00 0.  1.
         13    1    1    2    0    0 -0.24966763663E+02  0.12406262454E+02  0.12651474024E+03  0.12955016518E+03  0.10566000000E+00 0. -1.
          4    1    1    2  501    0  0.54887377741E+01  0.14583487072E+02  0.14050174785E+03  0.14136316878E+03  0.00000000000E+00 0.  1.
</event>
<event>
 5    1  0.1196676E-004  0.4875330E+03  0.7818608E-02  0.9544303E-01
          4   -1    0    0  502    0 -0.00000000000E+00  0.00000000000E+00  0.23788222851E+04  0.23788222851E+04  0.00000000000E+00 0.  1.
         21   -1    0    0  501  502  0.00000000000E+00 -0.00000000000E+00 -0.23570219454E+03  0.23570219454E+03  0.00000000000E+00 0.  1.
        -13    1    1    2    0    0  0.40224306739E+03  0.55686377391E+02  0.90936686698E+03  0.99591594415E+03  0.10566000000E+00 0.  1.
         13    1    1    2    0    0  0.87968013155E+02 -0.41485614370E+03  0.64888519537E+03  0.77517481850E+03  0.10566000000E+00 0. -1.
          4    1    1    2  501    0 -0.49021108054E+03  0.35916976631E+03  0.58486802818E+03  0.84343371696E+03  0.00000000000E+00 0.  1.
</event>
<event>
 5    1  0.1196676E-004  0.3041458E+03  0.7818608E-02  0.1021564E+00
         21   -1    0    0  501  502  0.00000000000E+00  0.00000000000E+00  0.30556754754E+03  0.30556754754E+03  0.00000000000E+00 0. -1.
         -4   -1    0    0    0  501 -0.00000000000E+00 -0.00000000000E+00 -0.12921053318E+04  0.12921053318E+04  0.00000000000E+00 0. -1.
        -13    1    1    2    0    0 -0.13291114204E+03 -0.12548251572E+03 -0.57467412653E+03  0.60304361061E+03  0.10566000000E+00 0.  1.
         13    1    1    2    0    0 -0.10669759958E+03 -0.26026988676E+03  0.11072802959E+03  0.30230034636E+03  0.10566000000E+00 0. -1.
         -4    1    1    2    0  502  0.23960874162E+03  0.38575240248E+03 -0.52259168731E+03  0.69232892235E+03  0.00000000000E+00 0. -1.
</event>
<event>
 5    1  0.1196676E-004  0.3275454E+03  0.7818608E-02  0.9965428E-01
         -4   -1    0    0    0  501 -0.00000000000E+00  0.00000000000E+00  0.24512986986E+04  0.24512986986E+04  0.00000000000E+00 0. -1.
         21   -1    0    0  501  502  0.00000000000E+00 -0.00000000000E+00 -0.27497679451E+03  0.27497679451E+03  0.00000000000E+00 0. -1.
        -13    1    1    2    0    0  0.31629110312E+03  0.38461867629E+02  0.13122125938E+04  0.13503411716E+04  0.10566000000E+00 0.  1.
         13    1    1    2    0    0 -0.43561976158E+03 -0.10211391252E+03 -0.51507580007E+02  0.45038302562E+03  0.10566000000E+00 0. -1.
         -4    1    1    2    0  502  0.11932865846E+03  0.63652044896E+02  0.91561689033E+03  0.92555129593E+03  0.00000000000E+00 0. -1.
</event>
<event>
 5    1  0.1196676E-004  0.3243771E+02  0.7818608E-02  0.1386341E+00
         21   -1    0    0  501  502  0.00000000000E+00  0.00000000000E+00  0.34566419566E+03  0.34566419566E+03  0.00000000000E+00 0.  1.
          4   -1    0    0  502    0 -0.00000000000E+00 -0.00000000000E+00 -0.15622427617E+02  0.15622427617E+02  0.00000000000E+00 0.  1.
        -13    1    1    2    0    0  0.33661796825E+02  0.90127610313E+01  0.88793563007E+01  0.35961097860E+02  0.10566000000E+00 0.  1.
         13    1    1    2    0    0 -0.22897805057E+02 -0.83811680950E+01  0.73712868088E+02  0.77641171687E+02  0.10566000000E+00 0. -1.
          4    1    1    2  501    0 -0.10763991768E+02 -0.63159293630E+00  0.24744954365E+03  0.24768435373E+03  0.00000000000E+00 0.  1.
</event>
<event>
 5    1  0.1196676E-004  0.6104863E+03  0.7818608E-02  0.9264048E-01
         -4   -1    0    0    0  501 -0.00000000000E+00  0.00000000000E+00  0.35157913581E+04  0.35157913581E+04  0.00000000000E+00 0. -1.
         21   -1    0    0  501  502  0.00000000000E+00 -0.00000000000E+00 -0.24096358809E+03  0.24096358809E+03  0.00000000000E+00 0.  1.
        -13    1    1    2    0    0  0.56144349623E+03 -0.30763597488E+03  0.13959320174E+04  0.15357359476E+04  0.10566000000E+00 0.  1.
         13    1    1    2    0    0 -0.45598228334E+03  0.38459362182E+03  0.19722728961E+04  0.20605078220E+04  0.10566000000E+00 0. -1.
         -4    1    1    2    0  502 -0.10546121289E+03 -0.76957646944E+02 -0.93377143538E+02  0.16051117650E+03  0.00000000000E+00 0. -1.
</event>
<event>
 5    1  0.1196676E-004  0.5789562E+02  0.7818608E-02  0.1262607E+00
          4   -1    0    0  502    0 -0.00000000000E+00  0.00000000000E+00  0.27293853511E+03  0.27293853511E+03  0.00000000000E+00 0.  1.
         21   -1    0    0  501  502  0.00000000000E+00 -0.00000000000E+00 -0.93048120447E+02  0.93048120447E+02  0.00000000000E+00 0. -1.
        -13    1    1    2    0    0  0.12103418093E+02  0.56033289344E+02  0.24117587201E+03  0.24789520901E+03  0.10566000000E+00 0.  1.
         13    1    1    2    0    0  0.43239179628E+01 -0.67524892909E+02 -0.17431871829E+02  0.69872660952E+02  0.10566000000E+00 0. -1.
          4    1    1    2  501    0 -0.16427336056E+02  0.11491603566E+02 -0.43853585515E+02  0.48218785602E+02  0.00000000000E+00 0.  1.
</event>
<event>
 5    1  0.1196676E-004  0.4903640E+03  0.7818608E-02  0.9707888E-01
          4   -1    0    0  502    0 -0.00000000000E+00  0.00000000000E+00  0.43650362244E+03  0.43650362244E+03  0.00000000000E+00 0.  1.
         21   -1    0    0  501  502  0.00000000000E+00 -0.00000000000E+00 -0.92936881033E+03  0.92936881033E+03  0.00000000000E+00 0.  1.
        -13    1    1    2    0    0  0.51419721174E+03  0.19910548570E+03 -0.44048818999E+03  0.70574189594E+03  0.10566000000E+00 0.  1.
         13    1    1    2    0    0 -0.21183557969E+03  0.98582007267E+02 -0.13470608573E+02  0.23403887164E+03  0.10566000000E+00 0. -1.
          4    1    1    2  501    0 -0.30236163206E+03 -0.29768749297E+03 -0.38906389332E+02  0.42609166519E+03  0.00000000000E+00 0.  1.
</event>
<event>
 5    1  0.1196676E-004  0.4382686E+03  0.7818608E-02  0.1004468E+00
         -4   -1    0    0    0  501 -0.00000000000E+00  0.00000000000E+00  0.12684177606E+04  0.12684177606E+04  0.00000000000E+00 0. -1.
         21   -1    0    0  501  502  0.00000000000E+00 -0.00000000000E+00 -0.24174134661E+03  0.24174134661E+03  0.00000000000E+00 0. -1.
        -13    1    1    2    0    0 -0.38463870590E+02  0.98218729636E+02  0.10901007235E+03  0.15168914012E+03  0.10566000000E+00 0.  1.
         13    1    1    2    0    0 -0.15690430440E+03 -0.46961957983E+03  0.76631463479E+03  0.91235938158E+03  0.10566000000E+00 0. -1.
         -4    1    1    2    0  502  0.19536817499E+03  0.37140085019E+03  0.15135170682E+03  0.44611058549E+03  0.00000000000E+00 0. -1.
</event>
<event>
 5    1  0.1196676E-004  0.2506232E+03  0.7818608E-02  0.1042872E+00
         21   -1    0    0  501  502  0.00000000000E+00  0.00000000000E+00  0.22297937911E+03  0.22297937911E+03  0.00000000000E+00 0. -1.
         -4   -1    0    0    0  501 -0.00000000000E+00 -0.00000000000E+00 -0.16454557438E+04  0.16454557438E+04  0.00000000000E+00 0. -1.
        -13    1    1    2    0    0  0.13547174566E+03  0.10202351675E+03 -0.16825105796E+03  0.23889290804E+03  0.10566000000E+00 0.  1.
         13    1    1    2    0    0 -0.67584494844E+02  0.23709328890E+03  0.73701329964E+02  0.25731845792E+03  0.10566000000E+00 0. -1.
         -4    1    1    2    0  502 -0.67887250819E+02 -0.33911680564E+03 -0.13279266366E+04  0.13722237569E+04  0.00000000000E+00 0. -1.
</event>
<event>
 5    1  0.1196676E-004  0.7353495E+03  0.7818608E-02  0.9073218E-01
         21   -1    0    0  501  502  0.00000000000E+00  0.00000000000E+00  0.50477203964E+03  0.50477203964E+03  0.00000000000E+00 0. -1.
          4   -1    0    0  502    0 -0.00000000000E+00 -0.00000000000E+00 -0.23181452609E+04  0.23181452609E+04  0.00000000000E+00 0.  1.
        -13    1    1    2    0    0  0.77030803269E+03  0.95605985125E+02 -0.86615830363E+02  0.78103603173E+03  0.10566000000E+00 0.  1.
         13    1    1    2    0    0 -0.72691493503E+03 -0.28354153281E+02 -0.17949307934E+04  0.19367462004E+04  0.10566000000E+00 0. -1.
          4    1    1    2  501    0 -0.43393097657E+02 -0.67251831844E+02  0.68173402427E+02  0.10513506841E+03  0.00000000000E+00 0.  1.
</event>
<event>
 5    1  0.1196676E-004  0.1464330E+03  0.7818608E-02  0.1104684E+00
          4   -1    0    0  502    0 -0.00000000000E+00  0.00000000000E+00  0.17622229935E+03  0.17622229935E+03  0.00000000000E+00 0.  1.
         21   -1    0    0  501  502  0.00000000000E+00 -0.00000000000E+00 -0.16251114334E+03  0.16251114334E+03  0.00000000000E+00 0. -1.
        -13    1    1    2    0    0  0.94731425188E+02  0.13596453620E+03  0.11152183226E+02  0.16608666526E+03  0.10566000000E+00 0.  1.
         13    1    1    2    0    0 -0.75993366264E+02 -0.10308515629E+03 -0.18404733912E+02  0.12938425932E+03  0.10566000000E+00 0. -1.
          4    1    1    2  501    0 -0.18738058924E+02 -0.32879379908E+02  0.20963706689E+02  0.43262518114E+02  0.00000000000E+00 0.  1.
</event>
<event>
 5    1  0.1196676E-004  0.3849400E+02  0.7818608E-02  0.1347326E+00
          4   -1    0    0  502    0 -0.00000000000E+00  0.00000000000E+00  0.49672105672E+02  0.49672105672E+02  0.00000000000E+00 0.  1.
         21   -1    0    0  501  502  0.00000000000E+00 -0.00000000000E+00 -0.42306562521E+03  0.42306562521E+03  0.00000000000E+00 0. -1.
        -13    1    1    2    0    0  0.89244153720E+01 -0.36922226969E+02  0.38244701412E+02  0.53903287323E+02  0.10566000000E+00 0.  1.
         13    1    1    2    0    0 -0.54309263849E+01  0.55820812645E+02 -0.25979637121E+03  0.26578115761E+03  0.10566000000E+00 0. -1.
          4    1    1    2  501    0 -0.34934889871E+01 -0.18898585675E+02 -0.15184184974E+03  0.15305328595E+03  0.00000000000E+00 0.  1.
</event>
<event>
 5    1  0.1196676E-004  0.2797314E+03  0.7818608E-02  0.1017012E+00
         21   -1    0    0  501  502  0.00000000000E+00  0.00000000000E+00  0.37031949843E+03  0.37031949843E+03  0.00000000000E+00 0.  1.
          4   -1    0    0  502    0 -0.00000000000E+00 -0.00000000000E+00 -0.11996614818E+04  0.11996614818E+04  0.00000000000E+00 0.  1.
        -13    1    1    2    0    0 -0.30250496430E+03 -0.39875561200E+02 -0.91459924626E+03  0.96415305125E+03  0.10566000000E+00 0.  1.
         13    1    1    2    0    0  0.10518407230E+03  0.25002070127E+03 -0.67601197657E+02  0.27954243545E+03  0.10566000000E+00 0. -1.
          4    1    1    2  501    0  0.19732089200E+03 -0.21014514007E+03  0.15285846056E+03  0.32628549352E+03  0.00000000000E+00 0.  1.
</event>
<event>
 5    1  0.1196676E-004  0.5324059E+02  0.7818608E-02  0.1279129E+00
         21   -1    0    0  501  502  0.00000000000E+00  0.00000000000E+00  0.36624540568E+02  0.36624540568E+02  0.00000000000E+00 0. -1.
          4   -1    0    0  502    0 -0.00000000000E+00 -0.00000000000E+00 -0.18534268605E+03  0.18534268605E+03  0.00000000000E+00 0.  1.
        -13    1    1    2    0    0  0.49016574609E+02 -0.15151276889E+02 -0.13363732675E+03  0.14314723904E+03  0.10566000000E+00 0.  1.
         13    1    1    2    0    0 -0.60135538024E+02  0.22301928256E+02 -0.12129931338E+02  0.65274844586E+02  0.10566000000E+00 0. -1.
          4    1    1    2  501    0  0.11118963415E+02 -0.71506513671E+01 -0.29508873900E+01  0.13545142996E+02  0.00000000000E+00 0.  1.
</event>
<event>
 5    1  0.1196676E-004  0.3287346E+03  0.7818608E-02  0.1023868E+00
          4   -1    0    0  502    0 -0.00000000000E+00  0.00000000000E+00  0.92285509346E+03  0.92285509346E+03  0.00000000000E+00 0.  1.
         21   -1    0    0  501  502  0.00000000000E+00 -0.00000000000E+00 -0.38049471997E+03  0.38049471997E+03  0.00000000000E+00 0.  1.
        -13    1    1    2    0    0 -0.42745008559E+03  0.10446086813E+03  0.53145484789E+03  0.68997819904E+03  0.10566000000E+00 0.  1.
         13    1    1    2    0    0  0.13451864316E+03  0.64436405200E+01  0.20471179424E+03  0.24503819238E+03  0.10566000000E+00 0. -1.
          4    1    1    2  501    0  0.29293144244E+03 -0.11090450865E+03 -0.19380626864E+03  0.36833342201E+03  0.00000000000E+00 0.  1.
</event>
<event>
 5    1  0.1196676E-004  0.3555810E+03  0.7818608E-02  0.1053191E+00
         -4   -1    0    0    0  501 -0.00000000000E+00  0.00000000000E+00  0.14964959197E+04  0.14964959197E+04  0.00000000000E+00 0. -1.
         21   -1    0    0  501  502  0.00000000000E+00 -0.00000000000E+00 -0.18422574170E+03  0.18422574170E+03  0.00000000000E+00 0. -1.
        -13    1    1    2    0    0  0.43603280082E+02 -0.17730315318E+01  0.12749528466E+03  0.13475699777E+03  0.10566000000E+00 0.  1.
         13    1    1    2    0    0  0.22649349914E+03  0.24026580777E+03  0.11352039970E+04  0.11822500114E+04  0.10566000000E+00 0. -1.
         -4    1    1    2    0  502 -0.27009677922E+03 -0.23849277624E+03  0.49570896344E+02  0.36371465220E+03  0.00000000000E+00 0. -1.
</event>
<event>
 5    1  0.1196676E-004  0.4929316E+03  0.7818608E-02  0.9787554E-01
         21   -1    0    0  501  502  0.00000000000E+00  0.00000000000E+00  0.62033319261E+03  0.62033319261E+03  0.00000000000E+00 0. -1.
         -4   -1    0    0    0  501 -0.00000000000E+00 -0.00000000000E+00 -0.87456433756E+03  0.87456433756E+03  0.00000000000E+00 0. -1.
        -13    1    1    2    0    0 -0.61172945623E+02 -0.16368828859E+03 -0.43084763697E+03  0.46493621342E+03  0.10566000000E+00 0.  1.
         13    1    1    2    0    0 -0.12607332390E+03  0.56099356457E+03  0.84072072451E+02  0.58109929188E+03  0.10566000000E+00 0. -1.
         -4    1    1    2    0  502  0.18724626952E+03 -0.39730527598E+03  0.92544419577E+02  0.44886202487E+03  0.00000000000E+00 0. -1.
</event>
<event>
 5    1  0.1196676E-004  0.1369575E+03  0.7818608E-02  0.1114738E+00
         -4   -1    0    0    0  501 -0.00000000000E+00  0.00000000000E+00  0.88335075854E+03  0.88335075854E+03  0.00000000000E+00 0. -1.
         21   -1    0    0  501  502  0.00000000000E+00 -0.00000000000E+00 -0.65411406708E+02  0.65411406708E+02  0.00000000000E+00 0.  1.
        -13    1    1    2    0    0  0.60338180280E+02 -0.10603823317E+03  0.68977793185E+01  0.12219817272E+03  0.10566000000E+00 0.  1.
         13    1    1    2    0    0 -0.67573284114E+02  0.12097109700E+03  0.76866660307E+03  0.78105602416E+03  0.10566000000E+00 0. -1.
         -4    1    1    2    0  502  0.72351038339E+01 -0.14932863828E+02  0.42374969444E+02  0.45507968368E+02  0.00000000000E+00 0. -1.
</event>
<event>
 5    1  0.1196676E-004  0.4671125E+02  0.7818608E-02  0.1305790E+00
          4   -1    0    0  502    0 -0.00000000000E+00  0.00000000000E+00  0.18025775045E+03  0.18025775045E+03  0.00000000000E+00 0.  1.
         21   -1    0    0  501  502  0.00000000000E+00 -0.00000000000E+00 -0.29429381916E+02  0.29429381916E+02  0.00000000000E+00 0. -1.
        -13    1    1    2    0    0 -0.33125648789E+02 -0.38414763260E+02  0.13744563833E+03  0.14650705548E+03  0.10566000000E+00 0.  1.
         13    1    1    2    0    0  0.32854716460E+02  0.19241636074E+02  0.19856870247E+02  0.42941581393E+02  0.10566000000E+00 0. -1.
          4    1    1    2  501    0  0.27093232897E+00  0.19173127186E+02 -0.64741400485E+01  0.20238495492E+02  0.00000000000E+00 0.  1.
</event>
<event>
 5    1  0.1196676E-004  0.2819759E+03  0.7818608E-02  0.1015035E+00
         -4   -1    0    0    0  501 -0.00000000000E+00  0.00000000000E+00  0.33830603345E+03  0.33830603345E+03  0.00000000000E+00 0. -1.
         21   -1    0    0  501  502  0.00000000000E+00 -0.00000000000E+00 -0.64929596402E+03  0.64929596402E+03  0.00000000000E+00 0. -1.
        -13    1    1    2    0    0  0.76171927811E+02  0.22911429964E+03  0.70153777964E+02  0.25143008693E+03  0.10566000000E+00 0.  1.
         13    1    1    2    0    0 -0.17489755130E+03 -0.35609156239E+03 -0.95029253367E+02  0.40794720788E+03  0.10566000000E+00 0. -1.
         -4    1    1    2    0  502  0.98725623494E+02  0.12697726274E+03 -0.28611445516E+03  0.32822470266E+03  0.00000000000E+00 0. -1.
</event>
<event>
 5    1  0.2685342E-004  0.2212867E+03  0.7818608E-02  0.1071011E+00
         21   -1    0    0  501  502  0.00000000000E+00  0.00000000000E+00  0.26666865222E+03  0.26666865222E+03  0.00000000000E+00 0. -1.
         -4   -1    0    0    0  501 -0.00000000000E+00 -0.00000000000E+00 -0.15590783659E+04  0.15590783659E+04  0.00000000000E+00 0. -1.
        -13    1    1    2    0    0  0.42004065717E+02 -0.99352452696E+02 -0.57590460645E+03  0.58591925919E+03  0.10566000000E+00 0.  1.
         13    1    1    2    0    0 -0.23928751340E+03 -0.16162981252E+01 -0.91288013618E+03  0.94372203571E+03  0.10566000000E+00 0. -1.
         -4    1    1    2    0  502  0.19728344768E+03  0.10096875082E+03  0.19637502891E+03  0.29610572326E+03  0.00000000000E+00 0. -1.
</event>
<event>
 5    1  0.1196676E-004  0.4638028E+03  0.7818608E-02  0.9561045E-01
         21   -1    0    0  501  502  0.00000000000E+00  0.00000000000E+00  0.78384555641E+03  0.78384555641E+03  0.00000000000E+00 0.  1.
         -4   -1    0    0    0  501 -0.00000000000E+00 -0.00000000000E+00 -0.70214067153E+03  0.70214067153E+03  0.00000000000E+00 0. -1.
        -13    1    1    2    0    0  0.45369532284E+02 -0.37668200659E+03 -0.10384075939E+03  0.39335816125E+03  0.10566000000E+00 0.  1.
         13    1    1    2    0    0 -0.18577475670E+03  0.55893654908E+03 -0.21804752838E+03  0.62806612862E+03  0.10566000000E+00 0. -1.
         -4    1    1    2    0  502  0.14040522442E+03 -0.18225454249E+03  0.40359317264E+03  0.46456193807E+03  0.00000000000E+00 0. -1.
</event>
<event>
 5    1  0.1196676E-004  0.7391606E+03  0.7818608E-02  0.9157239E-01
         -4   -1    0    0    0  501 -0.00000000000E+00  0.00000000000E+00  0.25100628751E+04  0.25100628751E+04  0.00000000000E+00 0. -1.
         21   -1    0    0  501  502  0.00000000000E+00 -0.00000000000E+00 -0.42043660487E+03  0.42043660487E+03  0.00000000000E+00 0.  1.
        -13    1    1    2    0    0 -0.74555541005E+03 -0.15632706437E+03  0.87258655885E+03  0.11583170267E+04  0.10566000000E+00 0.  1.
         13    1    1    2    0    0  0.10294006867E+03  0.52157204263E+03  0.65506432116E+03  0.84364881878E+03  0.10566000000E+00 0. -1.
         -4    1    1    2    0  502  0.64261534138E+03 -0.36524497827E+03  0.56197539020E+03  0.92853363446E+03  0.00000000000E+00 0. -1.
</event>
<event>
 5    1  0.1196676E-004  0.2483643E+03  0.7818608E-02  0.1031244E+00
          4   -1    0    0  502    0 -0.00000000000E+00  0.00000000000E+00  0.81369791756E+03  0.81369791756E+03  0.00000000000E+00 0.  1.
         21   -1    0    0  501  502  0.00000000000E+00 -0.00000000000E+00 -0.61732906722E+03  0.61732906722E+03  0.00000000000E+00 0.  1.
        -13    1    1    2    0    0  0.29619709413E+02 -0.24399397777E+03  0.63762071300E+03  0.68335245166E+03  0.10566000000E+00 0.  1.
         13    1    1    2    0    0 -0.30666467240E+02  0.25909352429E+03  0.41934954307E+02  0.26425071069E+03  0.10566000000E+00 0. -1.
          4    1    1    2  501    0  0.10467578265E+01 -0.15099546520E+02 -0.48318681697E+03  0.48342382244E+03  0.00000000000E+00 0.  1.
</event>
<event>
 5    1  0.1196676E-004  0.4236493E+03  0.7818608E-02  0.9663954E-01
          4   -1    0    0  502    0 -0.00000000000E+00  0.00000000000E+00  0.35805666702E+04  0.35805666702E+04  0.00000000000E+00 0.  1.
         21   -1    0    0  501  502  0.00000000000E+00 -0.00000000000E+00 -0.31672619657E+03  0.31672619657E+03  0.00000000000E+00 0.  1.
        -13    1    1    2    0    0  0.29810982567E+03 -0.33538370079E+03 -0.59426040533E+02  0.45264021074E+03  0.10566000000E+00 0.  1.
         13    1    1    2    0    0  0.11745493154E+03  0.42085578343E+03  0.22206599692E+04  0.22632379375E+04  0.10566000000E+00 0. -1.
          4    1    1    2  501    0 -0.41556475721E+03 -0.85472082633E+02  0.11026065449E+04  0.11814147185E+04  0.00000000000E+00 0.  1.
</event>
<event>
 5    1  0.1196676E-004  0.4144914E+03  0.7818608E-02  0.9688101E-01
         -4   -1    0    0    0  501 -0.00000000000E+00  0.00000000000E+00  0.25396615403E+04  0.25396615403E+04  0.00000000000E+00 0. -1.
         21   -1    0    0  501  502  0.00000000000E+00 -0.00000000000E+00 -0.19631860433E+03  0.19631860433E+03  0.00000000000E+00 0. -1.
        -13    1    1    2    0    0  0.32635447902E+03 -0.18118884210E+03  0.96656224223E+03  0.10361366810E+04  0.10566000000E+00 0.  1.
         13    1    1    2    0    0 -0.55239180265E+03  0.21637338874E+03  0.44828262782E+03  0.74358017225E+03  0.10566000000E+00 0. -1.
         -4    1    1    2    0  502  0.22603732363E+03 -0.35184546635E+02  0.92849806588E+03  0.95626329133E+03  0.00000000000E+00 0. -1.
</event>
<event>
 5    1  0.1196676E-004  0.3620815E+03  0.7818608E-02  0.1006625E+00
         -4   -1    0    0    0  501 -0.00000000000E+00  0.00000000000E+00  0.25546463186E+04  0.25546463186E+04  0.00000000000E+00 0. -1.
         21   -1    0    0  501  502  0.00000000000E+00 -0.00000000000E+00 -0.11890689350E+03  0.11890689350E+03  0.00000000000E+00 0.  1.
        -13    1    1    2    0    0 -0.49998490920E+02  0.16710748517E+03  0.25416436725E+03  0.30826011327E+03  0.10566000000E+00 0.  1.
         13    1    1    2    0    0  0.27940153413E+03 -0.40430668080E+03  0.17743531649E+04  0.18411567761E+04  0.10566000000E+00 0. -1.
         -4    1    1    2    0  502 -0.22940304321E+03  0.23719919564E+03  0.40722189296E+03  0.52413632267E+03  0.00000000000E+00 0. -1.
</event>
<event>
 5    1  0.1196676E-004  0.1283305E+03  0.7818608E-02  0.1134828E+00
          4   -1    0    0  502    0 -0.00000000000E+00  0.00000000000E+00  0.13030407840E+04  0.13030407840E+04  0.00000000000E+00 0.  1.
         21   -1    0    0  501  502  0.00000000000E+00 -0.00000000000E+00 -0.70104869950E+02  0.70104869950E+02  0.00000000000E+00 0.  1.
        -13    1    1    2    0    0 -0.10466633669E+03  0.18245276002E+03  0.10918653014E+04  0.11119414999E+04  0.10566000000E+00 0.  1.
         13    1    1    2    0    0  0.19135681596E+02 -0.97040759282E+02  0.66234443791E+02  0.11903821227E+03  0.10566000000E+00 0. -1.
          4    1    1    2  501    0  0.85530655091E+02 -0.85412000739E+02  0.74836168881E+02  0.14216594178E+03  0.00000000000E+00 0.  1.
</event>
<event>
 5    1  0.1196676E-004  0.1848393E+03  0.7818608E-02  0.1071057E+00
         -4   -1    0    0    0  501 -0.00000000000E+00  0.00000000000E+00  0.24364784784E+03  0.24364784784E+03  0.00000000000E+00 0. -1.
         21   -1    0    0  501  502  0.00000000000E+00 -0.00000000000E+00 -0.61632232244E+03  0.61632232244E+03  0.00000000000E+00 0.  1.
        -13    1    1    2    0    0 -0.50742051167E+02 -0.22765807352E+03 -0.46601029108E+02  0.23785420171E+03  0.10566000000E+00 0.  1.
         13    1    1    2    0    0  0.14911360211E+03  0.10354201855E+03  0.70765271569E+02  0.19484237415E+03  0.10566000000E+00 0. -1.
         -4    1    1    2    0  502 -0.98371550946E+02  0.12411605497E+03 -0.39683871705E+03  0.42727359442E+03  0.00000000000E+00 0. -1.
</event>
<event>
 5    1  0.1196676E-004  0.3243784E+03  0.7818608E-02  0.1022743E+00
          4   -1    0    0  502    0 -0.00000000000E+00  0.00000000000E+00  0.35554863534E+03  0.35554863534E+03  0.00000000000E+00 0.  1.
         21   -1    0    0  501  502  0.00000000000E+00 -0.00000000000E+00 -0.96010598773E+03  0.96010598773E+03  0.00000000000E+00 0.  1.
        -13    1    1    2    0    0 -0.24586519299E+03 -0.15904532961E+03  0.18005755005E+03  0.34375258907E+03  0.10566000000E+00 0.  1.
         13    1    1    2    0    0  0.73810223281E+02 -0.12503792185E+03 -0.31173687533E+02  0.14850670328E+03  0.10566000000E+00 0. -1.
          4    1    1    2  501    0  0.17205496971E+03  0.28408325145E+03 -0.75344121489E+03  0.82339533073E+03  0.00000000000E+00 0.  1.
</event>
<event>
 5    1  0.1196676E-004  0.2325936E+03  0.7818608E-02  0.1040125E+00
          4   -1    0    0  502    0 -0.00000000000E+00  0.00000000000E+00  0.92472302230E+02  0.92472302230E+02  0.00000000000E+00 0.  1.
         21   -1    0    0  501  502  0.00000000000E+00 -0.00000000000E+00 -0.15217101622E+04  0.15217101622E+04  0.00000000000E+00 0. -1.
        -13    1    1    2    0    0 -0.17241906541E+03 -0.85550837863E+02 -0.23985187996E+03  0.30753246245E+03  0.10566000000E+00 0.  1.
         13    1    1    2    0    0  0.91576664144E+02 -0.21155133382E+03 -0.44688187739E+03  0.50283563493E+03  0.10566000000E+00 0. -1.
          4    1    1    2  501    0  0.80842401270E+02  0.29710217168E+03 -0.74250410261E+03  0.80381436704E+03  0.00000000000E+00 0.  1.
</event>
<event>
 5    1  0.1196676E-004  0.4316292E+03  0.7818608E-02  0.9850174E-01
         21   -1    0    0  501  502  0.00000000000E+00  0.00000000000E+00  0.92964579066E+03  0.92964579066E+03  0.00000000000E+00 0.  1.
          4   -1    0    0  502    0 -0.00000000000E+00 -0.00000000000E+00 -0.58675813527E+03  0.58675813527E+03  0.00000000000E+00 0.  1.
        -13    1    1    2    0    0 -0.32901904367E+03  0.40162187489E+03  0.86950238496E+02  0.52641620095E+03  0.10566000000E+00 0.  1.
         13    1    1    2    0    0 -0.34473755813E+02 -0.20750530043E+03 -0.25694732320E+03  0.33206750460E+03  0.10566000000E+00 0. -1.
          4    1    1    2  501    0  0.36349279948E+03 -0.19411657445E+03  0.51288474010E+03  0.65792022038E+03  0.00000000000E+00 0.  1.
</event>
<event>
 5    1  0.1196676E-004  0.3677638E+03  0.7818608E-02  0.9827061E-01
         21   -1    0    0  501  502  0.00000000000E+00  0.00000000000E+00  0.11763504574E+04  0.11763504574E+04  0.00000000000E+00 0.  1.
         -4   -1    0    0    0  501 -0.00000000000E+00 -0.00000000000E+00 -0.32658315754E+03  0.32658315754E+03  0.00000000000E+00 0. -1.
        -13    1    1    2    0    0 -0.47096795320E+02  0.31984742682E+03  0.87749153814E+03  0.93515340734E+03  0.10566000000E+00 0.  1.
         13    1    1    2    0    0  0.23779831426E+01 -0.37406279314E+03 -0.16862843323E+03  0.41032205361E+03  0.10566000000E+00 0. -1.
         -4    1    1    2    0  502  0.44718812177E+02  0.54215366320E+02  0.14090419498E+03  0.15745815403E+03  0.00000000000E+00 0. -1.
</event>
<event>
 5    1  0.1196676E-004  0.5396951E+03  0.7818608E-02  0.9922300E-01
         21   -1    0    0  501  502  0.00000000000E+00  0.00000000000E+00  0.18135202818E+03  0.18135202818E+03  0.00000000000E+00 0. -1.
         -4   -1    0    0    0  501 -0.00000000000E+00 -0.00000000000E+00 -0.20312916415E+04  0.20312916415E+04  0.00000000000E+00 0. -1.
        -13    1    1    2    0    0  0.26828689614E+02  0.80104148627E+02 -0.25301306706E+03  0.26674346568E+03  0.10566000000E+00 0.  1.
         13    1    1    2    0    0 -0.18621194150E+03 -0.56151040909E+03 -0.10076031235E+04  0.11684318090E+04  0.10566000000E+00 0. -1.
         -4    1    1    2    0  502  0.15938325188E+03  0.48140626046E+03 -0.58932342274E+03  0.77746839498E+03  0.00000000000E+00 0. -1.
</event>
<event>
 5    1  0.1196676E-004  0.2536357E+03  0.7818608E-02  0.1053542E+00
         21   -1    0    0  501  502  0.00000000000E+00  0.00000000000E+00  0.12482512418E+03  0.12482512418E+03  0.00000000000E+00 0.  1.
          4   -1    0    0  502    0 -0.00000000000E+00 -0.00000000000E+00 -0.17334750604E+04  0.17334750604E+04  0.00000000000E+00 0.  1.
        -13    1    1    2    0    0  0.29452995478E+03 -0.13009993998E+03 -0.11660110291E+04  0.12096510322E+04  0.10566000000E+00 0.  1.
         13    1    1    2    0    0 -0.11322570820E+03 -0.36633935919E+02 -0.37468795655E+03  0.39313252499E+03  0.10566000000E+00 0. -1.
          4    1    1    2  501    0 -0.18130424657E+03  0.16673387590E+03 -0.67950950640E+02  0.25551662742E+03  0.00000000000E+00 0.  1.
</event>
<event>
 5    1  0.1196676E-004  0.1285871E+03  0.7818608E-02  0.1124383E+00
         21   -1    0    0  501  502  0.00000000000E+00  0.00000000000E+00  0.40327383962E+03  0.40327383962E+03  0.00000000000E+00 0.  1.
          4   -1    0    0  502    0 -0.00000000000E+00 -0.00000000000E+00 -0.24255407346E+03  0.24255407346E+03  0.00000000000E+00 0.  1.
        -13    1    1    2    0    0  0.12945465920E+03 -0.19964731261E+02 -0.20181168724E+03  0.24059315775E+03  0.10566000000E+00 0.  1.
         13    1    1    2    0    0 -0.95898337523E+02  0.63315921652E+02  0.17109992203E+03  0.20610820351E+03  0.10566000000E+00 0. -1.
          4    1    1    2  501    0 -0.33556321674E+02 -0.43351190391E+02  0.19143153138E+03  0.19912655182E+03  0.00000000000E+00 0.  1.
</event>
<event>
 5    1  0.1196676E-004  0.4517740E+03  0.7818608E-02  0.9590441E-01
         -4   -1    0    0    0  501 -0.00000000000E+00  0.00000000000E+00  0.41646097123E+03  0.41646097123E+03  0.00000000000E+00 0. -1.
         21   -1    0    0  501  502  0.00000000000E+00 -0.00000000000E+00 -0.71907591505E+03  0.71907591505E+03  0.00000000000E+00 0.  1.
        -13    1    1    2    0    0  0.25512532129E+03 -0.35788724436E+03 -0.38435352207E+03  0.58386629491E+03  0.10566000000E+00 0.  1.
         13    1    1    2    0    0 -0.23768479016E+03  0.38949487634E+03  0.14505020413E+03  0.47879002814E+03  0.10566000000E+00 0. -1.
         -4    1    1    2    0  502 -0.17440531133E+02 -0.31607631980E+02 -0.63311625880E+02  0.72880563233E+02  0.00000000000E+00 0. -1.
</event>
<event>
 5    1  0.1196676E-004  0.5954047E+02  0.7818608E-02  0.1257182E+00
         -4   -1    0    0    0  501 -0.00000000000E+00  0.00000000000E+00  0.21238953390E+02  0.21238953390E+02  0.00000000000E+00 0. -1.
         21   -1    0    0  501  502  0.00000000000E+00 -0.00000000000E+00 -0.49426210394E+03  0.49426210394E+03  0.00000000000E+00 0. -1.
        -13    1    1    2    0    0  0.50266577134E+02 -0.15231092535E+02 -0.81059312161E+02  0.96588499360E+02  0.10566000000E+00 0.  1.
         13    1    1    2    0    0 -0.51855521889E+02  0.47910414906E+02 -0.86284957609E+02  0.11148770372E+03  0.10566000000E+00 0. -1.
         -4    1    1    2    0  502  0.15889447555E+01 -0.32679322371E+02 -0.30567888078E+03  0.30742485425E+03  0.00000000000E+00 0. -1.
</event>
<event>
 5    1  0.1196676E-004  0.3101016E+03  0.7818608E-02  0.1021435E+00
         -4   -1    0    0    0  501 -0.00000000000E+00  0.00000000000E+00  0.18827795301E+04  0.18827795301E+04  0.00000000000E+00 0. -1.
         21   -1    0    0  501  502  0.00000000000E+00 -0.00000000000E+00 -0.27252329202E+03  0.27252329202E+03  0.00000000000E+00 0. -1.
        -13    1    1    2    0    0  0.17134248153E+03 -0.24992528201E+02  0.87744385718E+03  0.89436603587E+03  0.10566000000E+00 0.  1.
         13    1    1    2    0    0 -0.20124100957E+03 -0.28401305813E+03  0.85821442346E+03  0.92611736239E+03  0.10566000000E+00 0. -1.
         -4    1    1    2    0  502  0.29898528043E+02  0.30900558633E+03 -0.12540204251E+03  0.33481942391E+03  0.00000000000E+00 0. -1.
</event>
<event>
 5    1  0.1196676E-004  0.4905130E+03  0.7818608E-02  0.9645662E-01
         21   -1    0    0  501  502  0.00000000000E+00  0.00000000000E+00  0.96265395401E+03  0.96265395401E+03  0.00000000000E+00 0. -1.
         -4   -1    0    0    0  501 -0.00000000000E+00 -0.00000000000E+00 -0.52194548090E+03  0.52194548090E+03  0.00000000000E+00 0. -1.
        -13    1    1    2    0    0 -0.96011483553E+02  0.27389261834E+03 -0.11372284304E+03  0.31171825027E+03  0.10566000000E+00 0.  1.
         13    1    1    2    0    0  0.51196397175E+03 -0.33583529522E+03  0.35042139288E+03  0.70546978507E+03  0.10566000000E+00 0. -1.
         -4    1    1    2    0  502 -0.41595248820E+03  0.61942676878E+02  0.20400992327E+03  0.46741139957E+03  0.00000000000E+00 0. -1.
</event>
<event>
 5    1  0.1196676E-004  0.4900500E+03  0.7818608E-02  0.9719862E-01
         21   -1    0    0  501  502  0.00000000000E+00  0.00000000000E+00  0.36881007187E+03  0.36881007187E+03  0.00000000000E+00 0. -1.
         -4   -1    0    0    0  501 -0.00000000000E+00 -0.00000000000E+00 -0.12092155421E+04  0.12092155421E+04  0.00000000000E+00 0. -1.
        -13    1    1    2    0    0  0.55674963318E+02  0.21755389739E+03 -0.42996572303E+03  0.48507724535E+03  0.10566000000E+00 0.  1.
         13    1    1    2    0    0 -0.37674754768E+03 -0.46986648632E+03 -0.20791799915E+03  0.63713666916E+03  0.10566000000E+00 0. -1.
         -4    1    1    2    0  502  0.32107258436E+03  0.25231258893E+03 -0.20252174810E+03  0.45581169952E+03  0.00000000000E+00 0. -1.
</event>
<event>
 5    1  0.1196676E-004  0.2596442E+03  0.7818608E-02  0.1025513E+00
          4   -1    0    0  502    0 -0.00000000000E+00  0.00000000000E+00  0.35015956903E+03  0.35015956903E+03  0.00000000000E+00 0.  1.
         21   -1    0    0  501  502  0.00000000000E+00 -0.00000000000E+00 -0.81888266594E+03  0.81888266594E+03  0.00000000000E+00 0. -1.
        -13    1    1    2    0    0 -0.15616830964E+02  0.25907964871E+03  0.24883978092E+03  0.35956556776E+03  0.10566000000E+00 0.  1.
         13    1    1    2    0    0  0.37074328979E+01 -0.26048690278E+03 -0.32405907602E+03  0.41579017244E+03  0.10566000000E+00 0. -1.
          4    1    1    2  501    0  0.11909398066E+02  0.14072540775E+01 -0.39350380181E+03  0.39368649477E+03  0.00000000000E+00 0.  1.
</event>
<event>
 5    1  0.1196676E-004  0.2613009E+03  0.7818608E-02  0.1024697E+00
         21   -1    0    0  501  502  0.00000000000E+00  0.00000000000E+00  0.13898708009E+03  0.13898708009E+03  0.00000000000E+00 0. -1.
         -4   -1    0    0    0  501 -0.00000000000E+00 -0.00000000000E+00 -0.10833624951E+04  0.10833624951E+04  0.00000000000E+00 0. -1.
        -13    1    1    2    0    0  0.13770444377E+03 -0.22350526181E+03 -0.85915651479E+03  0.89836910230E+03  0.10566000000E+00 0.  1.
         13    1    1    2    0    0 -0.17618740812E+03  0.19053512886E+03 -0.85725041547E+02  0.27330282110E+03  0.10566000000E+00 0. -1.
         -4    1    1    2    0  502  0.38482964354E+02  0.32970132951E+02  0.50614132320E+00  0.50677651793E+02  0.00000000000E+00 0. -1.
</event>
<event>
 5    1  0.1196676E-004  0.1390915E+03  0.7818608E-02  0.1112398E+00
         -4   -1    0    0    0  501 -0.00000000000E+00  0.00000000000E+00  0.57597021967E+03  0.57597021967E+03  0.00000000000E+00 0. -1.
         21   -1    0    0  501  502  0.00000000000E+00 -0.00000000000E+00 -0.15100637161E+03  0.15100637161E+03  0.00000000000E+00 0.  1.
        -13    1    1    2    0    0  0.44402425661E+02 -0.11354864932E+03  0.10037194783E+03  0.15792216513E+03  0.10566000000E+00 0.  1.
         13    1    1    2    0    0 -0.76435216328E+02  0.12547140689E+03  0.43202071769E+03  0.45631932670E+03  0.10566000000E+00 0. -1.
         -4    1    1    2    0  502  0.32032790667E+02 -0.11922757572E+02 -0.10742881746E+03  0.11273509944E+03  0.00000000000E+00 0. -1.
</event>
<event>
 5    1  0.1196676E-004  0.5150171E+03  0.7818608E-02  0.9476500E-01
         21   -1    0    0  501  502  0.00000000000E+00  0.00000000000E+00  0.21962105925E+03  0.21962105925E+03  0.00000000000E+00 0. -1.
         -4   -1    0    0    0  501 -0.00000000000E+00 -0.00000000000E+00 -0.38813888982E+04  0.38813888982E+04  0.00000000000E+00 0. -1.
        -13    1    1    2    0    0 -0.21617350924E+03  0.50024182589E+03 -0.20899938677E+04  0.21598720446E+04  0.10566000000E+00 0.  1.
         13    1    1    2    0    0  0.41647281226E+03  0.87960811501E+02 -0.10383456883E+04  0.11222069717E+04  0.10566000000E+00 0. -1.
         -4    1    1    2    0  502 -0.20029930302E+03 -0.58820263739E+03 -0.53342828283E+03  0.81893094113E+03  0.00000000000E+00 0. -1.
</event>
<event>
 5    1  0.1196676E-004  0.5239719E+03  0.7818608E-02  0.9789322E-01
         -4   -1    0    0    0  501 -0.00000000000E+00  0.00000000000E+00  0.21428967365E+04  0.21428967365E+04  0.00000000000E+00 0. -1.
         21   -1    0    0  501  502  0.00000000000E+00 -0.00000000000E+00 -0.23745530606E+03  0.23745530606E+03  0.00000000000E+00 0. -1.
        -13    1    1    2    0    0  0.49848819884E+02 -0.13575225764E+03  0.65149370631E+03  0.66735121250E+03  0.10566000000E+00 0.  1.
         13    1    1    2    0    0  0.35642167853E+03 -0.25097189754E+03  0.10124748015E+04  0.11023286902E+04  0.10566000000E+00 0. -1.
         -4    1    1    2    0  502 -0.40627049842E+03  0.38672415517E+03  0.24147292260E+03  0.61067213988E+03  0.00000000000E+00 0. -1.
</event>
<event>
 5    1  0.1196676E-004  0.7075561E+02  0.7818608E-02  0.1251194E+00
         21   -1    0    0  501  502  0.00000000000E+00  0.00000000000E+00  0.15367945177E+03  0.15367945177E+03  0.00000000000E+00 0. -1.
          4   -1    0    0  502    0 -0.00000000000E+00 -0.00000000000E+00 -0.15160098331E+03  0.15160098331E+03  0.00000000000E+00 0.  1.
        -13    1    1    2    0    0  0.10194773438E+03  0.59331776979E+01 -0.10834968121E+03  0.14888991814E+03  0.10566000000E+00 0.  1.
         13    1    1    2    0    0 -0.37207023722E+02  0.15207967383E+02  0.25805308335E+02  0.47765782611E+02  0.10566000000E+00 0. -1.
          4    1    1    2  501    0 -0.64740710660E+02 -0.21141145081E+02  0.84622841332E+02  0.10862473432E+03  0.00000000000E+00 0.  1.
</event>
<event>
 5    1  0.1196676E-004  0.1219565E+03  0.7818608E-02  0.1141984E+00
         -4   -1    0    0    0  501 -0.00000000000E+00  0.00000000000E+00  0.58992625550E+02  0.58992625550E+02  0.00000000000E+00 0. -1.
         21   -1    0    0  501  502  0.00000000000E+00 -0.00000000000E+00 -0.70258676043E+03  0.70258676043E+03  0.00000000000E+00 0.  1.
        -13    1    1    2    0    0  0.13001360402E+03  0.44274686085E+02 -0.13841037318E+03  0.19499032701E+03  0.10566000000E+00 0.  1.
         13    1    1    2    0    0 -0.60014213543E+02  0.85286106307E+02 -0.15626759030E+03  0.18786962686E+03  0.10566000000E+00 0. -1.
         -4    1    1    2    0  502 -0.69999390478E+02 -0.12956079239E+03 -0.34891617140E+03  0.37871943211E+03  0.00000000000E+00 0. -1.
</event>
<event>
 5    1  0.1196676E-004  0.4748579E+03  0.7818608E-02  0.9758621E-01
         21   -1    0    0  501  502  0.00000000000E+00  0.00000000000E+00  0.36889786477E+03  0.36889786477E+03  0.00000000000E+00 0. -1.
         -4   -1    0    0    0  501 -0.00000000000E+00 -0.00000000000E+00 -0.14842506975E+04  0.14842506975E+04  0.00000000000E+00 0. -1.
        -13    1    1    2    0    0 -0.20016326318E+03 -0.80852027426E+02 -0.74615958553E+03  0.77676027222E+03  0.10566000000E+00 0.  1.
         13    1    1    2    0    0 -0.33594442352E+03  0.27140352143E+03 -0.84090560460E+02  0.43998836424E+03  0.10566000000E+00 0. -1.
         -4    1    1    2    0  502  0.53610768670E+03 -0.19055149401E+03 -0.28510268677E+03  0.63639992584E+03  0.00000000000E+00 0. -1.
</event>
<event>
 5    1  0.1196676E-004  0.5356554E+03  0.7818608E-02  0.9403069E-01
         21   -1    0    0  501  502  0.00000000000E+00  0.00000000000E+00  0.21679365266E+03  0.21679365266E+03  0.00000000000E+00 0. -1.
         -4   -1    0    0    0  501 -0.00000000000E+00 -0.00000000000E+00 -0.24146105639E+04  0.24146105639E+04  0.00000000000E+00 0. -1.
        -13    1    1    2    0    0  0.38180794919E+03 -0.13509625628E+03 -0.54669873197E+03  0.68037329697E+03  0.10566000000E+00 0.  1.
         13    1    1    2    0    0 -0.65254625069E+03  0.21202208965E+03 -0.14529571024E+04  0.16068149639E+04  0.10566000000E+00 0. -1.
         -4    1    1    2    0  502  0.27073830150E+03 -0.76925833365E+02 -0.19816107689E+03  0.34421595566E+03  0.00000000000E+00 0. -1.
</event>
<event>
 5    1  0.1196676E-004  0.1844697E+03  0.7818608E-02  0.1071338E+00
         -4   -1    0    0    0  501 -0.00000000000E+00  0.00000000000E+00  0.15944875534E+04  0.15944875534E+04  0.00000000000E+00 0. -1.
         21   -1    0    0  501  502  0.00000000000E+00 -0.00000000000E+00 -0.28468705714E+02  0.28468705714E+02  0.00000000000E+00 0.  1.
        -13    1    1    2    0    0  0.13206071292E+02 -0.19227862279E+03  0.66602877769E+03  0.69335403149E+03  0.10566000000E+00 0.  1.
         13    1    1    2    0    0 -0.29791766446E+02  0.17688847220E+03  0.88369963696E+03  0.90172176445E+03  0.10566000000E+00 0. -1.
         -4    1    1    2    0  502  0.16585695154E+02  0.15390150592E+02  0.16290433042E+02  0.27880463190E+02  0.00000000000E+00 0. -1.
</event>
<event>
 5    1  0.1196676E-004  0.4490692E+02  0.7818608E-02  0.1314040E+00
         21   -1    0    0  501  502  0.00000000000E+00  0.00000000000E+00  0.31794128201E+03  0.31794128201E+03  0.00000000000E+00 0. -1.
          4   -1    0    0  502    0 -0.00000000000E+00 -0.00000000000E+00 -0.11886999170E+02  0.11886999170E+02  0.00000000000E+00 0.  1.
        -13    1    1    2    0    0  0.44922060476E+01 -0.47195687529E+02  0.48710034739E+02  0.67972726036E+02  0.10566000000E+00 0.  1.
         13    1    1    2    0    0 -0.57350422797E+01  0.35413188082E+02  0.21056914191E+03  0.21360327546E+03  0.10566000000E+00 0. -1.
          4    1    1    2  501    0  0.12428362321E+01  0.11782499447E+02  0.46775106198E+02  0.48252279686E+02  0.00000000000E+00 0.  1.
</event>
<event>
 5    1  0.1196676E-004  0.4659394E+03  0.7818608E-02  0.9580486E-01
         21   -1    0    0  501  502  0.00000000000E+00  0.00000000000E+00  0.29220927442E+03  0.29220927442E+03  0.00000000000E+00 0.  1.
          4   -1    0    0  502    0 -0.00000000000E+00 -0.00000000000E+00 -0.19746022433E+04  0.19746022433E+04  0.00000000000E+00 0.  1.
        -13    1    1    2    0    0 -0.36143223080E+03 -0.48936135209E+03 -0.83206171686E+03  0.10307446348E+04  0.10566000000E+00 0.  1.
         13    1    1    2    0    0  0.42461377209E+03  0.42153249015E+02 -0.53925462057E+03  0.68765493441E+03  0.10566000000E+00 0. -1.
          4    1    1    2  501    0 -0.63181541280E+02  0.44720810307E+03 -0.31107663145E+03  0.54841194849E+03  0.00000000000E+00 0.  1.
</event>
<event>
 5    1  0.1196676E-004  0.5325280E+02  0.7818608E-02  0.1279083E+00
         21   -1    0    0  501  502  0.00000000000E+00  0.00000000000E+00  0.27524882224E+02  0.27524882224E+02  0.00000000000E+00 0.  1.
         -4   -1    0    0    0  501 -0.00000000000E+00 -0.00000000000E+00 -0.27109024168E+03  0.27109024168E+03  0.00000000000E+00 0. -1.
        -13    1    1    2    0    0  0.37099624759E+02  0.47404897982E+02 -0.79283313456E+02  0.99546278015E+02  0.10566000000E+00 0.  1.
         13    1    1    2    0    0 -0.39123675529E+02 -0.32825625224E+02 -0.17406025490E+03  0.18139781465E+03  0.10566000000E+00 0. -1.
         -4    1    1    2    0  502  0.20240507703E+01 -0.14579272758E+02  0.97782089052E+01  0.17671031239E+02  0.00000000000E+00 0. -1.
</event>
<event>
 5    1  0.1196676E-004  0.3984421E+03  0.7818608E-02  0.9946182E-01
         21   -1    0    0  501  502  0.00000000000E+00  0.00000000000E+00  0.16638715907E+03  0.16638715907E+03  0.00000000000E+00 0.  1.
          4   -1    0    0  502    0 -0.00000000000E+00 -0.00000000000E+00 -0.23399473983E+04  0.23399473983E+04  0.00000000000E+00 0.  1.
        -13    1    1    2    0    0 -0.19864167876E+03  0.51414512775E+03 -0.14188234750E+04  0.15221247628E+04  0.10566000000E+00 0.  1.
         13    1    1    2    0    0  0.31179911259E+02 -0.19140292287E+03 -0.51076846642E+03  0.54634394222E+03  0.10566000000E+00 0. -1.
          4    1    1    2  501    0  0.16746176751E+03 -0.32274220487E+03 -0.24396829782E+03  0.43786585243E+03  0.00000000000E+00 0.  1.
</event>
<event>
 5    1  0.1196676E-004  0.2521626E+02  0.7818608E-02  0.1448027E+00
          4   -1    0    0  502    0 -0.00000000000E+00  0.00000000000E+00  0.17616800606E+03  0.17616800606E+03  0.00000000000E+00 0.  1.
         21   -1    0    0  501  502  0.00000000000E+00 -0.00000000000E+00 -0.20303710254E+02  0.20303710254E+02  0.00000000000E+00 0. -1.
        -13    1    1    2    0    0 -0.24279153784E+02 -0.13736062724E+01  0.13519512913E+03  0.13736483614E+03  0.10566000000E+00 0.  1.
         13    1    1    2    0    0  0.34769368774E+02  0.15227505828E+02  0.15214041250E+02  0.40893326520E+02  0.10566000000E+00 0. -1.
          4    1    1    2  501    0 -0.10490214989E+02 -0.13853899556E+02  0.54551254285E+01  0.18213553658E+02  0.00000000000E+00 0.  1.
</event>
<event>
 5    1  0.1196676E-004  0.4393938E+03  0.7818608E-02  0.9621725E-01
         21   -1    0    0  501  502  0.00000000000E+00  0.00000000000E+00  0.10495946105E+03  0.10495946105E+03  0.00000000000E+00 0. -1.
         -4   -1    0    0    0  501 -0.00000000000E+00 -0.00000000000E+00 -0.22898514006E+04  0.22898514006E+04  0.00000000000E+00 0. -1.
        -13    1    1    2    0    0  0.43327761803E+03  0.40233739433E+02 -0.85241120970E+03  0.95705440267E+03  0.10566000000E+00 0.  1.
         13    1    1    2    0    0 -0.42725918988E+03 -0.13102826834E+03 -0.11516959918E+04  0.12353633033E+04  0.10566000000E+00 0. -1.
         -4    1    1    2    0  502 -0.60184281548E+01  0.90794528908E+02 -0.18078473801E+03  0.20239315565E+03  0.00000000000E+00 0. -1.
</event>
<event>
 5    1  0.1196676E-004  0.2976170E+03  0.7818608E-02  0.1008294E+00
         21   -1    0    0  501  502  0.00000000000E+00  0.00000000000E+00  0.67526230263E+03  0.67526230263E+03  0.00000000000E+00 0.  1.
         -4   -1    0    0    0  501 -0.00000000000E+00 -0.00000000000E+00 -0.35134490193E+03  0.35134490193E+03  0.00000000000E+00 0. -1.
        -13    1    1    2    0    0 -0.22306163477E+03 -0.57878112736E+02  0.39353097447E+03  0.45604057700E+03  0.10566000000E+00 0.  1.
         13    1    1    2    0    0  0.31171751985E+03 -0.25910232500E+02 -0.21591868507E+03  0.38007899449E+03  0.10566000000E+00 0. -1.
         -4    1    1    2    0  502 -0.88655885081E+02  0.83788345236E+02  0.14630511130E+03  0.19048763306E+03  0.00000000000E+00 0. -1.
</event>
<event>
 5    1  0.1196676E-004  0.2096547E+03  0.7818608E-02  0.1053711E+00
          4   -1    0    0  502    0 -0.00000000000E+00  0.00000000000E+00  0.17294810531E+03  0.17294810531E+03  0.00000000000E+00 0.  1.
         21   -1    0    0  501  502  0.00000000000E+00 -0.00000000000E+00 -0.55624021586E+03  0.55624021586E+03  0.00000000000E+00 0. -1.
        -13    1    1    2    0    0  0.20550427492E+03  0.53868820491E+01  0.32626419018E+02  0.20814783182E+03  0.10566000000E+00 0.  1.
         13    1    1    2    0    0 -0.21884231832E+03 -0.74503990698E+02 -0.24838719400E+03  0.33932140254E+03  0.10566000000E+00 0. -1.
          4    1    1    2  501    0  0.13338043400E+02  0.69117108649E+02 -0.16753133558E+03  0.18171908681E+03  0.00000000000E+00 0.  1.
</event>
<event>
 5    1  0.1196676E-004  0.4672697E+03  0.7818608E-02  0.9772816E-01
         21   -1    0    0  501  502  0.00000000000E+00  0.00000000000E+00  0.81447098145E+03  0.81447098145E+03  0.00000000000E+00 0.  1.
          4   -1    0    0  502    0 -0.00000000000E+00 -0.00000000000E+00 -0.48837541249E+03  0.48837541249E+03  0.00000000000E+00 0.  1.
        -13    1    1    2    0    0  0.53911246841E+03  0.14454626401E+03 -0.28161606665E+02  0.55886399355E+03  0.10566000000E+00 0.  1.
         13    1    1    2    0    0 -0.10648516175E+03 -0.18766930949E+03  0.15529579092E+03  0.26584892936E+03  0.10566000000E+00 0. -1.
          4    1    1    2  501    0 -0.43262730666E+03  0.43123045480E+02  0.19896138471E+03  0.47813347103E+03  0.00000000000E+00 0.  1.
</event>
<event>
 5    1  0.1196676E-004  0.4909477E+03  0.7818608E-02  0.9500161E-01
         -4   -1    0    0    0  501 -0.00000000000E+00  0.00000000000E+00  0.29272740251E+04  0.29272740251E+04  0.00000000000E+00 0. -1.
         21   -1    0    0  501  502  0.00000000000E+00 -0.00000000000E+00 -0.22122039299E+03  0.22122039299E+03  0.00000000000E+00 0.  1.
        -13    1    1    2    0    0  0.10097786446E+03 -0.47659133961E+03  0.67794759673E+03  0.83483458791E+03  0.10566000000E+00 0.  1.
         13    1    1    2    0    0 -0.55051905842E+03  0.25701060489E+03  0.12266431785E+04  0.13688605419E+04  0.10566000000E+00 0. -1.
         -4    1    1    2    0  502  0.44954119396E+03  0.21958073472E+03  0.80146285684E+03  0.94479928822E+03  0.00000000000E+00 0. -1.
</event>
<event>
 5    1  0.1196676E-004  0.3333422E+03  0.7818608E-02  0.9944216E-01
         21   -1    0    0  501  502  0.00000000000E+00  0.00000000000E+00  0.47320799755E+03  0.47320799755E+03  0.00000000000E+00 0. -1.
         -4   -1    0    0    0  501 -0.00000000000E+00 -0.00000000000E+00 -0.32774998465E+04  0.32774998465E+04  0.00000000000E+00 0. -1.
        -13    1    1    2    0    0 -0.26216221360E+03  0.22934141860E+03 -0.15235319924E+04  0.15628423643E+04  0.10566000000E+00 0.  1.
         13    1    1    2    0    0  0.27153073305E+03 -0.17561881686E+03 -0.17175284617E+04  0.17477056205E+04  0.10566000000E+00 0. -1.
         -4    1    1    2    0  502 -0.93685194473E+01 -0.53722601736E+02  0.43676860528E+03  0.44015985920E+03  0.00000000000E+00 0. -1.
</event>
<event>
 5    1  0.1196676E-004  0.2497490E+03  0.7818608E-02  0.1030523E+00
         21   -1    0    0  501  502  0.00000000000E+00  0.00000000000E+00  0.32724841575E+03  0.32724841575E+03  0.00000000000E+00 0. -1.
          4   -1    0    0  502    0 -0.00000000000E+00 -0.00000000000E+00 -0.39320569758E+03  0.39320569758E+03  0.00000000000E+00 0.  1.
        -13    1    1    2    0    0  0.19264294256E+03  0.16335905834E+03 -0.25032644980E+03  0.35561331232E+03  0.10566000000E+00 0.  1.
         13    1    1    2    0    0 -0.15554573089E+03 -0.18704577106E+03  0.87652492723E+02  0.25857990161E+03  0.10566000000E+00 0. -1.
          4    1    1    2  501    0 -0.37097211674E+02  0.23686712719E+02  0.96716675249E+02  0.10626089942E+03  0.00000000000E+00 0.  1.
</event>
<event>
 5    1  0.1196676E-004  0.4371410E+02  0.7818608E-02  0.1319738E+00
         -4   -1    0    0    0  501 -0.00000000000E+00  0.00000000000E+00  0.38656904995E+02  0.38656904995E+02  0.00000000000E+00 0. -1.
         21   -1    0    0  501  502  0.00000000000E+00 -0.00000000000E+00 -0.17297928555E+03  0.17297928555E+03  0.00000000000E+00 0. -1.
        -13    1    1    2    0    0  0.33208316068E+02  0.20420288036E+02 -0.18116265630E+02  0.42988261932E+02  0.10566000000E+00 0.  1.
         13    1    1    2    0    0 -0.27747974735E+02 -0.40399228094E+02  0.15981135740E+01  0.49036852096E+02  0.10566000000E+00 0. -1.
         -4    1    1    2    0  502 -0.54603413332E+01  0.19978940057E+02 -0.11780422850E+03  0.11961107652E+03  0.00000000000E+00 0. -1.
</event>
<event>
 5    1  0.1196676E-004  0.3171367E+03  0.7818608E-02  0.1000472E+00
         -4   -1    0    0    0  501 -0.00000000000E+00  0.00000000000E+00  0.19732729626E+04  0.19732729626E+04  0.00000000000E+00 0. -1.
         21   -1    0    0  501  502  0.00000000000E+00 -0.00000000000E+00 -0.75091616508E+02  0.75091616508E+02  0.00000000000E+00 0. -1.
        -13    1    1    2    0    0  0.12133202309E+03 -0.29986417764E+03  0.73323727488E+03  0.80142179737E+03  0.10566000000E+00 0.  1.
         13    1    1    2    0    0 -0.13594279171E+03  0.28256848733E+03  0.11792053039E+04  0.12201846387E+04  0.10566000000E+00 0. -1.
         -4    1    1    2    0  502  0.14610768614E+02  0.17295690306E+02 -0.14261232659E+02  0.26758143052E+02  0.00000000000E+00 0. -1.
</event>
<event>
 5    1  0.1196676E-004  0.6030679E+02  0.7818608E-02  0.1254721E+00
         21   -1    0    0  501  502  0.00000000000E+00  0.00000000000E+00  0.17030647830E+03  0.17030647830E+03  0.00000000000E+00 0.  1.
          4   -1    0    0  502    0 -0.00000000000E+00 -0.00000000000E+00 -0.46179422436E+02  0.46179422436E+02  0.00000000000E+00 0.  1.
        -13    1    1    2    0    0  0.33816030172E+02 -0.61572200800E+02 -0.27066762136E+01  0.70299339031E+02  0.10566000000E+00 0.  1.
         13    1    1    2    0    0 -0.26695334956E+02  0.30158481446E+02  0.65020400192E+02  0.76484237047E+02  0.10566000000E+00 0. -1.
          4    1    1    2  501    0 -0.71206952167E+01  0.31413719354E+02  0.61813331890E+02  0.69702324662E+02  0.00000000000E+00 0.  1.
</event>
<event>
 5    1  0.1196676E-004  0.1396964E+03  0.7818608E-02  0.1111743E+00
         21   -1    0    0  501  502  0.00000000000E+00  0.00000000000E+00  0.71334371252E+02  0.71334371252E+02  0.00000000000E+00 0. -1.
          4   -1    0    0  502    0 -0.00000000000E+00 -0.00000000000E+00 -0.61393896599E+03  0.61393896599E+03  0.00000000000E+00 0.  1.
        -13    1    1    2    0    0  0.12789957029E+03  0.55674567096E+02 -0.48506467110E+03  0.50472339337E+03  0.10566000000E+00 0.  1.
         13    1    1    2    0    0 -0.13363187794E+03 -0.44984561694E+02 -0.74676598825E+02  0.15955467768E+03  0.10566000000E+00 0. -1.
          4    1    1    2  501    0  0.57323076521E+01 -0.10690005401E+02  0.17136675184E+02  0.20995266201E+02  0.00000000000E+00 0.  1.
</event>
<event>
 5    1  0.1196676E-004  0.3807240E+03  0.7818608E-02  0.9900099E-01
          4   -1    0    0  502    0 -0.00000000000E+00  0.00000000000E+00  0.27340999243E+04  0.27340999243E+04  0.00000000000E+00 0.  1.
         21   -1    0    0  501  502  0.00000000000E+00 -0.00000000000E+00 -0.16455443820E+03  0.16455443820E+03  0.00000000000E+00 0.  1.
        -13    1    1    2    0    0 -0.53194257955E+02  0.39017881042E+03  0.19089104615E+04  0.19491044852E+04  0.10566000000E+00 0.  1.
         13    1    1    2    0    0  0.25359265240E+03 -0.53341844586E+02  0.40767165628E+03  0.48306394632E+03  0.10566000000E+00 0. -1.
          4    1    1    2  501    0 -0.20039839445E+03 -0.33683696584E+03  0.25296336832E+03  0.46648593094E+03  0.00000000000E+00 0.  1.
</event>
<event>
 5    1  0.1196676E-004  0.4485272E+03  0.7818608E-02  0.9784795E-01
         -4   -1    0    0    0  501 -0.00000000000E+00  0.00000000000E+00  0.60529555951E+03  0.60529555951E+03  0.00000000000E+00 0. -1.
         21   -1    0    0  501  502  0.00000000000E+00 -0.00000000000E+00 -0.80428641765E+03  0.80428641765E+03  0.00000000000E+00 0. -1.
        -13    1    1    2    0    0  0.19560201971E+03  0.12871567257E+03  0.21640716836E+03  0.31884157219E+03  0.10566000000E+00 0.  1.
         13    1    1    2    0    0  0.27973010927E+03  0.74500675349E+02  0.14883189829E+03  0.32549996893E+03  0.10566000000E+00 0. -1.
         -4    1    1    2    0  502 -0.47533212898E+03 -0.20321634792E+03 -0.56422992479E+03  0.76524043603E+03  0.00000000000E+00 0. -1.
</event>
<event>
 5    1  0.1196676E-004  0.4247107E+03  0.7818608E-02  0.9660277E-01
         -4   -1    0    0    0  501 -0.00000000000E+00  0.00000000000E+00  0.70228496138E+03  0.70228496138E+03  0.00000000000E+00 0. -1.
         21   -1    0    0  501  502  0.00000000000E+00 -0.00000000000E+00 -0.69690839181E+03  0.69690839181E+03  0.00000000000E+00 0.  1.
        -13    1    1    2    0    0  0.28181934473E+03 -0.19647625268E+03  0.92146052310E+02  0.35569083071E+03  0.10566000000E+00 0.  1.
         13    1    1    2    0    0 -0.31474659573E+03  0.43990795499E+03  0.27454093946E+03  0.60659473044E+03  0.10566000000E+00 0. -1.
         -4    1    1    2    0  502  0.32927250996E+02 -0.24343170231E+03 -0.36131042220E+03  0.43690779203E+03  0.00000000000E+00 0. -1.
</event>
<event>
 5    1  0.1196676E-004  0.2907005E+03  0.7818608E-02  0.1011220E+00
         21   -1    0    0  501  502  0.00000000000E+00  0.00000000000E+00  0.11568224490E+04  0.11568224490E+04  0.00000000000E+00 0. -1.
          4   -1    0    0  502    0 -0.00000000000E+00 -0.00000000000E+00 -0.18288064571E+03  0.18288064571E+03  0.00000000000E+00 0.  1.
        -13    1    1    2    0    0 -0.21301309869E+03  0.18438697146E+03  0.42980831027E+01  0.28176518617E+03  0.10566000000E+00 0.  1.
         13    1    1    2    0    0  0.24085964182E+03 -0.22813770831E+03  0.60823796690E+03  0.69283014986E+03  0.10566000000E+00 0. -1.
          4    1    1    2  501    0 -0.27846543125E+02  0.43750736849E+02  0.36140575333E+03  0.36510775872E+03  0.00000000000E+00 0.  1.
</event>
<event>
 5    1  0.1196676E-004  0.4020307E+03  0.7818608E-02  0.1002026E+00
         21   -1    0    0  501  502  0.00000000000E+00  0.00000000000E+00  0.48861609661E+03  0.48861609661E+03  0.00000000000E+00 0. -1.
         -4   -1    0    0    0  501 -0.00000000000E+00 -0.00000000000E+00 -0.98206938465E+03  0.98206938465E+03  0.00000000000E+00 0. -1.
        -13    1    1    2    0    0  0.82637679655E-01  0.14795968770E+03 -0.43643470395E+03  0.46083330825E+03  0.10566000000E+00 0.  1.
         13    1    1    2    0    0 -0.22256996006E+03  0.30459941147E+03  0.21772866098E+03  0.43557315065E+03  0.10566000000E+00 0. -1.
         -4    1    1    2    0  502  0.22248732238E+03 -0.45255909917E+03 -0.27474724507E+03  0.57427902237E+03  0.00000000000E+00 0. -1.
</event>
<event>
 5    1  0.1196676E-004  0.4742750E+03  0.7818608E-02  0.9824592E-01
         21   -1    0    0  501  502  0.00000000000E+00  0.00000000000E+00  0.15347826269E+03  0.15347826269E+03  0.00000000000E+00 0.  1.
          4   -1    0    0  502    0 -0.00000000000E+00 -0.00000000000E+00 -0.25202843046E+04  0.25202843046E+04  0.00000000000E+00 0.  1.
        -13    1    1    2    0    0  0.50264661485E+02 -0.38047322286E+03 -0.14530581444E+04  0.15028853554E+04  0.10566000000E+00 0.  1.
         13    1    1    2    0    0 -0.85537140878E+02 -0.15027403006E+03 -0.10316318181E+03  0.20134929805E+03  0.10566000000E+00 0. -1.
          4    1    1    2  501    0  0.35272479393E+02  0.53074725292E+03 -0.81058471572E+03  0.96952791380E+03  0.00000000000E+00 0.  1.
</event>
<event>
 5    1  0.1196676E-004  0.4768758E+03  0.7818608E-02  0.9798408E-01
         21   -1    0    0  501  502  0.00000000000E+00  0.00000000000E+00  0.15137954769E+03  0.15137954769E+03  0.00000000000E+00 0.  1.
          4   -1    0    0  502    0 -0.00000000000E+00 -0.00000000000E+00 -0.25874127262E+04  0.25874127262E+04  0.00000000000E+00 0.  1.
        -13    1    1    2    0    0  0.26059798906E+03  0.46401533274E+03 -0.51464355373E+03  0.74032394226E+03  0.10566000000E+00 0.  1.
         13    1    1    2    0    0 -0.30042637565E+02 -0.18352369612E+03 -0.60663120687E+03  0.63449581514E+03  0.10566000000E+00 0. -1.
          4    1    1    2  501    0 -0.23055535150E+03 -0.28049163661E+03 -0.13147584179E+04  0.13639725165E+04  0.00000000000E+00 0.  1.
</event>
<event>
 5    1  0.1196676E-004  0.4719137E+03  0.7818608E-02  0.9793454E-01
         21   -1    0    0  501  502  0.00000000000E+00  0.00000000000E+00  0.18951603439E+04  0.18951603439E+04  0.00000000000E+00 0. -1.
         -4   -1    0    0    0  501 -0.00000000000E+00 -0.00000000000E+00 -0.19171324521E+03  0.19171324521E+03  0.00000000000E+00 0. -1.
        -13    1    1    2    0    0  0.15499544301E+03  0.11860805853E+03  0.28514986519E+03  0.34554582284E+03  0.10566000000E+00 0.  1.
         13    1    1    2    0    0  0.33654530465E+03 -0.25377617584E+03  0.31582727479E+03  0.52669912490E+03  0.10566000000E+00 0. -1.
         -4    1    1    2    0  502 -0.49154074766E+03  0.13516811731E+03  0.11024699587E+04  0.12146286414E+04  0.00000000000E+00 0. -1.
</event>
<event>
 5    1  0.1196676E-004  0.2806743E+03  0.7818608E-02  0.1058912E+00
         21   -1    0    0  501  502  0.00000000000E+00  0.00000000000E+00  0.99440570069E+03  0.99440570069E+03  0.00000000000E+00 0. -1.
         -4   -1    0    0    0  501 -0.00000000000E+00 -0.00000000000E+00 -0.51198175991E+03  0.51198175991E+03  0.00000000000E+00 0. -1.
        -13    1    1    2    0    0 -0.72700063124E+02  0.18411316906E+02 -0.25352620972E+03  0.26438575216E+03  0.10566000000E+00 0.  1.
         13    1    1    2    0    0  0.19489205322E-02  0.27900804152E+03  0.86563896618E+03  0.90949234091E+03  0.10566000000E+00 0. -1.
         -4    1    1    2    0  502  0.72698114203E+02 -0.29741935843E+03 -0.12968881568E+03  0.33250936752E+03  0.00000000000E+00 0. -1.
</event>
<event>
 5    1  0.1196676E-004  0.4230894E+02  0.7818608E-02  0.1326718E+00
         -4   -1    0    0    0  501 -0.00000000000E+00  0.00000000000E+00  0.14137064939E+03  0.14137064939E+03  0.00000000000E+00 0. -1.
         21   -1    0    0  501  502  0.00000000000E+00 -0.00000000000E+00 -0.29581180900E+02  0.29581180900E+02  0.00000000000E+00 0.  1.
        -13    1    1    2    0    0 -0.29711779874E+02  0.27125663551E+02  0.15797278307E+02  0.43222177783E+02  0.10566000000E+00 0.  1.
         13    1    1    2    0    0  0.11109647859E+02 -0.43604335142E+02  0.92195042777E+02  0.10258995758E+03  0.10566000000E+00 0. -1.
         -4    1    1    2    0  502  0.18602132015E+02  0.16478671591E+02  0.37971474094E+01  0.25139694934E+02  0.00000000000E+00 0. -1.
</event>
<event>
 5    1  0.1196676E-004  0.1929338E+03  0.7818608E-02  0.1065091E+00
         -4   -1    0    0    0  501 -0.00000000000E+00  0.00000000000E+00  0.22460109337E+03  0.22460109337E+03  0.00000000000E+00 0. -1.
         21   -1    0    0  501  502  0.00000000000E+00 -0.00000000000E+00 -0.21272611278E+03  0.21272611278E+03  0.00000000000E+00 0.  1.
        -13    1    1    2    0    0 -0.11775532451E+03 -0.14290572516E+03  0.31262079020E+02  0.18779161718E+03  0.10566000000E+00 0.  1.
         13    1    1    2    0    0  0.12728668485E+03  0.15663803807E+03  0.23793224905E+02  0.20323263474E+03  0.10566000000E+00 0. -1.
         -4    1    1    2    0  502 -0.95313603349E+01 -0.13732312908E+02 -0.43180323334E+02  0.46302954234E+02  0.00000000000E+00 0. -1.
</event>
<event>
 5    1  0.1196676E-004  0.4235292E+03  0.7818608E-02  0.9663451E-01
         21   -1    0    0  501  502  0.00000000000E+00  0.00000000000E+00  0.46227381274E+03  0.46227381274E+03  0.00000000000E+00 0. -1.
         -4   -1    0    0    0  501 -0.00000000000E+00 -0.00000000000E+00 -0.13494098778E+04  0.13494098778E+04  0.00000000000E+00 0. -1.
        -13    1    1    2    0    0 -0.39170373335E+03  0.76932384842E+02 -0.55654302027E+03  0.68490185510E+03  0.10566000000E+00 0.  1.
         13    1    1    2    0    0  0.33762230924E+03 -0.45451451463E+03 -0.45415744778E+03  0.72583143102E+03  0.10566000000E+00 0. -1.
         -4    1    1    2    0  502  0.54081424102E+02  0.37758212979E+03  0.12356440294E+03  0.40095040447E+03  0.00000000000E+00 0. -1.
</event>
<event>
 5    1  0.1413418E-004  0.4543513E+03  0.7818608E-02  0.1040095E+00
         21   -1    0    0  501  502  0.00000000000E+00  0.00000000000E+00  0.18731785155E+03  0.18731785155E+03  0.00000000000E+00 0.  1.
          4   -1    0    0  502    0 -0.00000000000E+00 -0.00000000000E+00 -0.14669743316E+04  0.14669743316E+04  0.00000000000E+00 0.  1.
        -13    1    1    2    0    0 -0.36208323995E+02 -0.46763183849E+03 -0.92215062121E+03  0.10345783482E+04  0.10566000000E+00 0.  1.
         13    1    1    2    0    0  0.24330585005E+02  0.19136687371E+02 -0.94981683827E+02  0.99898556530E+02  0.10566000000E+00 0. -1.
          4    1    1    2  501    0  0.11877738990E+02  0.44849515112E+03 -0.26252417499E+03  0.51981527846E+03  0.00000000000E+00 0.  1.
</event>
<event>
 5    1  0.1196676E-004  0.4658374E+03  0.7818608E-02  0.1011780E+00
         -4   -1    0    0    0  501 -0.00000000000E+00  0.00000000000E+00  0.14451399504E+03  0.14451399504E+03  0.00000000000E+00 0. -1.
         21   -1    0    0  501  502  0.00000000000E+00 -0.00000000000E+00 -0.20848236678E+04  0.20848236678E+04  0.00000000000E+00 0. -1.
        -13    1    1    2    0    0  0.50622097817E+02 -0.47454591606E+02 -0.24376513220E+03  0.25344819174E+03  0.10566000000E+00 0.  1.
         13    1    1    2    0    0 -0.31783934668E+03 -0.33986297588E+03 -0.12220030806E+04  0.13076009456E+04  0.10566000000E+00 0. -1.
         -4    1    1    2    0  502  0.26721724886E+03  0.38731756749E+03 -0.47454145998E+03  0.66828852557E+03  0.00000000000E+00 0. -1.
</event>
<event>
 5    1  0.1196676E-004  0.6840665E+02  0.7818608E-02  0.1230971E+00
         21   -1    0    0  501  502  0.00000000000E+00  0.00000000000E+00  0.30852450295E+03  0.30852450295E+03  0.00000000000E+00 0.  1.
          4   -1    0    0  502    0 -0.00000000000E+00 -0.00000000000E+00 -0.12356442050E+03  0.12356442050E+03  0.00000000000E+00 0.  1.
        -13    1    1    2    0    0 -0.67371004723E+02  0.29964735354E+02 -0.10322009736E+03  0.12685084668E+03  0.10566000000E+00 0.  1.
         13    1    1    2    0    0  0.28392009831E+02 -0.31426287953E+02  0.58230956144E+02  0.72003980544E+02  0.10566000000E+00 0. -1.
          4    1    1    2  501    0  0.38978994891E+02  0.14615525988E+01  0.22994922366E+03  0.23323409622E+03  0.00000000000E+00 0.  1.
</event>
<event>
 5    1  0.1196676E-004  0.2772917E+03  0.7818608E-02  0.1017145E+00
         -4   -1    0    0    0  501 -0.00000000000E+00  0.00000000000E+00  0.75047758613E+03  0.75047758613E+03  0.00000000000E+00 0. -1.
         21   -1    0    0  501  502  0.00000000000E+00 -0.00000000000E+00 -0.28014315242E+03  0.28014315242E+03  0.00000000000E+00 0.  1.
        -13    1    1    2    0    0  0.11515890856E+03  0.23963380843E+03  0.11369529408E+03  0.28915837775E+03  0.10566000000E+00 0.  1.
         13    1    1    2    0    0 -0.12695692468E+03 -0.25183382100E+03  0.51234290526E+03  0.58483638554E+03  0.10566000000E+00 0. -1.
         -4    1    1    2    0  502  0.11798016121E+02  0.12200012569E+02 -0.15570376564E+03  0.15662597526E+03  0.00000000000E+00 0. -1.
</event>
<event>
 5    1  0.1196676E-004  0.5503804E+02  0.7818608E-02  0.1272533E+00
         21   -1    0    0  501  502  0.00000000000E+00  0.00000000000E+00  0.79278719886E+03  0.79278719886E+03  0.00000000000E+00 0.  1.
          4   -1    0    0  502    0 -0.00000000000E+00 -0.00000000000E+00 -0.14769293157E+02  0.14769293157E+02  0.00000000000E+00 0.  1.
        -13    1    1    2    0    0 -0.53519401769E+02  0.22560195640E+02  0.71483871655E+02  0.92104526837E+02  0.10566000000E+00 0.  1.
         13    1    1    2    0    0  0.49518465088E+02 -0.93754463645E+01  0.14076412498E+03  0.14951430508E+03  0.10566000000E+00 0. -1.
          4    1    1    2  501    0  0.40009366811E+01 -0.13184749275E+02  0.56576990907E+03  0.56593766010E+03  0.00000000000E+00 0.  1.
</event>
<event>
 5    1  0.1196676E-004  0.5992357E+02  0.7818608E-02  0.1255946E+00
         21   -1    0    0  501  502  0.00000000000E+00  0.00000000000E+00  0.21141587986E+03  0.21141587986E+03  0.00000000000E+00 0. -1.
          4   -1    0    0  502    0 -0.00000000000E+00 -0.00000000000E+00 -0.33097316220E+02  0.33097316220E+02  0.00000000000E+00 0.  1.
        -13    1    1    2    0    0 -0.16537385463E+02  0.74864262912E+02  0.10753255819E+03  0.13206591238E+03  0.10566000000E+00 0.  1.
         13    1    1    2    0    0  0.28774920064E+02 -0.46003370964E+02  0.33648100440E+02  0.63847568411E+02  0.10566000000E+00 0. -1.
          4    1    1    2  501    0 -0.12237534601E+02 -0.28860891947E+02  0.37137905011E+02  0.48599715284E+02  0.00000000000E+00 0.  1.
</event>
<event>
 5    1  0.1241532E-004  0.2224736E+03  0.7818608E-02  0.1058296E+00
         21   -1    0    0  501  502  0.00000000000E+00  0.00000000000E+00  0.17855137326E+04  0.17855137326E+04  0.00000000000E+00 0.  1.
          4   -1    0    0  502    0 -0.00000000000E+00 -0.00000000000E+00 -0.19262450196E+03  0.19262450196E+03  0.00000000000E+00 0.  1.
        -13    1    1    2    0    0 -0.15288965384E+03  0.51092735608E+02 -0.10972924492E+03  0.19500315956E+03  0.10566000000E+00 0.  1.
         13    1    1    2    0    0  0.41166619274E+02  0.14770229814E+03  0.15223152724E+03  0.21606737021E+03  0.10566000000E+00 0. -1.
          4    1    1    2  501    0  0.11172303457E+03 -0.19879503375E+03  0.15503869483E+04  0.15670677048E+04  0.00000000000E+00 0.  1.
</event>
<event>
 5    1  0.1196676E-004  0.1148106E+03  0.7818608E-02  0.1149172E+00
         21   -1    0    0  501  502  0.00000000000E+00  0.00000000000E+00  0.99481363501E+02  0.99481363501E+02  0.00000000000E+00 0.  1.
          4   -1    0    0  502    0 -0.00000000000E+00 -0.00000000000E+00 -0.30943047562E+03  0.30943047562E+03  0.00000000000E+00 0.  1.
        -13    1    1    2    0    0  0.14905345254E+03  0.42851485629E+02 -0.98263829177E+02  0.18360003492E+03  0.10566000000E+00 0.  1.
         13    1    1    2    0    0 -0.56684229231E+02 -0.77868227483E+02 -0.46442903065E+02  0.10692762554E+03  0.10566000000E+00 0. -1.
          4    1    1    2  501    0 -0.92369223307E+02  0.35016741853E+02 -0.65242379875E+02  0.11838417866E+03  0.00000000000E+00 0.  1.
</event>
<event>
 5    1  0.1196676E-004  0.4078314E+02  0.7818608E-02  0.1334653E+00
         -4   -1    0    0    0  501 -0.00000000000E+00  0.00000000000E+00  0.26037440967E+02  0.26037440967E+02  0.00000000000E+00 0. -1.
         21   -1    0    0  501  502  0.00000000000E+00 -0.00000000000E+00 -0.30768035098E+03  0.30768035098E+03  0.00000000000E+00 0. -1.
        -13    1    1    2    0    0 -0.22053445750E+02 -0.29675578609E+02 -0.12562952824E+03  0.13095718371E+03  0.10566000000E+00 0.  1.
         13    1    1    2    0    0  0.14887343675E+02  0.38748995807E+02  0.45701281449E+01  0.41761404587E+02  0.10566000000E+00 0. -1.
         -4    1    1    2    0  502  0.71661020749E+01 -0.90734171977E+01 -0.16058350992E+03  0.16099920365E+03  0.00000000000E+00 0. -1.
</event>
<event>
 5    1  0.1196676E-004  0.2438873E+03  0.7818608E-02  0.1033610E+00
          4   -1    0    0  502    0 -0.00000000000E+00  0.00000000000E+00  0.17117978350E+04  0.17117978350E+04  0.00000000000E+00 0.  1.
         21   -1    0    0  501  502  0.00000000000E+00 -0.00000000000E+00 -0.58675142902E+02  0.58675142902E+02  0.00000000000E+00 0. -1.
        -13    1    1    2    0    0  0.70667603265E+02  0.23078024242E+03  0.12342935617E+04  0.12576700832E+04  0.10566000000E+00 0.  1.
         13    1    1    2    0    0 -0.68787224932E+02 -0.24169903455E+03  0.42937499091E+03  0.49750678348E+03  0.10566000000E+00 0. -1.
          4    1    1    2  501    0 -0.18803783331E+01  0.10918792129E+02 -0.10545860551E+02  0.15296111238E+02  0.00000000000E+00 0.  1.
</event>
<event>
 5    1  0.1196676E-004  0.4243274E+03  0.7818608E-02  0.9920566E-01
         -4   -1    0    0    0  501 -0.00000000000E+00  0.00000000000E+00  0.19277630474E+04  0.19277630474E+04  0.00000000000E+00 0. -1.
         21   -1    0    0  501  502  0.00000000000E+00 -0.00000000000E+00 -0.19079550571E+03  0.19079550571E+03  0.00000000000E+00 0. -1.
        -13    1    1    2    0    0  0.13909355873E+03  0.10590146647E+03  0.12516960671E+03  0.21501065157E+03  0.10566000000E+00 0.  1.
         13    1    1    2    0    0 -0.24082924220E+03 -0.48314761965E+03  0.12863595322E+04  0.13950452335E+04  0.10566000000E+00 0. -1.
         -4    1    1    2    0  502  0.10173568347E+03  0.37724615318E+03  0.32543840271E+03  0.50850266797E+03  0.00000000000E+00 0. -1.
</event>
<event>
 5    1  0.1196676E-004  0.3915665E+03  0.7818608E-02  0.9753723E-01
         21   -1    0    0  501  502  0.00000000000E+00  0.00000000000E+00  0.46047020086E+03  0.46047020086E+03  0.00000000000E+00 0. -1.
         -4   -1    0    0    0  501 -0.00000000000E+00 -0.00000000000E+00 -0.16733425373E+04  0.16733425373E+04  0.00000000000E+00 0. -1.
        -13    1    1    2    0    0  0.37167561238E+03  0.54429482174E+02 -0.97209976081E+03  0.10421531968E+04  0.10566000000E+00 0.  1.
         13    1    1    2    0    0 -0.58114183559E+03  0.27215478488E+02  0.18474183165E+03  0.61040648004E+03  0.10566000000E+00 0. -1.
         -4    1    1    2    0  502  0.20946622321E+03 -0.81644960662E+02 -0.42551440725E+03  0.48125306134E+03  0.00000000000E+00 0. -1.
</event>
<event>
 5    1  0.1196676E-004  0.4969007E+03  0.7818608E-02  0.9625178E-01
         21   -1    0    0  501  502  0.00000000000E+00  0.00000000000E+00  0.27430987679E+03  0.27430987679E+03  0.00000000000E+00 0.  1.
          4   -1    0    0  502    0 -0.00000000000E+00 -0.00000000000E+00 -0.16541398334E+04  0.16541398334E+04  0.00000000000E+00 0.  1.
        -13    1    1    2    0    0  0.24374981952E+03 -0.59577497971E+03 -0.55541200376E+03  0.85020250884E+03  0.10566000000E+00 0.  1.
         13    1    1    2    0    0 -0.22231130561E+03  0.20162064991E+03 -0.34756692923E+03  0.45921235233E+03  0.10566000000E+00 0. -1.
          4    1    1    2  501    0 -0.21438513915E+02  0.39415432980E+03 -0.47685102363E+03  0.61903484903E+03  0.00000000000E+00 0.  1.
</event>
<event>
 5    1  0.1196676E-004  0.4991563E+03  0.7818608E-02  0.9517804E-01
          4   -1    0    0  502    0 -0.00000000000E+00  0.00000000000E+00  0.13327754237E+04  0.13327754237E+04  0.00000000000E+00 0.  1.
         21   -1    0    0  501  502  0.00000000000E+00 -0.00000000000E+00 -0.63740358361E+03  0.63740358361E+03  0.00000000000E+00 0.  1.
        -13    1    1    2    0    0 -0.78159981603E+02 -0.59190211406E+03 -0.15614921079E+03  0.61712209695E+03  0.10566000000E+00 0.  1.
         13    1    1    2    0    0 -0.30066057731E+03  0.31409572712E+03  0.75832582708E+03  0.87413441742E+03  0.10566000000E+00 0. -1.
          4    1    1    2  501    0  0.37882055892E+03  0.27780638694E+03  0.93195223776E+02  0.47892249291E+03  0.00000000000E+00 0.  1.
</event>
<event>
 5    1  0.1196676E-004  0.3882710E+03  0.7818608E-02  0.9967120E-01
         -4   -1    0    0    0  501 -0.00000000000E+00  0.00000000000E+00  0.18701443429E+04  0.18701443429E+04  0.00000000000E+00 0. -1.
         21   -1    0    0  501  502  0.00000000000E+00 -0.00000000000E+00 -0.22512824708E+03  0.22512824708E+03  0.00000000000E+00 0. -1.
        -13    1    1    2    0    0  0.11622501535E+03 -0.15726240419E+03  0.62332331816E+03  0.65327765008E+03  0.10566000000E+00 0.  1.
         13    1    1    2    0    0  0.34385710642E+03 -0.10200993212E+03  0.88015295042E+02  0.36931076239E+03  0.10566000000E+00 0. -1.
         -4    1    1    2    0  502 -0.46008212178E+03  0.25927233631E+03  0.93367748267E+03  0.10726841776E+04  0.00000000000E+00 0. -1.
</event>
<event>
 5    1  0.1196676E-004  0.4633321E+03  0.7818608E-02  0.9562178E-01
          4   -1    0    0  502    0 -0.00000000000E+00  0.00000000000E+00  0.22600466840E+04  0.22600466840E+04  0.00000000000E+00 0.  1.
         21   -1    0    0  501  502  0.00000000000E+00 -0.00000000000E+00 -0.58565768391E+03  0.58565768391E+03  0.00000000000E+00 0.  1.
        -13    1    1    2    0    0  0.47252430174E+03  0.99326469217E+02  0.36622993023E+03  0.60602750448E+03  0.10566000000E+00 0.  1.
         13    1    1    2    0    0 -0.28097232486E+03 -0.39854656045E+03  0.16657138385E+04  0.17356230614E+04  0.10566000000E+00 0. -1.
          4    1    1    2  501    0 -0.19155197688E+03  0.29922009123E+03 -0.35755476862E+03  0.50405380209E+03  0.00000000000E+00 0.  1.
</event>
<event>
 5    1  0.1196676E-004  0.7237171E+02  0.7818608E-02  0.1220639E+00
         21   -1    0    0  501  502  0.00000000000E+00  0.00000000000E+00  0.16188747649E+03  0.16188747649E+03  0.00000000000E+00 0.  1.
          4   -1    0    0  502    0 -0.00000000000E+00 -0.00000000000E+00 -0.50357455606E+03  0.50357455606E+03  0.00000000000E+00 0.  1.
        -13    1    1    2    0    0 -0.54102177168E+02  0.70667489670E+02 -0.16216091379E+03  0.18497868201E+03  0.10566000000E+00 0.  1.
         13    1    1    2    0    0  0.27989547686E+02 -0.61733272769E+02 -0.32521493816E+03  0.33220352032E+03  0.10566000000E+00 0. -1.
          4    1    1    2  501    0  0.26112629482E+02 -0.89342169013E+01  0.14568877239E+03  0.14827983022E+03  0.00000000000E+00 0.  1.
</event>
<event>
 5    1  0.1196676E-004  0.1827986E+03  0.7818608E-02  0.1088599E+00
         21   -1    0    0  501  502  0.00000000000E+00  0.00000000000E+00  0.11834321375E+03  0.11834321375E+03  0.00000000000E+00 0. -1.
         -4   -1    0    0    0  501 -0.00000000000E+00 -0.00000000000E+00 -0.79070901590E+03  0.79070901590E+03  0.00000000000E+00 0. -1.
        -13    1    1    2    0    0  0.10229797376E+03 -0.56170954210E+02 -0.31396873789E+03  0.33495735709E+03  0.10566000000E+00 0.  1.
         13    1    1    2    0    0  0.15144122851E+03 -0.39192965751E+02 -0.51643626124E+02  0.16473496757E+03  0.10566000000E+00 0. -1.
         -4    1    1    2    0  502 -0.25373920227E+03  0.95363919961E+02 -0.30675343814E+03  0.40935990498E+03  0.00000000000E+00 0. -1.
</event>
<event>
 5    1  0.1196676E-004  0.4946766E+03  0.7818608E-02  0.9489717E-01
         21   -1    0    0  501  502  0.00000000000E+00  0.00000000000E+00  0.13220095191E+03  0.13220095191E+03  0.00000000000E+00 0.  1.
         -4   -1    0    0    0  501 -0.00000000000E+00 -0.00000000000E+00 -0.21628804043E+04  0.21628804043E+04  0.00000000000E+00 0. -1.
        -13    1    1    2    0    0  0.36419941790E+03  0.32114693753E+03 -0.94874846489E+03  0.10657862038E+04  0.10566000000E+00 0.  1.
         13    1    1    2    0    0 -0.42222171923E+03 -0.27975026366E+03 -0.99812127693E+03  0.11192754285E+04  0.10566000000E+00 0. -1.
         -4    1    1    2    0  502  0.58022301332E+02 -0.41396673869E+02 -0.83809710581E+02  0.11001972390E+03  0.00000000000E+00 0. -1.
</event>
<event>
 5    1  0.1196676E-004  0.6474508E+02  0.7818608E-02  0.1241229E+00
          4   -1    0    0  502    0 -0.00000000000E+00  0.00000000000E+00  0.23171308861E+03  0.23171308861E+03  0.00000000000E+00 0.  1.
         21   -1    0    0  501  502  0.00000000000E+00 -0.00000000000E+00 -0.26421762765E+02  0.26421762765E+02  0.00000000000E+00 0.  1.
        -13    1    1    2    0    0 -0.73234247734E+02  0.62056199561E+01  0.11886141206E+03  0.13974910089E+03  0.10566000000E+00 0.  1.
         13    1    1    2    0    0  0.52753561254E+02 -0.19611132533E+02  0.56941982623E+02  0.80062071503E+02  0.10566000000E+00 0. -1.
          4    1    1    2  501    0  0.20480686480E+02  0.13405512577E+02  0.29487931167E+02  0.38323678981E+02  0.00000000000E+00 0.  1.
</event>
<event>
 5    1  0.1196676E-004  0.3966349E+03  0.7818608E-02  0.9856684E-01
          4   -1    0    0  502    0 -0.00000000000E+00  0.00000000000E+00  0.10328594453E+04  0.10328594453E+04  0.00000000000E+00 0.  1.
         21   -1    0    0  501  502  0.00000000000E+00 -0.00000000000E+00 -0.42026349480E+03  0.42026349480E+03  0.00000000000E+00 0.  1.
        -13    1    1    2    0    0  0.35181675687E+03 -0.48358072342E+03  0.46956638661E+03  0.76034067962E+03  0.10566000000E+00 0.  1.
         13    1    1    2    0    0 -0.20919507890E+03  0.16297785730E+03  0.20661138815E+03  0.33617352644E+03  0.10566000000E+00 0. -1.
          4    1    1    2  501    0 -0.14262167797E+03  0.32060286612E+03 -0.63581824285E+02  0.35660873401E+03  0.00000000000E+00 0.  1.
</event>
<event>
 5    1  0.1196676E-004  0.6728398E+02  0.7818608E-02  0.1234039E+00
         21   -1    0    0  501  502  0.00000000000E+00  0.00000000000E+00  0.12949720594E+04  0.12949720594E+04  0.00000000000E+00 0. -1.
         -4   -1    0    0    0  501 -0.00000000000E+00 -0.00000000000E+00 -0.79783188708E+01  0.79783188708E+01  0.00000000000E+00 0. -1.
        -13    1    1    2    0    0 -0.61988093254E+02 -0.95215876294E+00  0.33870468418E+03  0.34433167813E+03  0.10566000000E+00 0.  1.
         13    1    1    2    0    0  0.66144153615E+02  0.38245708056E+02  0.31181864095E+03  0.32104308005E+03  0.10566000000E+00 0. -1.
         -4    1    1    2    0  502 -0.41560603614E+01 -0.37293549294E+02  0.63647041541E+03  0.63757562011E+03  0.00000000000E+00 0. -1.
</event>
<event>
 5    1  0.1196676E-004  0.1581103E+03  0.7818608E-02  0.1093377E+00
         -4   -1    0    0    0  501 -0.00000000000E+00  0.00000000000E+00  0.29572807158E+03  0.29572807158E+03  0.00000000000E+00 0. -1.
         21   -1    0    0  501  502  0.00000000000E+00 -0.00000000000E+00 -0.71019205520E+03  0.71019205520E+03  0.00000000000E+00 0. -1.
        -13    1    1    2    0    0  0.12657909463E+03  0.75888403256E+02  0.15232946422E+03  0.21209807585E+03  0.10566000000E+00 0.  1.
         13    1    1    2    0    0 -0.19986297677E+03 -0.28026308451E+02  0.17902433679E+02  0.20261093688E+03  0.10566000000E+00 0. -1.
         -4    1    1    2    0  502  0.73283882133E+02 -0.47862094806E+02 -0.58469588153E+03  0.59121111405E+03  0.00000000000E+00 0. -1.
</event>
<event>
 5    1  0.1196676E-004  0.5898484E+03  0.7818608E-02  0.9300201E-01
          4   -1    0    0  502    0 -0.00000000000E+00  0.00000000000E+00  0.25233656964E+04  0.25233656964E+04  0.00000000000E+00 0.  1.
         21   -1    0    0  501  502  0.00000000000E+00 -0.00000000000E+00 -0.70609165166E+03  0.70609165166E+03  0.00000000000E+00 0.  1.
        -13    1    1    2    0    0  0.34606621629E+02  0.68937856090E+03 -0.35644419939E+03  0.77684805267E+03  0.10566000000E+00 0.  1.
         13    1    1    2    0    0 -0.31140673828E+03 -0.49916016001E+03  0.19785319296E+04  0.20641520365E+04  0.10566000000E+00 0. -1.
          4    1    1    2  501    0  0.27680011665E+03 -0.19021840090E+03  0.19518631445E+03  0.38845725886E+03  0.00000000000E+00 0.  1.
</event>
<event>
 5    1  0.1196676E-004  0.4386046E+03  0.7818608E-02  0.9623756E-01
         21   -1    0    0  501  502  0.00000000000E+00  0.00000000000E+00  0.29952807815E+03  0.29952807815E+03  0.00000000000E+00 0.  1.
          4   -1    0    0  502    0 -0.00000000000E+00 -0.00000000000E+00 -0.21087636574E+04  0.21087636574E+04  0.00000000000E+00 0.  1.
        -13    1    1    2    0    0  0.26921620933E+03 -0.34253294671E+03 -0.13019381183E+04  0.13728980523E+04  0.10566000000E+00 0.  1.
         13    1    1    2    0    0 -0.18050138601E+03  0.41656155320E+03 -0.68598365994E+03  0.82260432215E+03  0.10566000000E+00 0. -1.
          4    1    1    2  501    0 -0.88714823317E+02 -0.74028606484E+02  0.17868619903E+03  0.21278936106E+03  0.00000000000E+00 0.  1.
</event>
<event>
 5    1  0.1196676E-004  0.1797311E+03  0.7818608E-02  0.1074996E+00
         -4   -1    0    0    0  501 -0.00000000000E+00  0.00000000000E+00  0.16240365297E+04  0.16240365297E+04  0.00000000000E+00 0. -1.
         21   -1    0    0  501  502  0.00000000000E+00 -0.00000000000E+00 -0.36689734149E+02  0.36689734149E+02  0.00000000000E+00 0.  1.
        -13    1    1    2    0    0  0.77356788897E+02  0.15297416958E+03  0.53923867563E+03  0.56582994778E+03  0.10566000000E+00 0.  1.
         13    1    1    2    0    0 -0.93728652052E+02 -0.15935078812E+03  0.10584733371E+04  0.10744968824E+04  0.10566000000E+00 0. -1.
         -4    1    1    2    0  502  0.16371863154E+02  0.63766185472E+01 -0.10365217135E+02  0.20399433656E+02  0.00000000000E+00 0. -1.
</event>
<event>
 5    1  0.1196676E-004  0.1250363E+03  0.7818608E-02  0.1128719E+00
         21   -1    0    0  501  502  0.00000000000E+00  0.00000000000E+00  0.28642667869E+03  0.28642667869E+03  0.00000000000E+00 0. -1.
         -4   -1    0    0    0  501 -0.00000000000E+00 -0.00000000000E+00 -0.29855852289E+03  0.29855852289E+03  0.00000000000E+00 0. -1.
        -13    1    1    2    0    0 -0.18502199474E+02  0.16150365261E+03 -0.10803948050E+02  0.16291868416E+03  0.10566000000E+00 0.  1.
         13    1    1    2    0    0  0.13701079908E+02 -0.11615829274E+03 -0.19265503465E+03  0.22538066044E+03  0.10566000000E+00 0. -1.
         -4    1    1    2    0  502  0.48011195659E+01 -0.45345359870E+02  0.19132713850E+03  0.19668585698E+03  0.00000000000E+00 0. -1.
</event>
<event>
 5    1  0.1196676E-004  0.4274808E+03  0.7818608E-02  0.9652879E-01
          4   -1    0    0  502    0 -0.00000000000E+00  0.00000000000E+00  0.15732607773E+04  0.15732607773E+04  0.00000000000E+00 0.  1.
         21   -1    0    0  501  502  0.00000000000E+00 -0.00000000000E+00 -0.35703163909E+03  0.35703163909E+03  0.00000000000E+00 0. -1.
        -13    1    1    2    0    0  0.28236512454E+03  0.41097480595E+03  0.10360598543E+04  0.11498044997E+04  0.10566000000E+00 0.  1.
         13    1    1    2    0    0  0.40125502261E+02 -0.36732714883E+03  0.25195094192E+03  0.44723436641E+03  0.10566000000E+00 0. -1.
          4    1    1    2  501    0 -0.32249062680E+03 -0.43647657123E+02 -0.71781658015E+02  0.33325355028E+03  0.00000000000E+00 0.  1.
</event>
<event>
 5    1  0.1196676E-004  0.3183190E+03  0.7818608E-02  0.1000018E+00
         -4   -1    0    0    0  501 -0.00000000000E+00  0.00000000000E+00  0.22406275568E+04  0.22406275568E+04  0.00000000000E+00 0. -1.
         21   -1    0    0  501  502  0.00000000000E+00 -0.00000000000E+00 -0.21836708375E+03  0.21836708375E+03  0.00000000000E+00 0. -1.
        -13    1    1    2    0    0 -0.21928793626E+01 -0.42062132202E+03  0.21139540841E+03  0.47076016730E+03  0.10566000000E+00 0.  1.
         13    1    1    2    0    0 -0.60406364936E+02  0.30288740540E+03  0.18279001838E+04  0.18538092681E+04  0.10566000000E+00 0. -1.
         -4    1    1    2    0  502  0.62599244298E+02  0.11773391662E+03 -0.17035119153E+02  0.13442520520E+03  0.00000000000E+00 0. -1.
</event>
<event>
 5    1  0.1196676E-004  0.4626940E+02  0.7818608E-02  0.1331892E+00
         21   -1    0    0  501  502  0.00000000000E+00  0.00000000000E+00  0.15610120790E+03  0.15610120790E+03  0.00000000000E+00 0.  1.
          4   -1    0    0  502    0 -0.00000000000E+00 -0.00000000000E+00 -0.50806875011E+02  0.50806875011E+02  0.00000000000E+00 0.  1.
        -13    1    1    2    0    0 -0.31048293499E+02 -0.64787164578E+02  0.75092697386E+01  0.72234157566E+02  0.10566000000E+00 0.  1.
         13    1    1    2    0    0  0.99486502875E+01  0.27651978144E+02  0.15982975207E+01  0.29430821545E+02  0.10566000000E+00 0. -1.
          4    1    1    2  501    0  0.21099643211E+02  0.37135186434E+02  0.96186765632E+02  0.10524310380E+03  0.00000000000E+00 0.  1.
</event>
<event>
 5    1  0.1679257E-004  0.3355963E+03  0.7818608E-02  0.9936092E-01
         21   -1    0    0  501  502  0.00000000000E+00  0.00000000000E+00  0.52737340703E+03  0.52737340703E+03  0.00000000000E+00 0. -1.
         -4   -1    0    0    0  501 -0.00000000000E+00 -0.00000000000E+00 -0.12680160458E+04  0.12680160458E+04  0.00000000000E+00 0. -1.
        -13    1    1    2    0    0  0.41657194029E+03 -0.97402663473E+02 -0.54232609157E+03  0.69075108472E+03  0.10566000000E+00 0.  1.
         13    1    1    2    0    0 -0.19496115014E+03  0.24762652160E+03 -0.56717562863E+03  0.64885818878E+03  0.10566000000E+00 0. -1.
         -4    1    1    2    0  502 -0.22161079015E+03 -0.15022385813E+03  0.36885908146E+03  0.45578017930E+03  0.00000000000E+00 0. -1.
</event>
<event>
 5    1  0.1196676E-004  0.4318338E+02  0.7818608E-02  0.1351933E+00
         21   -1    0    0  501  502  0.00000000000E+00  0.00000000000E+00  0.47605388634E+03  0.47605388634E+03  0.00000000000E+00 0.  1.
          4   -1    0    0  502    0 -0.00000000000E+00 -0.00000000000E+00 -0.17123174388E+02  0.17123174388E+02  0.00000000000E+00 0.  1.
        -13    1    1    2    0    0 -0.47722834766E+02  0.22927315397E+02  0.97511871782E+02  0.11095813198E+03  0.10566000000E+00 0.  1.
         13    1    1    2    0    0  0.54637614447E+01 -0.24494414169E+02  0.80897918117E+01  0.26368255730E+02  0.10566000000E+00 0. -1.
          4    1    1    2  501    0  0.42259073321E+02  0.15670987724E+01  0.35332904836E+03  0.35585067302E+03  0.00000000000E+00 0.  1.
</event>
<event>
 5    1  0.1196676E-004  0.4318014E+03  0.7818608E-02  0.9706718E-01
         -4   -1    0    0    0  501 -0.00000000000E+00  0.00000000000E+00  0.25562706182E+04  0.25562706182E+04  0.00000000000E+00 0. -1.
         21   -1    0    0  501  502  0.00000000000E+00 -0.00000000000E+00 -0.19472140762E+03  0.19472140762E+03  0.00000000000E+00 0. -1.
        -13    1    1    2    0    0 -0.33113350476E+03  0.91670308338E+02  0.60342033829E+03  0.69438387023E+03  0.10566000000E+00 0.  1.
         13    1    1    2    0    0 -0.22240890955E+03 -0.33060865592E+03  0.37234781425E+03  0.54535374974E+03  0.10566000000E+00 0. -1.
         -4    1    1    2    0  502  0.55354241430E+03  0.23893834758E+03  0.13857810580E+04  0.15112544058E+04  0.00000000000E+00 0. -1.
</event>
<event>
 5    1  0.1196676E-004  0.3192018E+03  0.7818608E-02  0.9996799E-01
         21   -1    0    0  501  502  0.00000000000E+00  0.00000000000E+00  0.87935828588E+02  0.87935828588E+02  0.00000000000E+00 0. -1.
          4   -1    0    0  502    0 -0.00000000000E+00 -0.00000000000E+00 -0.14382785840E+04  0.14382785840E+04  0.00000000000E+00 0.  1.
        -13    1    1    2    0    0  0.32687750061E+03  0.31012171845E+02 -0.41832746820E+03  0.53179745864E+03  0.10566000000E+00 0.  1.
         13    1    1    2    0    0 -0.31210695848E+03 -0.43045062180E+02 -0.91856782760E+03  0.97109757284E+03  0.10566000000E+00 0. -1.
          4    1    1    2  501    0 -0.14770542124E+02  0.12032890335E+02 -0.13447459583E+02  0.23319381074E+02  0.00000000000E+00 0.  1.
</event>
<event>
 5    1  0.1196676E-004  0.4937071E+03  0.7818608E-02  0.9563502E-01
         -4   -1    0    0    0  501 -0.00000000000E+00  0.00000000000E+00  0.20248966416E+04  0.20248966416E+04  0.00000000000E+00 0. -1.
         21   -1    0    0  501  502  0.00000000000E+00 -0.00000000000E+00 -0.63201356667E+03  0.63201356667E+03  0.00000000000E+00 0. -1.
        -13    1    1    2    0    0 -0.28456379089E+03  0.25357661097E+03  0.15370093404E+04  0.15835641358E+04  0.10566000000E+00 0.  1.
         13    1    1    2    0    0  0.43687291523E+03  0.26674425606E+03  0.18877188845E+01  0.51187304759E+03  0.10566000000E+00 0. -1.
         -4    1    1    2    0  502 -0.15230912434E+03 -0.52032086703E+03 -0.14601398433E+03  0.56147302486E+03  0.00000000000E+00 0. -1.
</event>
<event>
 5    1  0.1196676E-004  0.4658513E+03  0.7818608E-02  0.9580370E-01
         -4   -1    0    0    0  501 -0.00000000000E+00  0.00000000000E+00  0.10650628098E+04  0.10650628098E+04  0.00000000000E+00 0. -1.
         21   -1    0    0  501  502  0.00000000000E+00 -0.00000000000E+00 -0.60302276691E+03  0.60302276691E+03  0.00000000000E+00 0.  1.
        -13    1    1    2    0    0 -0.13489908161E+03  0.46743794797E+03  0.13081971036E+03  0.50379540014E+03  0.10566000000E+00 0.  1.
         13    1    1    2    0    0 -0.40610996862E+03 -0.18215073504E+03 -0.43172996116E+02  0.44717794629E+03  0.10566000000E+00 0. -1.
         -4    1    1    2    0  502  0.54100905022E+03 -0.28528721293E+03  0.37439332865E+03  0.71711223028E+03  0.00000000000E+00 0. -1.
</event>
<event>
 5    1  0.1196676E-004  0.4977573E+03  0.7818608E-02  0.9711876E-01
          4   -1    0    0  502    0 -0.00000000000E+00  0.00000000000E+00  0.51572823514E+03  0.51572823514E+03  0.00000000000E+00 0.  1.
         21   -1    0    0  501  502  0.00000000000E+00 -0.00000000000E+00 -0.98300910192E+03  0.98300910192E+03  0.00000000000E+00 0.  1.
        -13    1    1    2    0    0 -0.25098798805E+03 -0.49348111667E+03 -0.41843238395E+03  0.69397712769E+03  0.10566000000E+00 0.  1.
         13    1    1    2    0    0  0.21765827917E+03  0.34132881119E+02  0.18549883139E+03  0.28801042981E+03  0.10566000000E+00 0. -1.
          4    1    1    2  501    0  0.33329708874E+02  0.45934823555E+03 -0.23434731422E+03  0.51674977957E+03  0.00000000000E+00 0.  1.
</event>
<event>
 5    1  0.1196676E-004  0.7422692E+02  0.7818608E-02  0.1216055E+00
         21   -1    0    0  501  502  0.00000000000E+00  0.00000000000E+00  0.30986222618E+03  0.30986222618E+03  0.00000000000E+00 0. -1.
          4   -1    0    0  502    0 -0.00000000000E+00 -0.00000000000E+00 -0.32386026669E+02  0.32386026669E+02  0.00000000000E+00 0.  1.
        -13    1    1    2    0    0 -0.72523778921E+02 -0.13507497613E+02  0.30475691242E+02  0.79818105223E+02  0.10566000000E+00 0.  1.
         13    1    1    2    0    0  0.72453334219E+02  0.24884273846E+02  0.20273884002E+03  0.21672969602E+03  0.10566000000E+00 0. -1.
          4    1    1    2  501    0  0.70444702171E-01 -0.11376776233E+02  0.44261668252E+02  0.45700451599E+02  0.00000000000E+00 0.  1.
</event>
<event>
 5    1  0.1196676E-004  0.1074454E+03  0.7818608E-02  0.1152792E+00
         21   -1    0    0  501  502  0.00000000000E+00  0.00000000000E+00  0.28006676934E+03  0.28006676934E+03  0.00000000000E+00 0.  1.
          4   -1    0    0  502    0 -0.00000000000E+00 -0.00000000000E+00 -0.43358544936E+03  0.43358544936E+03  0.00000000000E+00 0.  1.
        -13    1    1    2    0    0 -0.25489159064E+02 -0.10759724259E+03 -0.35908723277E+03  0.37572665030E+03  0.10566000000E+00 0.  1.
         13    1    1    2    0    0  0.36654027407E+02  0.88109435883E+02 -0.30965372950E+02  0.10032774244E+03  0.10566000000E+00 0. -1.
          4    1    1    2  501    0 -0.11164868343E+02  0.19487806705E+02  0.23653392570E+03  0.23759782596E+03  0.00000000000E+00 0.  1.
</event>
<event>
 5    1  0.1196676E-004  0.2193528E+03  0.7818608E-02  0.1047622E+00
          4   -1    0    0  502    0 -0.00000000000E+00  0.00000000000E+00  0.19334112012E+03  0.19334112012E+03  0.00000000000E+00 0.  1.
         21   -1    0    0  501  502  0.00000000000E+00 -0.00000000000E+00 -0.64992194558E+03  0.64992194558E+03  0.00000000000E+00 0. -1.
        -13    1    1    2    0    0  0.21339297212E+03 -0.15785901356E+02  0.77161131271E+02  0.22746341810E+03  0.10566000000E+00 0.  1.
         13    1    1    2    0    0 -0.24978533820E+03 -0.91008114679E+01 -0.37212649424E+03  0.44827857280E+03  0.10566000000E+00 0. -1.
          4    1    1    2  501    0  0.36392366084E+02  0.24886712823E+02 -0.16161546250E+03  0.16752107480E+03  0.00000000000E+00 0.  1.
</event>
<event>
 5    1  0.1196676E-004  0.4843010E+03  0.7818608E-02  0.9642347E-01
         21   -1    0    0  501  502  0.00000000000E+00  0.00000000000E+00  0.21889121974E+03  0.21889121974E+03  0.00000000000E+00 0.  1.
          4   -1    0    0  502    0 -0.00000000000E+00 -0.00000000000E+00 -0.25261501014E+04  0.25261501014E+04  0.00000000000E+00 0.  1.
        -13    1    1    2    0    0  0.20578533346E+03 -0.23845747039E+03 -0.14572870892E+04  0.14909377050E+04  0.10566000000E+00 0.  1.
         13    1    1    2    0    0  0.30270901061E+03  0.38031966847E+02 -0.55423105243E+03  0.63265412845E+03  0.10566000000E+00 0. -1.
          4    1    1    2  501    0 -0.50849434407E+03  0.20042550354E+03 -0.29574074000E+03  0.62144948767E+03  0.00000000000E+00 0.  1.
</event>
<event>
 5    1  0.1196676E-004  0.5220871E+02  0.7818608E-02  0.1283048E+00
         21   -1    0    0  501  502  0.00000000000E+00  0.00000000000E+00  0.19856916048E+03  0.19856916048E+03  0.00000000000E+00 0. -1.
         -4   -1    0    0    0  501 -0.00000000000E+00 -0.00000000000E+00 -0.18122800720E+03  0.18122800720E+03  0.00000000000E+00 0. -1.
        -13    1    1    2    0    0  0.12044277626E+02 -0.36964751325E+02  0.12557573607E+01  0.38897886249E+02  0.10566000000E+00 0.  1.
         13    1    1    2    0    0 -0.46698254777E+02  0.33169246854E+02 -0.15554906588E+03  0.16576021536E+03  0.10566000000E+00 0. -1.
         -4    1    1    2    0  502  0.34653977152E+02  0.37955044714E+01  0.17163446180E+03  0.17513906607E+03  0.00000000000E+00 0. -1.
</event>
<event>
 5    1  0.1196676E-004  0.2170541E+03  0.7818608E-02  0.1049034E+00
          4   -1    0    0  502    0 -0.00000000000E+00  0.00000000000E+00  0.25266454953E+04  0.25266454953E+04  0.00000000000E+00 0.  1.
         21   -1    0    0  501  502  0.00000000000E+00 -0.00000000000E+00 -0.27258959372E+02  0.27258959372E+02  0.00000000000E+00 0. -1.
        -13    1    1    2    0    0 -0.20953895931E+03  0.17209944753E+02  0.11351662542E+04  0.11544718245E+04  0.10566000000E+00 0.  1.
         13    1    1    2    0    0  0.22012626213E+03 -0.42591580115E+02  0.13499633258E+04  0.13684555550E+04  0.10566000000E+00 0. -1.
          4    1    1    2  501    0 -0.10587302822E+02  0.25381635362E+02  0.14256955995E+02  0.30977075216E+02  0.00000000000E+00 0.  1.
</event>
<event>
 5    1  0.1196676E-004  0.1817169E+03  0.7818608E-02  0.1073448E+00
         21   -1    0    0  501  502  0.00000000000E+00  0.00000000000E+00  0.23299754293E+03  0.23299754293E+03  0.00000000000E+00 0.  1.
         -4   -1    0    0    0  501 -0.00000000000E+00 -0.00000000000E+00 -0.35633294760E+03  0.35633294760E+03  0.00000000000E+00 0. -1.
        -13    1    1    2    0    0 -0.92220898257E+02  0.15434317106E+03 -0.14968617349E+03  0.23394971731E+03  0.10566000000E+00 0.  1.
         13    1    1    2    0    0  0.12257467614E+03 -0.13966588419E+03 -0.10931086051E+03  0.21559217478E+03  0.10566000000E+00 0. -1.
         -4    1    1    2    0  502 -0.30353777886E+02 -0.14677286874E+02  0.13566162933E+03  0.13978859844E+03  0.00000000000E+00 0. -1.
</event>
<event>
 5    1  0.1196676E-004  0.2232084E+03  0.7818608E-02  0.1065472E+00
         21   -1    0    0  501  502  0.00000000000E+00  0.00000000000E+00  0.33536084919E+03  0.33536084919E+03  0.00000000000E+00 0. -1.
         -4   -1    0    0    0  501 -0.00000000000E+00 -0.00000000000E+00 -0.80560447916E+03  0.80560447916E+03  0.00000000000E+00 0. -1.
        -13    1    1    2    0    0  0.30690113895E+02  0.11934773218E+03  0.59956934376E+02  0.13704236356E+03  0.10566000000E+00 0.  1.
         13    1    1    2    0    0 -0.24003970632E+03 -0.18112900097E+03 -0.67706415315E+03  0.74083915545E+03  0.10566000000E+00 0. -1.
         -4    1    1    2    0  502  0.20934959242E+03  0.61781268790E+02  0.14686358880E+03  0.26308380934E+03  0.00000000000E+00 0. -1.
</event>
<event>
 5    1  0.1196676E-004  0.4639326E+03  0.7818608E-02  0.9890787E-01
         21   -1    0    0  501  502  0.00000000000E+00  0.00000000000E+00  0.11746243482E+03  0.11746243482E+03  0.00000000000E+00 0.  1.
          4   -1    0    0  502    0 -0.00000000000E+00 -0.00000000000E+00 -0.29992337486E+04  0.29992337486E+04  0.00000000000E+00 0.  1.
        -13    1    1    2    0    0 -0.40248274536E+03 -0.31995474210E+03 -0.15307763704E+04  0.16148187839E+04  0.10566000000E+00 0.  1.
         13    1    1    2    0    0 -0.91204342121E+01  0.14747451191E+03 -0.68107438291E+03  0.69691767104E+03  0.10566000000E+00 0. -1.
          4    1    1    2  501    0  0.41160317958E+03  0.17248023019E+03 -0.66992056044E+03  0.80495972852E+03  0.00000000000E+00 0.  1.
</event>
<event>
 5    1  0.1196676E-004  0.2410041E+03  0.7818608E-02  0.1035163E+00
         21   -1    0    0  501  502  0.00000000000E+00  0.00000000000E+00  0.12924786981E+03  0.12924786981E+03  0.00000000000E+00 0. -1.
          4   -1    0    0  502    0 -0.00000000000E+00 -0.00000000000E+00 -0.11833517263E+04  0.11833517263E+04  0.00000000000E+00 0.  1.
        -13    1    1    2    0    0 -0.21346304081E+03  0.11018833937E+03 -0.98118967119E+03  0.10101688581E+04  0.10566000000E+00 0.  1.
         13    1    1    2    0    0  0.21277432859E+03 -0.12260997727E+03 -0.10570681549E+03  0.26735755728E+03  0.10566000000E+00 0. -1.
          4    1    1    2  501    0  0.68871221749E+00  0.12421637900E+02  0.32792630164E+02  0.35073180718E+02  0.00000000000E+00 0.  1.
</event>
<event>
 5    1  0.1196676E-004  0.5055143E+03  0.7818608E-02  0.9664630E-01
          4   -1    0    0  502    0 -0.00000000000E+00  0.00000000000E+00  0.20084167179E+04  0.20084167179E+04  0.00000000000E+00 0.  1.
         21   -1    0    0  501  502  0.00000000000E+00 -0.00000000000E+00 -0.24994669921E+03  0.24994669921E+03  0.00000000000E+00 0.  1.
        -13    1    1    2    0    0  0.34526598810E+03  0.48802786578E+03  0.44132769678E+03  0.74306792921E+03  0.10566000000E+00 0.  1.
         13    1    1    2    0    0 -0.23808558006E+03 -0.69593124689E+02  0.82010350667E+03  0.85679502756E+03  0.10566000000E+00 0. -1.
          4    1    1    2  501    0 -0.10718040803E+03 -0.41843474109E+03  0.49703881528E+03  0.65850046037E+03  0.00000000000E+00 0.  1.
</event>
<event>
 5    1  0.1196676E-004  0.4821955E+03  0.7818608E-02  0.9613643E-01
         21   -1    0    0  501  502  0.00000000000E+00  0.00000000000E+00  0.34831303902E+03  0.34831303902E+03  0.00000000000E+00 0.  1.
          4   -1    0    0  502    0 -0.00000000000E+00 -0.00000000000E+00 -0.20043907855E+04  0.20043907855E+04  0.00000000000E+00 0.  1.
        -13    1    1    2    0    0 -0.49449248608E+03  0.28621266894E+03 -0.32021929503E+03  0.65496634931E+03  0.10566000000E+00 0.  1.
         13    1    1    2    0    0  0.31227384619E+03  0.13976536222E+03 -0.11478118077E+04  0.11977150198E+04  0.10566000000E+00 0. -1.
          4    1    1    2  501    0  0.18221863989E+03 -0.42597803116E+03 -0.18804664376E+03  0.50002245548E+03  0.00000000000E+00 0.  1.
</event>
<event>
 5    1  0.1196676E-004  0.7253364E+03  0.7818608E-02  0.9087013E-01
         21   -1    0    0  501  502  0.00000000000E+00  0.00000000000E+00  0.11842477105E+04  0.11842477105E+04  0.00000000000E+00 0. -1.
          4   -1    0    0  502    0 -0.00000000000E+00 -0.00000000000E+00 -0.91819249574E+03  0.91819249574E+03  0.00000000000E+00 0.  1.
        -13    1    1    2    0    0 -0.79477329268E+03 -0.81329884204E+02  0.23482779326E+02  0.79926878390E+03  0.10566000000E+00 0.  1.
         13    1    1    2    0    0  0.67389518923E+03  0.12863114005E+03 -0.29744976126E+03  0.74776805756E+03  0.10566000000E+00 0. -1.
          4    1    1    2  501    0  0.12087810345E+03 -0.47301255847E+02  0.54002219669E+03  0.55540336478E+03  0.00000000000E+00 0.  1.
</event>
<event>
 5    1  0.1196676E-004  0.4143654E+03  0.7818608E-02  0.9688450E-01
         21   -1    0    0  501  502  0.00000000000E+00  0.00000000000E+00  0.22576076463E+03  0.22576076463E+03  0.00000000000E+00 0.  1.
          4   -1    0    0  502    0 -0.00000000000E+00 -0.00000000000E+00 -0.29581874745E+04  0.29581874745E+04  0.00000000000E+00 0.  1.
        -13    1    1    2    0    0 -0.19776599881E+03 -0.35757173637E+03 -0.15495275385E+04  0.16024994667E+04  0.10566000000E+00 0.  1.
         13    1    1    2    0    0  0.42027854351E+03  0.21539394359E+03 -0.12260765986E+04  0.13138844857E+04  0.10566000000E+00 0. -1.
          4    1    1    2  501    0 -0.22251254470E+03  0.14217779278E+03  0.43177427231E+02  0.26756428673E+03  0.00000000000E+00 0.  1.
</event>
<event>
 5    1  0.1196676E-004  0.4462199E+03  0.7818608E-02  0.9742302E-01
         21   -1    0    0  501  502  0.00000000000E+00  0.00000000000E+00  0.15436121301E+03  0.15436121301E+03  0.00000000000E+00 0. -1.
         -4   -1    0    0    0  501 -0.00000000000E+00 -0.00000000000E+00 -0.29593699794E+04  0.29593699794E+04  0.00000000000E+00 0. -1.
        -13    1    1    2    0    0  0.26983509535E+03  0.54190627983E+02 -0.85820092575E+03  0.90125270761E+03  0.10566000000E+00 0.  1.
         13    1    1    2    0    0  0.86384237376E+02 -0.38294018135E+03 -0.15092425867E+04  0.15594610016E+04  0.10566000000E+00 0. -1.
         -4    1    1    2    0  502 -0.35621933273E+03  0.32874955337E+03 -0.43756525394E+03  0.65301748315E+03  0.00000000000E+00 0. -1.
</event>
<event>
 5    1  0.1196676E-004  0.6329751E+02  0.7818608E-02  0.1279641E+00
         21   -1    0    0  501  502  0.00000000000E+00  0.00000000000E+00  0.18069966245E+03  0.18069966245E+03  0.00000000000E+00 0. -1.
         -4   -1    0    0    0  501 -0.00000000000E+00 -0.00000000000E+00 -0.73819856547E+03  0.73819856547E+03  0.00000000000E+00 0. -1.
        -13    1    1    2    0    0 -0.55721281008E+02 -0.70586477558E+02 -0.37267495894E+03  0.38337181451E+03  0.10566000000E+00 0.  1.
         13    1    1    2    0    0  0.37914076908E+02 -0.23542795554E+02  0.16598094218E+03  0.17187619027E+03  0.10566000000E+00 0. -1.
         -4    1    1    2    0  502  0.17807204100E+02  0.94129273112E+02 -0.35080488626E+03  0.36365022315E+03  0.00000000000E+00 0. -1.
</event>
<event>
 5    1  0.1196676E-004  0.4400399E+03  0.7818608E-02  0.9634924E-01
          4   -1    0    0  502    0 -0.00000000000E+00  0.00000000000E+00  0.33323578415E+04  0.33323578415E+04  0.00000000000E+00 0.  1.
         21   -1    0    0  501  502  0.00000000000E+00 -0.00000000000E+00 -0.33370408866E+03  0.33370408866E+03  0.00000000000E+00 0.  1.
        -13    1    1    2    0    0 -0.46044644705E+01 -0.36199359649E+03  0.87244323316E+02  0.37238709444E+03  0.10566000000E+00 0.  1.
         13    1    1    2    0    0  0.25355660072E+03 -0.33170275894E+03  0.22955783326E+04  0.23332375709E+04  0.10566000000E+00 0. -1.
          4    1    1    2  501    0 -0.24895213625E+03  0.69369635543E+03  0.61583109691E+03  0.96043726479E+03  0.00000000000E+00 0.  1.
</event>
<event>
 5    1  0.1196676E-004  0.4681289E+03  0.7818608E-02  0.1015188E+00
          4   -1    0    0  502    0 -0.00000000000E+00  0.00000000000E+00  0.22043391776E+04  0.22043391776E+04  0.00000000000E+00 0.  1.
         21   -1    0    0  501  502  0.00000000000E+00 -0.00000000000E+00 -0.16028185799E+03  0.16028185799E+03  0.00000000000E+00 0.  1.
        -13    1    1    2    0    0  0.24979290570E+03 -0.40813695191E+03  0.14508651337E+04  0.15277375150E+04  0.10566000000E+00 0.  1.
         13    1    1    2    0    0 -0.58973206073E+02 -0.16821038086E+02  0.25228665520E+03  0.25963311406E+03  0.10566000000E+00 0. -1.
          4    1    1    2  501    0 -0.19081969963E+03  0.42495799000E+03  0.34090553070E+03  0.57725040657E+03  0.00000000000E+00 0.  1.
</event>
<event>
 5    1  0.1196676E-004  0.3790176E+03  0.7818608E-02  0.9814194E-01
         -4   -1    0    0    0  501 -0.00000000000E+00  0.00000000000E+00  0.54521173982E+03  0.54521173982E+03  0.00000000000E+00 0. -1.
         21   -1    0    0  501  502  0.00000000000E+00 -0.00000000000E+00 -0.10849076033E+04  0.10849076033E+04  0.00000000000E+00 0. -1.
        -13    1    1    2    0    0  0.11607942309E+02  0.35079882736E+03  0.13318838640E+03  0.37541139971E+03  0.10566000000E+00 0.  1.
         13    1    1    2    0    0 -0.38778918135E+03 -0.26484829066E+03  0.10710215157E+02  0.46972309514E+03  0.10566000000E+00 0. -1.
         -4    1    1    2    0  502  0.37618123904E+03 -0.85950536700E+02 -0.68359446501E+03  0.78498484824E+03  0.00000000000E+00 0. -1.
</event>
<event>
 5    1  0.1196676E-004  0.4883928E+03  0.7818608E-02  0.9625040E-01
          4   -1    0    0  502    0 -0.00000000000E+00  0.00000000000E+00  0.26529839551E+04  0.26529839551E+04  0.00000000000E+00 0.  1.
         21   -1    0    0  501  502  0.00000000000E+00 -0.00000000000E+00 -0.36790868710E+03  0.36790868710E+03  0.00000000000E+00 0.  1.
        -13    1    1    2    0    0  0.73331674623E+02 -0.65331113028E+03  0.20642085574E+03  0.68905917619E+03  0.10566000000E+00 0.  1.
         13    1    1    2    0    0 -0.14409094928E+03  0.28150190690E+03  0.18760851361E+04  0.19025511752E+04  0.10566000000E+00 0. -1.
          4    1    1    2  501    0  0.70759274662E+02  0.37180922338E+03  0.20256927615E+03  0.42928229078E+03  0.00000000000E+00 0.  1.
</event>
<event>
 5    1  0.1196676E-004  0.3851336E+03  0.7818608E-02  0.9796095E-01
         21   -1    0    0  501  502  0.00000000000E+00  0.00000000000E+00  0.18887092654E+03  0.18887092654E+03  0.00000000000E+00 0. -1.
         -4   -1    0    0    0  501 -0.00000000000E+00 -0.00000000000E+00 -0.30141771747E+04  0.30141771747E+04  0.00000000000E+00 0. -1.
        -13    1    1    2    0    0 -0.35770251163E+03 -0.18052729854E+03 -0.58019155297E+03  0.70509817873E+03  0.10566000000E+00 0.  1.
         13    1    1    2    0    0  0.10120708336E+03 -0.33918142961E+03 -0.28646939926E+03  0.45535880775E+03  0.10566000000E+00 0. -1.
         -4    1    1    2    0  502  0.25649542827E+03  0.51970872815E+03 -0.19586452959E+04  0.20425911148E+04  0.00000000000E+00 0. -1.
</event>
<event>
 5    1  0.1196676E-004  0.1649065E+03  0.7818608E-02  0.1087274E+00
         21   -1    0    0  501  502  0.00000000000E+00  0.00000000000E+00  0.99783602734E+02  0.99783602734E+02  0.00000000000E+00 0.  1.
         -4   -1    0    0    0  501 -0.00000000000E+00 -0.00000000000E+00 -0.38026119565E+03  0.38026119565E+03  0.00000000000E+00 0. -1.
        -13    1    1    2    0    0 -0.10803940522E+03  0.13961263541E+03 -0.11061624205E+03  0.20832706309E+03  0.10566000000E+00 0.  1.
         13    1    1    2    0    0  0.10870842903E+03 -0.11499664450E+03 -0.18450175175E+03  0.24306924600E+03  0.10566000000E+00 0. -1.
         -4    1    1    2    0  502 -0.66902380654E+00 -0.24615990907E+02  0.14640400879E+02  0.28648489299E+02  0.00000000000E+00 0. -1.
</event>
<event>
 5    1  0.1196676E-004  0.4405332E+03  0.7818608E-02  0.9904373E-01
         21   -1    0    0  501  502  0.00000000000E+00  0.00000000000E+00  0.12755152277E+04  0.12755152277E+04  0.00000000000E+00 0. -1.
         -4   -1    0    0    0  501 -0.00000000000E+00 -0.00000000000E+00 -0.29480925310E+03  0.29480925310E+03  0.00000000000E+00 0. -1.
        -13    1    1    2    0    0 -0.54666311579E+02  0.15557732185E+03  0.14457285818E+01  0.16490848975E+03  0.10566000000E+00 0.  1.
         13    1    1    2    0    0 -0.39228749017E+03 -0.19864891620E+03  0.15399537872E+03  0.46590283824E+03  0.10566000000E+00 0. -1.
         -4    1    1    2    0  502  0.44695380175E+03  0.43071594346E+02  0.82526486733E+03  0.93951315286E+03  0.00000000000E+00 0. -1.
</event>
<event>
 5    1  0.1196676E-004  0.1505981E+03  0.7818608E-02  0.1110753E+00
         21   -1    0    0  501  502  0.00000000000E+00  0.00000000000E+00  0.68161997274E+03  0.68161997274E+03  0.00000000000E+00 0. -1.
         -4   -1    0    0    0  501 -0.00000000000E+00 -0.00000000000E+00 -0.46205905682E+03  0.46205905682E+03  0.00000000000E+00 0. -1.
        -13    1    1    2    0    0 -0.10233900095E+03 -0.51280124607E+02  0.49023166618E+02  0.12452391065E+03  0.10566000000E+00 0.  1.
         13    1    1    2    0    0  0.24724083486E+03  0.18677810773E+02 -0.37733516785E+03  0.45150717724E+03  0.10566000000E+00 0. -1.
         -4    1    1    2    0  502 -0.14490183391E+03  0.32602313835E+02  0.54787291715E+03  0.56764794167E+03  0.00000000000E+00 0. -1.
</event>
<event>
 5    1  0.1196676E-004  0.6065201E+03  0.7818608E-02  0.9724041E-01
         21   -1    0    0  501  502  0.00000000000E+00  0.00000000000E+00  0.61336988540E+03  0.61336988540E+03  0.00000000000E+00 0.  1.
          4   -1    0    0  502    0 -0.00000000000E+00 -0.00000000000E+00 -0.11372131602E+04  0.11372131602E+04  0.00000000000E+00 0.  1.
        -13    1    1    2    0    0  0.50173407544E+03  0.16212285877E+03 -0.38072576449E+03  0.65036376183E+03  0.10566000000E+00 0.  1.
         13    1    1    2    0    0  0.96722401352E+02  0.65375236664E+02 -0.39524427736E+03  0.41212521695E+03  0.10566000000E+00 0. -1.
          4    1    1    2  501    0 -0.59845647679E+03 -0.22749809544E+03  0.25212676710E+03  0.68809406677E+03  0.00000000000E+00 0.  1.
</event>
<event>
 5    1  0.1196676E-004  0.2700683E+03  0.7818608E-02  0.1042976E+00
         -4   -1    0    0    0  501 -0.00000000000E+00  0.00000000000E+00  0.60861047607E+03  0.60861047607E+03  0.00000000000E+00 0. -1.
         21   -1    0    0  501  502  0.00000000000E+00 -0.00000000000E+00 -0.27218743375E+03  0.27218743375E+03  0.00000000000E+00 0. -1.
        -13    1    1    2    0    0 -0.45789139060E+02 -0.12711321416E+03 -0.33961876808E+02  0.13931200491E+03  0.10566000000E+00 0.  1.
         13    1    1    2    0    0 -0.14902210752E+03  0.29404168451E+03  0.35503910822E+03  0.48448001020E+03  0.10566000000E+00 0. -1.
         -4    1    1    2    0  502  0.19481124658E+03 -0.16692847034E+03  0.15345810903E+02  0.25700589471E+03  0.00000000000E+00 0. -1.
</event>
<event>
 5    1  0.1196676E-004  0.4706097E+03  0.7818608E-02  0.9544825E-01
          4   -1    0    0  502    0 -0.00000000000E+00  0.00000000000E+00  0.50768043119E+03  0.50768043119E+03  0.00000000000E+00 0.  1.
         21   -1    0    0  501  502  0.00000000000E+00 -0.00000000000E+00 -0.12894871157E+04  0.12894871157E+04  0.00000000000E+00 0.  1.
        -13    1    1    2    0    0  0.42292598362E+03  0.36275530744E+03 -0.96827573156E+03  0.11171462322E+04  0.10566000000E+00 0.  1.
         13    1    1    2    0    0 -0.34183115204E+03 -0.29450743342E+03 -0.16001780456E+02  0.45148558447E+03  0.10566000000E+00 0. -1.
          4    1    1    2  501    0 -0.81094831584E+02 -0.68247874026E+02  0.20247082746E+03  0.22853573023E+03  0.00000000000E+00 0.  1.
</event>
<event>
 5    1  0.1196676E-004  0.4265394E+03  0.7818608E-02  0.9774293E-01
         21   -1    0    0  501  502  0.00000000000E+00  0.00000000000E+00  0.64872135518E+03  0.64872135518E+03  0.00000000000E+00 0.  1.
         -4   -1    0    0    0  501 -0.00000000000E+00 -0.00000000000E+00 -0.21593155478E+04  0.21593155478E+04  0.00000000000E+00 0. -1.
        -13    1    1    2    0    0  0.13945380248E+03  0.83624976072E+03 -0.52912167024E+02  0.84944731086E+03  0.10566000000E+00 0.  1.
         13    1    1    2    0    0 -0.62364626322E+02 -0.31759186313E+03 -0.13931804826E+04  0.14302817227E+04  0.10566000000E+00 0. -1.
         -4    1    1    2    0  502 -0.77089176162E+02 -0.51865789759E+03 -0.64501543011E+02  0.52830786939E+03  0.00000000000E+00 0. -1.
</event>
<event>
 5    1  0.1196676E-004  0.4724374E+03  0.7818608E-02  0.9894644E-01
         -4   -1    0    0    0  501 -0.00000000000E+00  0.00000000000E+00  0.21995068444E+04  0.21995068444E+04  0.00000000000E+00 0. -1.
         21   -1    0    0  501  502  0.00000000000E+00 -0.00000000000E+00 -0.14560909654E+03  0.14560909654E+03  0.00000000000E+00 0. -1.
        -13    1    1    2    0    0 -0.13247234176E+02 -0.13748635227E+03  0.40346607198E+03  0.42645382948E+03  0.10566000000E+00 0.  1.
         13    1    1    2    0    0  0.33792668011E+03 -0.28175137718E+03  0.62629000030E+03  0.76538712774E+03  0.10566000000E+00 0. -1.
         -4    1    1    2    0  502 -0.32467944593E+03  0.41923772945E+03  0.10241416756E+04  0.11532749837E+04  0.00000000000E+00 0. -1.
</event>
<event>
 5    1  0.1196676E-004  0.6415677E+03  0.7818608E-02  0.9421032E-01
         -4   -1    0    0    0  501 -0.00000000000E+00  0.00000000000E+00  0.11653202811E+04  0.11653202811E+04  0.00000000000E+00 0. -1.
         21   -1    0    0  501  502  0.00000000000E+00 -0.00000000000E+00 -0.13747732539E+04  0.13747732539E+04  0.00000000000E+00 0. -1.
        -13    1    1    2    0    0  0.57508864634E+03  0.75798671081E+03  0.44735578944E+03  0.10513791031E+04  0.10566000000E+00 0.  1.
         13    1    1    2    0    0 -0.21304250063E+03  0.19833545455E+03 -0.38130865097E+02  0.29356095388E+03  0.10566000000E+00 0. -1.
         -4    1    1    2    0  502 -0.36204614571E+03 -0.95632216536E+03 -0.61867789713E+03  0.11951534780E+04  0.00000000000E+00 0. -1.
</event>
<event>
 5    1  0.1196676E-004  0.2616391E+03  0.7818608E-02  0.1024532E+00
         21   -1    0    0  501  502  0.00000000000E+00  0.00000000000E+00  0.78663074611E+02  0.78663074611E+02  0.00000000000E+00 0. -1.
          4   -1    0    0  502    0 -0.00000000000E+00 -0.00000000000E+00 -0.19670226330E+04  0.19670226330E+04  0.00000000000E+00 0.  1.
        -13    1    1    2    0    0  0.20360519144E+03  0.14009228317E+03 -0.10955998514E+04  0.11231295417E+04  0.10566000000E+00 0.  1.
         13    1    1    2    0    0 -0.32238063783E+03 -0.59680647629E+02 -0.57172941717E+03  0.65906417971E+03  0.10566000000E+00 0. -1.
          4    1    1    2  501    0  0.11877544639E+03 -0.80411635543E+02 -0.22103028977E+03  0.26349198620E+03  0.00000000000E+00 0.  1.
</event>
<event>
 5    1  0.1196676E-004  0.8871093E+02  0.7818608E-02  0.1206899E+00
          4   -1    0    0  502    0 -0.00000000000E+00  0.00000000000E+00  0.80570754166E+02  0.80570754166E+02  0.00000000000E+00 0.  1.
         21   -1    0    0  501  502  0.00000000000E+00 -0.00000000000E+00 -0.18468041309E+03  0.18468041309E+03  0.00000000000E+00 0.  1.
        -13    1    1    2    0    0 -0.81223301203E+02  0.72605003343E+02 -0.36643446436E+02  0.11494113493E+03  0.10566000000E+00 0.  1.
         13    1    1    2    0    0  0.51561698639E+01 -0.53101179093E+02 -0.41530964612E+02  0.67610306126E+02  0.10566000000E+00 0. -1.
          4    1    1    2  501    0  0.76067131339E+02 -0.19503824250E+02 -0.25935247874E+02  0.82699726196E+02  0.00000000000E+00 0.  1.
</event>
<event>
 5    1  0.1196676E-004  0.1182977E+03  0.7818608E-02  0.1137395E+00
         -4   -1    0    0    0  501 -0.00000000000E+00  0.00000000000E+00  0.53887739839E+03  0.53887739839E+03  0.00000000000E+00 0. -1.
         21   -1    0    0  501  502  0.00000000000E+00 -0.00000000000E+00 -0.22527345473E+03  0.22527345473E+03  0.00000000000E+00 0. -1.
        -13    1    1    2    0    0  0.62738002216E+02  0.95297809296E+02  0.93532033053E+02  0.14753298529E+03  0.10566000000E+00 0.  1.
         13    1    1    2    0    0  0.26130233997E+02 -0.12710624507E+03  0.39613595297E+03  0.41684828303E+03  0.10566000000E+00 0. -1.
         -4    1    1    2    0  502 -0.88868236213E+02  0.31808435771E+02 -0.17606404236E+03  0.19976958479E+03  0.00000000000E+00 0. -1.
</event>
<event>
 5    1  0.1196676E-004  0.4537554E+03  0.7818608E-02  0.1003346E+00
         -4   -1    0    0    0  501 -0.00000000000E+00  0.00000000000E+00  0.24073307499E+04  0.24073307499E+04  0.00000000000E+00 0. -1.
         21   -1    0    0  501  502  0.00000000000E+00 -0.00000000000E+00 -0.13333431603E+03  0.13333431603E+03  0.00000000000E+00 0. -1.
        -13    1    1    2    0    0 -0.15949246901E+02  0.97278230915E+02  0.38461219264E+03  0.39704405622E+03  0.10566000000E+00 0.  1.
         13    1    1    2    0    0  0.17305810160E+03 -0.49378768318E+03  0.13993745940E+04  0.14939962008E+04  0.10566000000E+00 0. -1.
         -4    1    1    2    0  502 -0.15710885470E+03  0.39650945226E+03  0.49000964732E+03  0.64962480896E+03  0.00000000000E+00 0. -1.
</event>
<event>
 5    1  0.1196676E-004  0.4990602E+03  0.7818608E-02  0.9676133E-01
         21   -1    0    0  501  502  0.00000000000E+00  0.00000000000E+00  0.53495270088E+03  0.53495270088E+03  0.00000000000E+00 0.  1.
         -4   -1    0    0    0  501 -0.00000000000E+00 -0.00000000000E+00 -0.79016320298E+03  0.79016320298E+03  0.00000000000E+00 0. -1.
        -13    1    1    2    0    0 -0.20742961370E+03  0.13522029438E+03  0.37130227477E+02  0.25038018613E+03  0.10566000000E+00 0.  1.
         13    1    1    2    0    0  0.20301869836E+03 -0.54686440934E+03 -0.24981034496E+02  0.58386756832E+03  0.10566000000E+00 0. -1.
         -4    1    1    2    0  502  0.44109153395E+01  0.41164411496E+03 -0.26735969508E+03  0.49086814941E+03  0.00000000000E+00 0. -1.
</event>
<event>
 5    1  0.1196676E-004  0.2785947E+03  0.7818608E-02  0.1028827E+00
          4   -1    0    0  502    0 -0.00000000000E+00  0.00000000000E+00  0.19197239491E+04  0.19197239491E+04  0.00000000000E+00 0.  1.
         21   -1    0    0  501  502  0.00000000000E+00 -0.00000000000E+00 -0.34081674974E+03  0.34081674974E+03  0.00000000000E+00 0.  1.
        -13    1    1    2    0    0  0.32006844994E+03 -0.28837549729E+03  0.66627353131E+03  0.79342590692E+03  0.10566000000E+00 0.  1.
         13    1    1    2    0    0 -0.80930360178E+02  0.17147161930E+03  0.11160891595E+04  0.11320809434E+04  0.10566000000E+00 0. -1.
          4    1    1    2  501    0 -0.23913808976E+03  0.11690387799E+03 -0.20345549140E+03  0.33503384850E+03  0.00000000000E+00 0.  1.
</event>
<event>
 5    1  0.1196676E-004  0.9155488E+02  0.7818608E-02  0.1179339E+00
         21   -1    0    0  501  502  0.00000000000E+00  0.00000000000E+00  0.83948975712E+02  0.83948975712E+02  0.00000000000E+00 0.  1.
         -4   -1    0    0    0  501 -0.00000000000E+00 -0.00000000000E+00 -0.55889614466E+03  0.55889614466E+03  0.00000000000E+00 0. -1.
        -13    1    1    2    0    0  0.59659457200E+02  0.77463578042E+02  0.10387927125E+01  0.97780095167E+02  0.10566000000E+00 0.  1.
         13    1    1    2    0    0 -0.25463561377E+02 -0.87943290040E+02 -0.49579662736E+03  0.50417925591E+03  0.10566000000E+00 0. -1.
         -4    1    1    2    0  502 -0.34195895824E+02  0.10479711998E+02  0.19810665707E+02  0.40885769290E+02  0.00000000000E+00 0. -1.
</event>
<event>
 5    1  0.1196676E-004  0.4621354E+03  0.7818608E-02  0.9565064E-01
         21   -1    0    0  501  502  0.00000000000E+00  0.00000000000E+00  0.44395382908E+03  0.44395382908E+03  0.00000000000E+00 0. -1.
         -4   -1    0    0    0  501 -0.00000000000E+00 -0.00000000000E+00 -0.18560626956E+04  0.18560626956E+04  0.00000000000E+00 0. -1.
        -13    1    1    2    0    0 -0.21499859461E+03  0.37186995806E+03 -0.10715566287E+04  0.11544458762E+04  0.10566000000E+00 0.  1.
         13    1    1    2    0    0  0.59110694134E+03 -0.39817334537E+03 -0.26919765663E+03  0.76185091623E+03  0.10566000000E+00 0. -1.
         -4    1    1    2    0  502 -0.37610834673E+03  0.26303387303E+02 -0.71354581194E+02  0.38371973225E+03  0.00000000000E+00 0. -1.
</event>
<event>
 5    1  0.1196676E-004  0.4609678E+03  0.7818608E-02  0.9647479E-01
          4   -1    0    0  502    0 -0.00000000000E+00  0.00000000000E+00  0.50969909374E+03  0.50969909374E+03  0.00000000000E+00 0.  1.
         21   -1    0    0  501  502  0.00000000000E+00 -0.00000000000E+00 -0.11011217108E+04  0.11011217108E+04  0.00000000000E+00 0.  1.
        -13    1    1    2    0    0 -0.41288276050E+03  0.37287354860E+03 -0.34655420602E+03  0.65544388473E+03  0.10566000000E+00 0.  1.
         13    1    1    2    0    0 -0.29488944822E+02 -0.34620866977E+03  0.13392384307E+03  0.37237836645E+03  0.10566000000E+00 0. -1.
          4    1    1    2  501    0  0.44237170532E+03 -0.26664878824E+02 -0.37879225406E+03  0.58299855332E+03  0.00000000000E+00 0.  1.
</event>
<event>
 5    1  0.1196676E-004  0.3474044E+03  0.7818608E-02  0.1014541E+00
         21   -1    0    0  501  502  0.00000000000E+00  0.00000000000E+00  0.67095615524E+03  0.67095615524E+03  0.00000000000E+00 0.  1.
          4   -1    0    0  502    0 -0.00000000000E+00 -0.00000000000E+00 -0.53872202852E+03  0.53872202852E+03  0.00000000000E+00 0.  1.
        -13    1    1    2    0    0  0.16960943198E+03  0.33721790177E+03 -0.25493350031E+03  0.45549354928E+03  0.10566000000E+00 0.  1.
         13    1    1    2    0    0  0.98705043168E+02 -0.11712964152E+03 -0.79540170215E+02  0.17259399848E+03  0.10566000000E+00 0. -1.
          4    1    1    2  501    0 -0.26831447515E+03 -0.22008826025E+03  0.46670779724E+03  0.58159063600E+03  0.00000000000E+00 0.  1.
</event>
<event>
 5    1  0.1196676E-004  0.4859800E+03  0.7818608E-02  0.9637664E-01
          4   -1    0    0  502    0 -0.00000000000E+00  0.00000000000E+00  0.14400067563E+04  0.14400067563E+04  0.00000000000E+00 0.  1.
         21   -1    0    0  501  502  0.00000000000E+00 -0.00000000000E+00 -0.37815827291E+03  0.37815827291E+03  0.00000000000E+00 0. -1.
        -13    1    1    2    0    0 -0.46434626289E+03  0.81211875299E+02  0.11065475295E+03  0.48420791615E+03  0.10566000000E+00 0.  1.
         13    1    1    2    0    0 -0.57421978534E+02 -0.30154752994E+03  0.58164182614E+03  0.65767425183E+03  0.10566000000E+00 0. -1.
          4    1    1    2  501    0  0.52176824142E+03  0.22033565464E+03  0.36955190431E+03  0.67628286126E+03  0.00000000000E+00 0.  1.
</event>
<event>
 5    1  0.1196676E-004  0.5443187E+03  0.7818608E-02  0.9385788E-01
         21   -1    0    0  501  502  0.00000000000E+00  0.00000000000E+00  0.23782897666E+04  0.23782897666E+04  0.00000000000E+00 0.  1.
         -4   -1    0    0    0  501 -0.00000000000E+00 -0.00000000000E+00 -0.27448361336E+03  0.27448361336E+03  0.00000000000E+00 0. -1.
        -13    1    1    2    0    0 -0.36833364698E+03 -0.20344128374E+03  0.10702528349E+04  0.11499996405E+04  0.10566000000E+00 0.  1.
         13    1    1    2    0    0  0.25879792166E+03  0.60700611361E+03  0.51768040024E+03  0.83870483138E+03  0.10566000000E+00 0. -1.
         -4    1    1    2    0  502  0.10953572532E+03 -0.40356482987E+03  0.51587291813E+03  0.66406890809E+03  0.00000000000E+00 0. -1.
</event>
<event>
 5    1  0.1702237E-004  0.3959933E+03  0.7818608E-02  0.1001266E+00
         -4   -1    0    0    0  501 -0.00000000000E+00  0.00000000000E+00  0.18648880128E+04  0.18648880128E+04  0.00000000000E+00 0. -1.
         21   -1    0    0  501  502  0.00000000000E+00 -0.00000000000E+00 -0.22474896415E+03  0.22474896415E+03  0.00000000000E+00 0. -1.
        -13    1    1    2    0    0 -0.71900479905E+02 -0.14150666200E+03  0.68158252070E+03  0.69982037558E+03  0.10566000000E+00 0.  1.
         13    1    1    2    0    0  0.28739738205E+03 -0.20905198165E+03  0.90818982948E+03  0.97524805243E+03  0.10566000000E+00 0. -1.
         -4    1    1    2    0  502 -0.21549690214E+03  0.35055864365E+03  0.50366698509E+02  0.41456854896E+03  0.00000000000E+00 0. -1.
</event>
<event>
 5    1  0.1196676E-004  0.2009626E+03  0.7818608E-02  0.1059478E+00
         21   -1    0    0  501  502  0.00000000000E+00  0.00000000000E+00  0.95103936911E+02  0.95103936911E+02  0.00000000000E+00 0. -1.
          4   -1    0    0  502    0 -0.00000000000E+00 -0.00000000000E+00 -0.17927686516E+04  0.17927686516E+04  0.00000000000E+00 0.  1.
        -13    1    1    2    0    0 -0.12193044370E+03 -0.12713834193E+03 -0.94910074008E+03  0.96531001087E+03  0.10566000000E+00 0.  1.
         13    1    1    2    0    0  0.21080147581E+03  0.17610993179E+03 -0.77114785282E+03  0.81860918170E+03  0.10566000000E+00 0. -1.
          4    1    1    2  501    0 -0.88871032115E+02 -0.48971589856E+02  0.22583878265E+02  0.10395339590E+03  0.00000000000E+00 0.  1.
</event>
<event>
 5    1  0.1196676E-004  0.3250700E+03  0.7818608E-02  0.9974630E-01
         21   -1    0    0  501  502  0.00000000000E+00  0.00000000000E+00  0.31560087268E+02  0.31560087268E+02  0.00000000000E+00 0.  1.
         -4   -1    0    0    0  501 -0.00000000000E+00 -0.00000000000E+00 -0.37239331845E+04  0.37239331845E+04  0.00000000000E+00 0. -1.
        -13    1    1    2    0    0 -0.28408970084E+03  0.13838295381E+03 -0.16929052169E+04  0.17221454307E+04  0.10566000000E+00 0.  1.
         13    1    1    2    0    0  0.30035654743E+03 -0.14552111414E+03 -0.19756089270E+04  0.20036020298E+04  0.10566000000E+00 0. -1.
         -4    1    1    2    0  502 -0.16266846591E+02  0.71381603249E+01 -0.23858953284E+02  0.29745811178E+02  0.00000000000E+00 0. -1.
</event>
<event>
 5    1  0.1196676E-004  0.3897704E+03  0.7818608E-02  0.1011781E+00
         21   -1    0    0  501  502  0.00000000000E+00  0.00000000000E+00  0.23887915890E+03  0.23887915890E+03  0.00000000000E+00 0.  1.
          4   -1    0    0  502    0 -0.00000000000E+00 -0.00000000000E+00 -0.12981746670E+04  0.12981746670E+04  0.00000000000E+00 0.  1.
        -13    1    1    2    0    0  0.25559307247E+03 -0.26239771886E+03 -0.85577506299E+03  0.93087665733E+03  0.10566000000E+00 0.  1.
         13    1    1    2    0    0 -0.73924729633E+02 -0.92553053524E+02 -0.16840896871E+03  0.20589445178E+03  0.10566000000E+00 0. -1.
          4    1    1    2  501    0 -0.18166834284E+03  0.35495077238E+03 -0.35111476435E+02  0.40028271682E+03  0.00000000000E+00 0.  1.
</event>
<event>
 5    1  0.1196676E-004  0.8104314E+02  0.7818608E-02  0.1200409E+00
          4   -1    0    0  502    0 -0.00000000000E+00  0.00000000000E+00  0.64949851028E+03  0.64949851028E+03  0.00000000000E+00 0.  1.
         21   -1    0    0  501  502  0.00000000000E+00 -0.00000000000E+00 -0.34267750575E+02  0.34267750575E+02  0.00000000000E+00 0.  1.
        -13    1    1    2    0    0  0.63836454776E+02 -0.74931671352E+02  0.13785054350E+03  0.16938899562E+03  0.10566000000E+00 0.  1.
         13    1    1    2    0    0 -0.75677072377E+02  0.25002762281E+02  0.44843541463E+03  0.45546293994E+03  0.10566000000E+00 0. -1.
          4    1    1    2  501    0  0.11840617601E+02  0.49928909071E+02  0.28944801580E+02  0.58914325293E+02  0.00000000000E+00 0.  1.
</event>
<event>
 5    1  0.1196676E-004  0.4673232E+03  0.7818608E-02  0.1021226E+00
         21   -1    0    0  501  502  0.00000000000E+00  0.00000000000E+00  0.64672129677E+03  0.64672129677E+03  0.00000000000E+00 0. -1.
         -4   -1    0    0    0  501 -0.00000000000E+00 -0.00000000000E+00 -0.47792232216E+03  0.47792232216E+03  0.00000000000E+00 0. -1.
        -13    1    1    2    0    0 -0.47899393878E+02  0.17297054347E+02 -0.82602453614E+02  0.97039767776E+02  0.10566000000E+00 0.  1.
         13    1    1    2    0    0  0.28640444976E+03  0.37527418163E+03  0.30966428068E+03  0.56457966500E+03  0.10566000000E+00 0. -1.
         -4    1    1    2    0  502 -0.23850505588E+03 -0.39257123597E+03 -0.58262852458E+02  0.46302418616E+03  0.00000000000E+00 0. -1.
</event>
<event>
 5    1  0.1196676E-004  0.4705393E+03  0.7818608E-02  0.9978437E-01
         -4   -1    0    0    0  501 -0.00000000000E+00  0.00000000000E+00  0.40079743627E+03  0.40079743627E+03  0.00000000000E+00 0. -1.
         21   -1    0    0  501  502  0.00000000000E+00 -0.00000000000E+00 -0.81309152458E+03  0.81309152458E+03  0.00000000000E+00 0. -1.
        -13    1    1    2    0    0 -0.10230926746E+03 -0.27132748736E+02  0.17407550017E+02  0.10726791796E+03  0.10566000000E+00 0.  1.
         13    1    1    2    0    0  0.22486757812E+03  0.46303211358E+03 -0.52734185490E+02  0.51744088684E+03  0.10566000000E+00 0. -1.
         -4    1    1    2    0  502 -0.12255831066E+03 -0.43589936484E+03 -0.37696745284E+03  0.58918015605E+03  0.00000000000E+00 0. -1.
</event>
<event>
 5    1  0.1196676E-004  0.4030890E+03  0.7818608E-02  0.9729482E-01
          4   -1    0    0  502    0 -0.00000000000E+00  0.00000000000E+00  0.15681625085E+04  0.15681625085E+04  0.00000000000E+00 0.  1.
         21   -1    0    0  501  502  0.00000000000E+00 -0.00000000000E+00 -0.39233559681E+03  0.39233559681E+03  0.00000000000E+00 0. -1.
        -13    1    1    2    0    0  0.79084727312E+02  0.40505125203E+03  0.67634234273E+02  0.41820486807E+03  0.10566000000E+00 0.  1.
         13    1    1    2    0    0 -0.39012539175E+03 -0.11143440496E+02  0.80373852765E+02  0.39847454740E+03  0.10566000000E+00 0. -1.
          4    1    1    2  501    0  0.31104066444E+03 -0.39390781154E+03  0.10278188247E+04  0.11438186899E+04  0.00000000000E+00 0.  1.
</event>
<event>
 5    1  0.1196676E-004  0.7040867E+03  0.7818608E-02  0.9117071E-01
         21   -1    0    0  501  502  0.00000000000E+00  0.00000000000E+00  0.51179228216E+03  0.51179228216E+03  0.00000000000E+00 0.  1.
          4   -1    0    0  502    0 -0.00000000000E+00 -0.00000000000E+00 -0.20832090471E+04  0.20832090471E+04  0.00000000000E+00 0.  1.
        -13    1    1    2    0    0 -0.91314153923E+03  0.13849920013E+03 -0.28573921441E+03  0.96677629725E+03  0.10566000000E+00 0.  1.
         13    1    1    2    0    0  0.64420761818E+03 -0.80696240039E+02 -0.11520788339E+04  0.13224223944E+04  0.10566000000E+00 0. -1.
          4    1    1    2  501    0  0.26893392105E+03 -0.57802960087E+02 -0.13359871660E+03  0.30580263760E+03  0.00000000000E+00 0.  1.
</event>
<event>
 5    1  0.1258708E-004  0.3785782E+03  0.7818608E-02  0.9928976E-01
          4   -1    0    0  502    0 -0.00000000000E+00  0.00000000000E+00  0.10171588059E+04  0.10171588059E+04  0.00000000000E+00 0.  1.
         21   -1    0    0  501  502  0.00000000000E+00 -0.00000000000E+00 -0.39507450215E+03  0.39507450215E+03  0.00000000000E+00 0.  1.
        -13    1    1    2    0    0  0.48713150735E+02  0.25262873042E+03  0.60532613808E+03  0.65773398201E+03  0.10566000000E+00 0.  1.
         13    1    1    2    0    0  0.23466920042E+03  0.47208482318E+02  0.19141137505E+03  0.30649078305E+03  0.10566000000E+00 0. -1.
          4    1    1    2  501    0 -0.28338235116E+03 -0.29983721274E+03 -0.17465320935E+03  0.44800854303E+03  0.00000000000E+00 0.  1.
</event>
<event>
 5    1  0.1196676E-004  0.4049230E+03  0.7818608E-02  0.9714935E-01
         -4   -1    0    0    0  501 -0.00000000000E+00  0.00000000000E+00  0.23678688835E+04  0.23678688835E+04  0.00000000000E+00 0. -1.
         21   -1    0    0  501  502  0.00000000000E+00 -0.00000000000E+00 -0.13948449011E+03  0.13948449011E+03  0.00000000000E+00 0.  1.
        -13    1    1    2    0    0  0.23016971982E+03  0.46002078641E+03  0.82829853444E+03  0.97502599821E+03  0.10566000000E+00 0.  1.
         13    1    1    2    0    0 -0.15175588536E+03 -0.33441446974E+03  0.13065646255E+04  0.13571934343E+04  0.10566000000E+00 0. -1.
         -4    1    1    2    0  502 -0.78413834464E+02 -0.12560631667E+03  0.93521233461E+02  0.17513394112E+03  0.00000000000E+00 0. -1.
</event>
<event>
 5    1  0.1196676E-004  0.7087872E+02  0.7818608E-02  0.1246448E+00
         -4   -1    0    0    0  501 -0.00000000000E+00  0.00000000000E+00  0.43321760538E+02  0.43321760538E+02  0.00000000000E+00 0. -1.
         21   -1    0    0  501  502  0.00000000000E+00 -0.00000000000E+00 -0.21656994011E+03  0.21656994011E+03  0.00000000000E+00 0.  1.
        -13    1    1    2    0    0 -0.42689998988E+02 -0.11385207054E+02 -0.29532038075E+02  0.53143309929E+02  0.10566000000E+00 0.  1.
         13    1    1    2    0    0  0.13933252623E+02  0.76335617109E+02 -0.74801645175E+02  0.10778014313E+03  0.10566000000E+00 0. -1.
         -4    1    1    2    0  502  0.28756746364E+02 -0.64950410054E+02 -0.68914496320E+02  0.98968247588E+02  0.00000000000E+00 0. -1.
</event>
<event>
 5    1  0.1196676E-004  0.1001370E+03  0.7818608E-02  0.1164329E+00
         -4   -1    0    0    0  501 -0.00000000000E+00  0.00000000000E+00  0.25935446733E+02  0.25935446733E+02  0.00000000000E+00 0. -1.
         21   -1    0    0  501  502  0.00000000000E+00 -0.00000000000E+00 -0.51033771497E+03  0.51033771497E+03  0.00000000000E+00 0.  1.
        -13    1    1    2    0    0 -0.18504008714E+02  0.10363825792E+03 -0.17682584982E+03  0.20579280641E+03  0.10566000000E+00 0.  1.
         13    1    1    2    0    0 -0.29706921524E+01 -0.95174208783E+02 -0.21632073306E+03  0.23635064152E+03  0.10566000000E+00 0. -1.
         -4    1    1    2    0  502  0.21474700867E+02 -0.84640491366E+01 -0.91255685360E+02  0.94129713776E+02  0.00000000000E+00 0. -1.
</event>
<event>
 5    1  0.1196676E-004  0.4676686E+03  0.7818608E-02  0.9673035E-01
         -4   -1    0    0    0  501 -0.00000000000E+00  0.00000000000E+00  0.17401709919E+04  0.17401709919E+04  0.00000000000E+00 0. -1.
         21   -1    0    0  501  502  0.00000000000E+00 -0.00000000000E+00 -0.27771045112E+03  0.27771045112E+03  0.00000000000E+00 0. -1.
        -13    1    1    2    0    0 -0.30410073674E+03 -0.68048906756E+01  0.67836760203E+03  0.74344211562E+03  0.10566000000E+00 0.  1.
         13    1    1    2    0    0  0.46317189240E+03  0.31985596795E+03  0.20863162824E+03  0.60030259837E+03  0.10566000000E+00 0. -1.
         -4    1    1    2    0  502 -0.15907115565E+03 -0.31305107727E+03  0.57546131055E+03  0.67413672907E+03  0.00000000000E+00 0. -1.
</event>
<event>
 5    1  0.1196676E-004  0.8920746E+02  0.7818608E-02  0.1183763E+00
         21   -1    0    0  501  502  0.00000000000E+00  0.00000000000E+00  0.19588966428E+03  0.19588966428E+03  0.00000000000E+00 0. -1.
          4   -1    0    0  502    0 -0.00000000000E+00 -0.00000000000E+00 -0.15636834349E+03  0.15636834349E+03  0.00000000000E+00 0.  1.
        -13    1    1    2    0    0 -0.76011501175E+02 -0.45954039996E+02 -0.12556688494E+03  0.15380694347E+03  0.10566000000E+00 0.  1.
         13    1    1    2    0    0  0.74102878861E+02  0.56924681583E+02  0.12045769086E+03  0.15245236134E+03  0.10566000000E+00 0. -1.
          4    1    1    2  501    0  0.19086223141E+01 -0.10970641587E+02  0.44630514869E+02  0.45998702954E+02  0.00000000000E+00 0.  1.
</event>
<event>
 5    1  0.1196676E-004  0.4755795E+03  0.7818608E-02  0.9934921E-01
         21   -1    0    0  501  502  0.00000000000E+00  0.00000000000E+00  0.95642808836E+03  0.95642808836E+03  0.00000000000E+00 0. -1.
         -4   -1    0    0    0  501 -0.00000000000E+00 -0.00000000000E+00 -0.43595988101E+03  0.43595988101E+03  0.00000000000E+00 0. -1.
        -13    1    1    2    0    0 -0.37551941125E+02  0.11226850754E+03 -0.14243635730E+03  0.18520932243E+03  0.10566000000E+00 0.  1.
         13    1    1    2    0    0  0.80466235228E+02 -0.50924659905E+03  0.61884173744E+03  0.80546385444E+03  0.10566000000E+00 0. -1.
         -4    1    1    2    0  502 -0.42914294103E+02  0.39697809150E+03  0.44062827215E+02  0.40171479250E+03  0.00000000000E+00 0. -1.
</event>
<event>
 5    1  0.1196676E-004  0.2896192E+03  0.7818608E-02  0.1024447E+00
         21   -1    0    0  501  502  0.00000000000E+00  0.00000000000E+00  0.64015989166E+03  0.64015989166E+03  0.00000000000E+00 0. -1.
         -4   -1    0    0    0  501 -0.00000000000E+00 -0.00000000000E+00 -0.60704387514E+03  0.60704387514E+03  0.00000000000E+00 0. -1.
        -13    1    1    2    0    0 -0.46331374864E+02 -0.18777582546E+03 -0.97820690747E+02  0.21673775774E+03  0.10566000000E+00 0.  1.
         13    1    1    2    0    0  0.12853911574E+03  0.44697563247E+03 -0.27616268607E+03  0.54090235777E+03  0.10566000000E+00 0. -1.
         -4    1    1    2    0  502 -0.82207740876E+02 -0.25919980701E+03  0.40709939333E+03  0.48956365129E+03  0.00000000000E+00 0. -1.
</event>
<event>
 5    1  0.1196676E-004  0.3960336E+03  0.7818608E-02  0.9773027E-01
         21   -1    0    0  501  502  0.00000000000E+00  0.00000000000E+00  0.61160333323E+03  0.61160333323E+03  0.00000000000E+00 0.  1.
          4   -1    0    0  502    0 -0.00000000000E+00 -0.00000000000E+00 -0.89359724898E+03  0.89359724898E+03  0.00000000000E+00 0.  1.
        -13    1    1    2    0    0 -0.22274471087E+03 -0.35092360443E+03 -0.11751835738E+03  0.43194115091E+03  0.10566000000E+00 0.  1.
         13    1    1    2    0    0 -0.19463238482E+03  0.38535414610E+03 -0.40361007085E+03  0.59099973231E+03  0.10566000000E+00 0. -1.
          4    1    1    2  501    0  0.41737709569E+03 -0.34430541670E+02  0.23913451248E+03  0.48225969899E+03  0.00000000000E+00 0.  1.
</event>
<event>
 5    1  0.1196676E-004  0.5505930E+03  0.7818608E-02  0.9452293E-01
          4   -1    0    0  502    0 -0.00000000000E+00  0.00000000000E+00  0.28880072892E+04  0.28880072892E+04  0.00000000000E+00 0.  1.
         21   -1    0    0  501  502  0.00000000000E+00 -0.00000000000E+00 -0.31297978450E+03  0.31297978450E+03  0.00000000000E+00 0.  1.
        -13    1    1    2    0    0  0.31516222661E+03  0.13307483924E+03  0.52786319940E+03  0.62902759110E+03  0.10566000000E+00 0.  1.
         13    1    1    2    0    0 -0.13617861289E+03  0.62228123472E+03  0.14778704991E+04  0.16093103408E+04  0.10566000000E+00 0. -1.
          4    1    1    2  501    0 -0.17898361372E+03 -0.75535607396E+03  0.56929380618E+03  0.96264914180E+03  0.00000000000E+00 0.  1.
</event>
<event>
 5    1  0.1196676E-004  0.1651063E+03  0.7818608E-02  0.1087099E+00
         -4   -1    0    0    0  501 -0.00000000000E+00  0.00000000000E+00  0.75188330514E+03  0.75188330514E+03  0.00000000000E+00 0. -1.
         21   -1    0    0  501  502  0.00000000000E+00 -0.00000000000E+00 -0.45637606456E+02  0.45637606456E+02  0.00000000000E+00 0.  1.
        -13    1    1    2    0    0 -0.14600907743E+03  0.78221604440E+02  0.32861584351E+03  0.36800224709E+03  0.10566000000E+00 0.  1.
         13    1    1    2    0    0  0.15071204471E+03 -0.66809264718E+02  0.38229296532E+03  0.41632381721E+03  0.10566000000E+00 0. -1.
         -4    1    1    2    0  502 -0.47029672805E+01 -0.11412339722E+02 -0.46631101434E+01  0.13194847304E+02  0.00000000000E+00 0. -1.
</event>
<event>
 5    1  0.1196676E-004  0.5002320E+03  0.7818608E-02  0.9572295E-01
         21   -1    0    0  501  502  0.00000000000E+00  0.00000000000E+00  0.47640824654E+03  0.47640824654E+03  0.00000000000E+00 0. -1.
         -4   -1    0    0    0  501 -0.00000000000E+00 -0.00000000000E+00 -0.10768331583E+04  0.10768331583E+04  0.00000000000E+00 0. -1.
        -13    1    1    2    0    0  0.24286943996E+03  0.25901744017E+03 -0.25372525402E+03  0.43640819752E+03  0.10566000000E+00 0.  1.
         13    1    1    2    0    0  0.10085823842E+03 -0.57689790570E+03 -0.12513145058E+03  0.59886682070E+03  0.10566000000E+00 0. -1.
         -4    1    1    2    0  502 -0.34372767838E+03  0.31788046553E+03 -0.22156820721E+03  0.51796638664E+03  0.00000000000E+00 0. -1.
</event>
<event>
 5    1  0.1196676E-004  0.5525546E+03  0.7818608E-02  0.9369668E-01
          4   -1    0    0  502    0 -0.00000000000E+00  0.00000000000E+00  0.13309312129E+04  0.13309312129E+04  0.00000000000E+00 0.  1.
         21   -1    0    0  501  502  0.00000000000E+00 -0.00000000000E+00 -0.14792872003E+04  0.14792872003E+04  0.00000000000E+00 0. -1.
        -13    1    1    2    0    0 -0.50377198702E+03  0.39501644584E+03 -0.23140266680E+03  0.68071389934E+03  0.10566000000E+00 0.  1.
         13    1    1    2    0    0  0.38284710203E+03 -0.38137524719E+03  0.10361840016E+04  0.11686300865E+04  0.10566000000E+00 0. -1.
          4    1    1    2  501    0  0.12092488500E+03 -0.13641198649E+02 -0.95313732217E+03  0.96087442730E+03  0.00000000000E+00 0.  1.
</event>
<event>
 5    1  0.1196676E-004  0.5618073E+03  0.7818608E-02  0.9351904E-01
         21   -1    0    0  501  502  0.00000000000E+00  0.00000000000E+00  0.28487627754E+03  0.28487627754E+03  0.00000000000E+00 0. -1.
         -4   -1    0    0    0  501 -0.00000000000E+00 -0.00000000000E+00 -0.23047118615E+04  0.23047118615E+04  0.00000000000E+00 0. -1.
        -13    1    1    2    0    0 -0.42620223394E+03 -0.19764156987E+03 -0.42721399485E+03  0.63499790780E+03  0.10566000000E+00 0.  1.
         13    1    1    2    0    0  0.66725107088E+03 -0.10549622262E+03 -0.13140218784E+04  0.14775002378E+04  0.10566000000E+00 0. -1.
         -4    1    1    2    0  502 -0.24104883694E+03  0.30313779249E+03 -0.27859971064E+03  0.47708999339E+03  0.00000000000E+00 0. -1.
</event>
<event>
 5    1  0.1196676E-004  0.4863037E+03  0.7818608E-02  0.9508507E-01
          4   -1    0    0  502    0 -0.00000000000E+00  0.00000000000E+00  0.89757787799E+03  0.89757787799E+03  0.00000000000E+00 0.  1.
         21   -1    0    0  501  502  0.00000000000E+00 -0.00000000000E+00 -0.54505472878E+03  0.54505472878E+03  0.00000000000E+00 0.  1.
        -13    1    1    2    0    0 -0.29731359642E+03  0.58255351649E+03  0.34503619466E+03  0.73946870183E+03  0.10566000000E+00 0.  1.
         13    1    1    2    0    0  0.21292976475E+03 -0.30638104917E+03  0.12194862396E+03  0.39253013905E+03  0.10566000000E+00 0. -1.
          4    1    1    2  501    0  0.84383831667E+02 -0.27617246732E+03 -0.11446166941E+03  0.31063376590E+03  0.00000000000E+00 0.  1.
</event>
<event>
 5    1  0.1196676E-004  0.4369011E+03  0.7818608E-02  0.9709031E-01
         21   -1    0    0  501  502  0.00000000000E+00  0.00000000000E+00  0.40663336490E+03  0.40663336490E+03  0.00000000000E+00 0. -1.
         -4   -1    0    0    0  501 -0.00000000000E+00 -0.00000000000E+00 -0.14160889055E+04  0.14160889055E+04  0.00000000000E+00 0. -1.
        -13    1    1    2    0    0  0.37139647029E+02  0.32693763988E+03 -0.63975899805E+03  0.71941584671E+03  0.10566000000E+00 0.  1.
         13    1    1    2    0    0  0.15513298543E+03  0.31679103066E+03 -0.40179637417E+02  0.35501720339E+03  0.10566000000E+00 0. -1.
         -4    1    1    2    0  502 -0.19227263246E+03 -0.64372867054E+03 -0.32951690517E+03  0.74828922033E+03  0.00000000000E+00 0. -1.
</event>
<event>
 5    1  0.1948115E-004  0.4441155E+03  0.7818608E-02  0.9915554E-01
         21   -1    0    0  501  502  0.00000000000E+00  0.00000000000E+00  0.30446036139E+03  0.30446036139E+03  0.00000000000E+00 0. -1.
         -4   -1    0    0    0  501 -0.00000000000E+00 -0.00000000000E+00 -0.13364848718E+04  0.13364848718E+04  0.00000000000E+00 0. -1.
        -13    1    1    2    0    0 -0.72421361537E+02 -0.13709359397E+03 -0.45114689944E+03  0.47704616459E+03  0.10566000000E+00 0.  1.
         13    1    1    2    0    0 -0.38707454676E+03  0.16205811030E+03 -0.56456468558E+03  0.70343644434E+03  0.10566000000E+00 0. -1.
         -4    1    1    2    0  502  0.45949590829E+03 -0.24964516324E+02 -0.16312925399E+02  0.46046262427E+03  0.00000000000E+00 0. -1.
</event>
<event>
 5    1  0.1196676E-004  0.1814470E+03  0.7818608E-02  0.1073657E+00
         21   -1    0    0  501  502  0.00000000000E+00  0.00000000000E+00  0.41276056771E+03  0.41276056771E+03  0.00000000000E+00 0.  1.
         -4   -1    0    0    0  501 -0.00000000000E+00 -0.00000000000E+00 -0.27876074119E+03  0.27876074119E+03  0.00000000000E+00 0. -1.
        -13    1    1    2    0    0  0.11873700410E+03 -0.13420674615E+03  0.98443914343E+01  0.17946267038E+03  0.10566000000E+00 0.  1.
         13    1    1    2    0    0 -0.10970689823E+03  0.14603557501E+03 -0.15070263717E+03  0.23679799134E+03  0.10566000000E+00 0. -1.
         -4    1    1    2    0  502 -0.90301058650E+01 -0.11828828861E+02  0.27485807225E+03  0.27526064718E+03  0.00000000000E+00 0. -1.
</event>
<event>
 5    1  0.1196676E-004  0.5093320E+03  0.7818608E-02  0.9780084E-01
          4   -1    0    0  502    0 -0.00000000000E+00  0.00000000000E+00  0.18555206482E+04  0.18555206482E+04  0.00000000000E+00 0.  1.
         21   -1    0    0  501  502  0.00000000000E+00 -0.00000000000E+00 -0.23434895129E+03  0.23434895129E+03  0.00000000000E+00 0.  1.
        -13    1    1    2    0    0 -0.87332355530E+02  0.51818297387E+03  0.42420841212E+03  0.67534681669E+03  0.10566000000E+00 0.  1.
         13    1    1    2    0    0  0.16132644390E+03 -0.19558641487E+02  0.65294649130E+03  0.67286543500E+03  0.10566000000E+00 0. -1.
          4    1    1    2  501    0 -0.73994088372E+02 -0.49862433238E+03  0.54401679352E+03  0.74165734783E+03  0.00000000000E+00 0.  1.
</event>
<event>
 5    1  0.1196676E-004  0.4900203E+03  0.7818608E-02  0.9662188E-01
          4   -1    0    0  502    0 -0.00000000000E+00  0.00000000000E+00  0.77705610660E+03  0.77705610660E+03  0.00000000000E+00 0.  1.
         21   -1    0    0  501  502  0.00000000000E+00 -0.00000000000E+00 -0.63778740559E+03  0.63778740559E+03  0.00000000000E+00 0.  1.
        -13    1    1    2    0    0  0.66531894512E+03  0.77701016531E+02  0.20928907346E+03  0.70177537299E+03  0.10566000000E+00 0.  1.
         13    1    1    2    0    0 -0.27033206520E+03 -0.48639815319E+02 -0.14405002310E+03  0.31015428005E+03  0.10566000000E+00 0. -1.
          4    1    1    2  501    0 -0.39498687991E+03 -0.29061201212E+02  0.74029650650E+02  0.40291385915E+03  0.00000000000E+00 0.  1.
</event>
<event>
 5    1  0.1196676E-004  0.4919375E+03  0.7818608E-02  0.9832682E-01
         -4   -1    0    0    0  501 -0.00000000000E+00  0.00000000000E+00  0.89401375141E+03  0.89401375141E+03  0.00000000000E+00 0. -1.
         21   -1    0    0  501  502  0.00000000000E+00 -0.00000000000E+00 -0.41456620503E+03  0.41456620503E+03  0.00000000000E+00 0. -1.
        -13    1    1    2    0    0 -0.13548043986E+03  0.66114728940E+02  0.22766090781E+03  0.27304872656E+03  0.10566000000E+00 0.  1.
         13    1    1    2    0    0  0.49111992790E+03  0.20569000098E+03  0.23273487697E+02  0.53296231244E+03  0.10566000000E+00 0. -1.
         -4    1    1    2    0  502 -0.35563948804E+03 -0.27180472992E+03  0.22851315087E+03  0.50256891744E+03  0.00000000000E+00 0. -1.
</event>
<event>
 5    1  0.1196676E-004  0.3085208E+03  0.7818608E-02  0.1012615E+00
         21   -1    0    0  501  502  0.00000000000E+00  0.00000000000E+00  0.19389177922E+03  0.19389177922E+03  0.00000000000E+00 0. -1.
         -4   -1    0    0    0  501 -0.00000000000E+00 -0.00000000000E+00 -0.24357224318E+04  0.24357224318E+04  0.00000000000E+00 0. -1.
        -13    1    1    2    0    0  0.16912160801E+03 -0.15962190150E+03 -0.95040496905E+03  0.97844309292E+03  0.10566000000E+00 0.  1.
         13    1    1    2    0    0 -0.15024336792E+03  0.45122243620E+03 -0.12723640493E+04  0.13583390747E+04  0.10566000000E+00 0. -1.
         -4    1    1    2    0  502 -0.18878240091E+02 -0.29160053470E+03 -0.19061634226E+02  0.29283204348E+03  0.00000000000E+00 0. -1.
</event>
<event>
 5    1  0.1196676E-004  0.1202563E+04  0.7818608E-02  0.8604635E-01
         -4   -1    0    0    0  501 -0.00000000000E+00  0.00000000000E+00  0.18709837480E+04  0.18709837480E+04  0.00000000000E+00 0. -1.
         21   -1    0    0  501  502  0.00000000000E+00 -0.00000000000E+00 -0.10253660454E+04  0.10253660454E+04  0.00000000000E+00 0.  1.
        -13    1    1    2    0    0  0.85963928996E+03  0.88576297808E+03  0.40469907536E+03  0.12989754097E+04  0.10566000000E+00 0.  1.
         13    1    1    2    0    0 -0.60305996562E+03 -0.10269613763E+04  0.51148449010E+03  0.12961278430E+04  0.10566000000E+00 0. -1.
         -4    1    1    2    0  502 -0.25657932434E+03  0.14119839823E+03 -0.70565862885E+02  0.30124654081E+03  0.00000000000E+00 0. -1.
</event>
