<event>
 5    1  0.8445827E-005  0.4452474E+03  0.7818608E-02  0.9632037E-01
         21   -1    0    0  501  502  0.00000000000E+00  0.00000000000E+00  0.14050201083E+03  0.14050201083E+03  0.00000000000E+00 0.  1.
         -4   -1    0    0    0  501 -0.00000000000E+00 -0.00000000000E+00 -0.43164285475E+04  0.43164285475E+04  0.00000000000E+00 0. -1.
        -13    1    1    2    0    0 -0.34612374234E+03  0.31142488571E+03 -0.15769362856E+04  0.16442369551E+04  0.10566000000E+00 0.  1.
         13    1    1    2    0    0 -0.10590411147E+03 -0.45481978381E+03 -0.19721117632E+04  0.20266478565E+04  0.10566000000E+00 0. -1.
         -4    1    1    2    0  502  0.45202785381E+03  0.14339489810E+03 -0.62687848787E+03  0.78604574674E+03  0.00000000000E+00 0. -1.
</event>
<event>
 5    1  0.9837750E-005  0.2542308E+03  0.7818608E-02  0.1034923E+00
         21   -1    0    0  501  502  0.00000000000E+00  0.00000000000E+00  0.31283599930E+03  0.31283599930E+03  0.00000000000E+00 0.  1.
          4   -1    0    0  502    0 -0.00000000000E+00 -0.00000000000E+00 -0.12255903661E+04  0.12255903661E+04  0.00000000000E+00 0.  1.
        -13    1    1    2    0    0 -0.15023031103E+03  0.52961414274E+01 -0.90203203910E+03  0.91447198218E+03  0.10566000000E+00 0.  1.
         13    1    1    2    0    0 -0.24865306544E+02 -0.20531975136E+03 -0.20768786487E+03  0.29310193474E+03  0.10566000000E+00 0. -1.
          4    1    1    2  501    0  0.17509561757E+03  0.20002360993E+03  0.19696553718E+03  0.33085244847E+03  0.00000000000E+00 0.  1.
</event>
<event>
 5    1  0.8445827E-005  0.2404105E+03  0.7818608E-02  0.1061538E+00
         -4   -1    0    0    0  501 -0.00000000000E+00  0.00000000000E+00  0.61324486543E+03  0.61324486543E+03  0.00000000000E+00 0. -1.
         21   -1    0    0  501  502  0.00000000000E+00 -0.00000000000E+00 -0.18585390209E+03  0.18585390209E+03  0.00000000000E+00 0. -1.
        -13    1    1    2    0    0  0.10873871941E+03  0.19878899989E+02  0.20955818485E+03  0.23692598795E+03  0.10566000000E+00 0.  1.
         13    1    1    2    0    0 -0.27165530107E+03 -0.14608945135E+03  0.16324537950E+03  0.34898108184E+03  0.10566000000E+00 0. -1.
         -4    1    1    2    0  502  0.16291658165E+03  0.12621055136E+03  0.54587398990E+02  0.21319169773E+03  0.00000000000E+00 0. -1.
</event>
<event>
 5    1  0.8445827E-005  0.2984303E+03  0.7818608E-02  0.1014798E+00
         -4   -1    0    0    0  501 -0.00000000000E+00  0.00000000000E+00  0.25621809905E+04  0.25621809905E+04  0.00000000000E+00 0. -1.
         21   -1    0    0  501  502  0.00000000000E+00 -0.00000000000E+00 -0.25231030986E+03  0.25231030986E+03  0.00000000000E+00 0. -1.
        -13    1    1    2    0    0  0.35446404898E+03 -0.11533910167E+03  0.13380413402E+04  0.13889933440E+04  0.10566000000E+00 0.  1.
         13    1    1    2    0    0 -0.71207232333E+02  0.20928720793E+03  0.10842781078E+04  0.11065851217E+04  0.10566000000E+00 0. -1.
         -4    1    1    2    0  502 -0.28325681664E+03 -0.93948106254E+02 -0.11244876735E+03  0.31891283468E+03  0.00000000000E+00 0. -1.
</event>
<event>
 5    1  0.8445827E-005  0.4782169E+03  0.7818608E-02  0.1005441E+00
         21   -1    0    0  501  502  0.00000000000E+00  0.00000000000E+00  0.69419505628E+03  0.69419505628E+03  0.00000000000E+00 0.  1.
          4   -1    0    0  502    0 -0.00000000000E+00 -0.00000000000E+00 -0.45927045155E+03  0.45927045155E+03  0.00000000000E+00 0.  1.
        -13    1    1    2    0    0  0.30650645569E+03 -0.40230413181E+03  0.25034863208E+03  0.56433081663E+03  0.10566000000E+00 0.  1.
         13    1    1    2    0    0 -0.51717942012E+02  0.59281359783E+02  0.11770941248E+03  0.14157874873E+03  0.10566000000E+00 0. -1.
          4    1    1    2  501    0 -0.25478851368E+03  0.34302277203E+03 -0.13313343982E+03  0.44755594246E+03  0.00000000000E+00 0.  1.
</event>
<event>
 5    1  0.8445827E-005  0.4939273E+03  0.7818608E-02  0.9671002E-01
         21   -1    0    0  501  502  0.00000000000E+00  0.00000000000E+00  0.15478462872E+03  0.15478462872E+03  0.00000000000E+00 0.  1.
          4   -1    0    0  502    0 -0.00000000000E+00 -0.00000000000E+00 -0.27828785063E+04  0.27828785063E+04  0.00000000000E+00 0.  1.
        -13    1    1    2    0    0  0.34250029002E+03  0.61028679938E+02 -0.13287070414E+04  0.13734967643E+04  0.10566000000E+00 0.  1.
         13    1    1    2    0    0  0.25734216234E+03  0.37378560682E+02 -0.33307234003E+03  0.42256282394E+03  0.10566000000E+00 0. -1.
          4    1    1    2  501    0 -0.59984245236E+03 -0.98407240620E+02 -0.96631449619E+03  0.11416035469E+04  0.00000000000E+00 0.  1.
</event>
<event>
 5    1  0.8445827E-005  0.5096095E+03  0.7818608E-02  0.1010536E+00
         21   -1    0    0  501  502  0.00000000000E+00  0.00000000000E+00  0.19896924548E+03  0.19896924548E+03  0.00000000000E+00 0.  1.
          4   -1    0    0  502    0 -0.00000000000E+00 -0.00000000000E+00 -0.16001545170E+04  0.16001545170E+04  0.00000000000E+00 0.  1.
        -13    1    1    2    0    0 -0.10734555547E+03 -0.50720378457E+03 -0.57336332184E+03  0.77299693231E+03  0.10566000000E+00 0.  1.
         13    1    1    2    0    0 -0.46861716759E+02  0.29089513728E+02 -0.26940227358E+03  0.27499057526E+03  0.10566000000E+00 0. -1.
          4    1    1    2  501    0  0.15420727223E+03  0.47811427084E+03 -0.55841967606E+03  0.75113625488E+03  0.00000000000E+00 0.  1.
</event>
<event>
 5    1  0.8445827E-005  0.1559272E+03  0.7818608E-02  0.1095409E+00
         21   -1    0    0  501  502  0.00000000000E+00  0.00000000000E+00  0.23745292628E+03  0.23745292628E+03  0.00000000000E+00 0.  1.
         -4   -1    0    0    0  501 -0.00000000000E+00 -0.00000000000E+00 -0.14976645630E+03  0.14976645630E+03  0.00000000000E+00 0. -1.
        -13    1    1    2    0    0 -0.30290087889E+02  0.14573242953E+03  0.61238099603E+02  0.16095200044E+03  0.10566000000E+00 0.  1.
         13    1    1    2    0    0  0.45947857879E+02 -0.15355685937E+03 -0.33558857211E+02  0.16375934405E+03  0.10566000000E+00 0. -1.
         -4    1    1    2    0  502 -0.15657769990E+02  0.78244298398E+01  0.60007227586E+02  0.62508038090E+02  0.00000000000E+00 0. -1.
</event>
<event>
 5    1  0.8445827E-005  0.1864458E+03  0.7818608E-02  0.1069847E+00
         21   -1    0    0  501  502  0.00000000000E+00  0.00000000000E+00  0.36945882641E+03  0.36945882641E+03  0.00000000000E+00 0. -1.
          4   -1    0    0  502    0 -0.00000000000E+00 -0.00000000000E+00 -0.20389354734E+03  0.20389354734E+03  0.00000000000E+00 0.  1.
        -13    1    1    2    0    0  0.55322568205E+02 -0.17084830231E+03 -0.87468027732E+02  0.19975083477E+03  0.10566000000E+00 0.  1.
         13    1    1    2    0    0 -0.10587512376E+03  0.19256498802E+03  0.19835747856E+03  0.29603465491E+03  0.10566000000E+00 0. -1.
          4    1    1    2  501    0  0.50552555551E+02 -0.21716685710E+02  0.54675828241E+02  0.77566884073E+02  0.00000000000E+00 0.  1.
</event>
<event>
 5    1  0.8445827E-005  0.4468361E+02  0.7818608E-02  0.1315091E+00
         21   -1    0    0  501  502  0.00000000000E+00  0.00000000000E+00  0.79738331098E+01  0.79738331098E+01  0.00000000000E+00 0.  1.
         -4   -1    0    0    0  501 -0.00000000000E+00 -0.00000000000E+00 -0.43950034487E+03  0.43950034487E+03  0.00000000000E+00 0. -1.
        -13    1    1    2    0    0  0.46449994074E+02  0.23010914145E+02 -0.17801089925E+03  0.18540495014E+03  0.10566000000E+00 0.  1.
         13    1    1    2    0    0 -0.37535400022E+02 -0.17322268237E+02 -0.24507922930E+03  0.24854135879E+03  0.10566000000E+00 0. -1.
         -4    1    1    2    0  502 -0.89145940524E+01 -0.56886459080E+01 -0.84363832072E+01  0.13527869049E+02  0.00000000000E+00 0. -1.
</event>
<event>
 5    1  0.8445827E-005  0.4260482E+03  0.7818608E-02  0.9820062E-01
         21   -1    0    0  501  502  0.00000000000E+00  0.00000000000E+00  0.30573946917E+03  0.30573946917E+03  0.00000000000E+00 0. -1.
         -4   -1    0    0    0  501 -0.00000000000E+00 -0.00000000000E+00 -0.17219278714E+04  0.17219278714E+04  0.00000000000E+00 0. -1.
        -13    1    1    2    0    0 -0.12541357192E+03 -0.20723646022E+03 -0.99241692443E+03  0.10215512114E+04  0.10566000000E+00 0.  1.
         13    1    1    2    0    0 -0.20708403643E+03 -0.26408763037E+03 -0.16363858608E+03  0.37336801239E+03  0.10566000000E+00 0. -1.
         -4    1    1    2    0  502  0.33249760835E+03  0.47132409059E+03 -0.26013289174E+03  0.63274811679E+03  0.00000000000E+00 0. -1.
</event>
<event>
 5    1  0.8445827E-005  0.4660504E+03  0.7818608E-02  0.9828102E-01
          4   -1    0    0  502    0 -0.00000000000E+00  0.00000000000E+00  0.14088024173E+03  0.14088024173E+03  0.00000000000E+00 0.  1.
         21   -1    0    0  501  502  0.00000000000E+00 -0.00000000000E+00 -0.27107521473E+04  0.27107521473E+04  0.00000000000E+00 0.  1.
        -13    1    1    2    0    0 -0.51106460019E+03  0.23774451042E+03 -0.14318699704E+04  0.15388180857E+04  0.10566000000E+00 0.  1.
         13    1    1    2    0    0  0.17950727877E+03 -0.14228961261E+02 -0.11302729378E+03  0.21260410808E+03  0.10566000000E+00 0. -1.
          4    1    1    2  501    0  0.33155732142E+03 -0.22351554915E+03 -0.10249746414E+04  0.11002101952E+04  0.00000000000E+00 0.  1.
</event>
<event>
 5    1  0.8445827E-005  0.6348723E+02  0.7818608E-02  0.1244927E+00
         21   -1    0    0  501  502  0.00000000000E+00  0.00000000000E+00  0.27150321082E+03  0.27150321082E+03  0.00000000000E+00 0. -1.
          4   -1    0    0  502    0 -0.00000000000E+00 -0.00000000000E+00 -0.14063397010E+03  0.14063397010E+03  0.00000000000E+00 0.  1.
        -13    1    1    2    0    0 -0.59062690442E+02 -0.20878360124E+02 -0.12156173817E+03  0.13675370077E+03  0.10566000000E+00 0.  1.
         13    1    1    2    0    0  0.83089143018E+02  0.20061527617E+02  0.18491241539E+03  0.20371274655E+03  0.10566000000E+00 0. -1.
          4    1    1    2  501    0 -0.24026452575E+02  0.81683250727E+00  0.67518563497E+02  0.71670733605E+02  0.00000000000E+00 0.  1.
</event>
<event>
 5    1  0.8445827E-005  0.3337451E+03  0.7818608E-02  0.9942759E-01
          4   -1    0    0  502    0 -0.00000000000E+00  0.00000000000E+00  0.16732444546E+04  0.16732444546E+04  0.00000000000E+00 0.  1.
         21   -1    0    0  501  502  0.00000000000E+00 -0.00000000000E+00 -0.29986506032E+03  0.29986506032E+03  0.00000000000E+00 0.  1.
        -13    1    1    2    0    0 -0.51514728481E+03 -0.88019079727E+02  0.48439191165E+02  0.52485278874E+03  0.10566000000E+00 0.  1.
         13    1    1    2    0    0  0.25898770352E+03  0.16919456087E+03  0.59877694381E+03  0.67396978390E+03  0.10566000000E+00 0. -1.
          4    1    1    2  501    0  0.25615958130E+03 -0.81175481139E+02  0.72616325932E+03  0.77428694230E+03  0.00000000000E+00 0.  1.
</event>
<event>
 5    1  0.8445827E-005  0.1373874E+03  0.7818608E-02  0.1114263E+00
         21   -1    0    0  501  502  0.00000000000E+00  0.00000000000E+00  0.18615913778E+03  0.18615913778E+03  0.00000000000E+00 0. -1.
         -4   -1    0    0    0  501 -0.00000000000E+00 -0.00000000000E+00 -0.93551014320E+03  0.93551014320E+03  0.00000000000E+00 0. -1.
        -13    1    1    2    0    0  0.94411175364E+02  0.87995785678E+02 -0.12916538267E+03  0.18259363509E+03  0.10566000000E+00 0.  1.
         13    1    1    2    0    0 -0.10195943110E+03 -0.94955557554E+02 -0.77323242356E+03  0.78568484490E+03  0.10566000000E+00 0. -1.
         -4    1    1    2    0  502  0.75482557346E+01  0.69597718754E+01  0.15304680081E+03  0.15339080099E+03  0.00000000000E+00 0. -1.
</event>
<event>
 5    1  0.8445827E-005  0.4954712E+03  0.7818608E-02  0.9519770E-01
         21   -1    0    0  501  502  0.00000000000E+00  0.00000000000E+00  0.34665832031E+03  0.34665832031E+03  0.00000000000E+00 0.  1.
         -4   -1    0    0    0  501 -0.00000000000E+00 -0.00000000000E+00 -0.17087593039E+04  0.17087593039E+04  0.00000000000E+00 0. -1.
        -13    1    1    2    0    0  0.12762892259E+03  0.42257061508E+03 -0.29564257616E+03  0.53128110319E+03  0.10566000000E+00 0.  1.
         13    1    1    2    0    0  0.22237287599E+03  0.16888970221E+03 -0.68131017939E+03  0.73631311219E+03  0.10566000000E+00 0. -1.
         -4    1    1    2    0  502 -0.35000179858E+03 -0.59146031729E+03 -0.38514822805E+03  0.78782340883E+03  0.00000000000E+00 0. -1.
</event>
<event>
 5    1  0.8445827E-005  0.4453727E+03  0.7818608E-02  0.9964257E-01
          4   -1    0    0  502    0 -0.00000000000E+00  0.00000000000E+00  0.23136859588E+04  0.23136859588E+04  0.00000000000E+00 0.  1.
         21   -1    0    0  501  502  0.00000000000E+00 -0.00000000000E+00 -0.14838003382E+03  0.14838003382E+03  0.00000000000E+00 0.  1.
        -13    1    1    2    0    0 -0.17090735146E+03  0.44337523670E+03  0.37908376194E+03  0.60786136004E+03  0.10566000000E+00 0.  1.
         13    1    1    2    0    0  0.99683532364E+02 -0.84680251118E+02  0.42082782936E+03  0.44068540330E+03  0.10566000000E+00 0. -1.
          4    1    1    2  501    0  0.71223819097E+02 -0.35869498558E+03  0.13653943337E+04  0.14135192293E+04  0.00000000000E+00 0.  1.
</event>
<event>
 5    1  0.8445827E-005  0.4821572E+03  0.7818608E-02  0.9790387E-01
         21   -1    0    0  501  502  0.00000000000E+00  0.00000000000E+00  0.48724657664E+03  0.48724657664E+03  0.00000000000E+00 0. -1.
         -4   -1    0    0    0  501 -0.00000000000E+00 -0.00000000000E+00 -0.94533987023E+03  0.94533987023E+03  0.00000000000E+00 0. -1.
        -13    1    1    2    0    0 -0.41098513047E+02  0.18029799774E+03 -0.36278273918E+03  0.40719501811E+03  0.10566000000E+00 0.  1.
         13    1    1    2    0    0 -0.18737541157E+03 -0.54750134364E+03 -0.12453369253E+03  0.59192560165E+03  0.10566000000E+00 0. -1.
         -4    1    1    2    0  502  0.22847392462E+03  0.36720334590E+03  0.29223138122E+02  0.43346582711E+03  0.00000000000E+00 0. -1.
</event>
<event>
 5    1  0.8445827E-005  0.5033916E+03  0.7818608E-02  0.9558369E-01
         -4   -1    0    0    0  501 -0.00000000000E+00  0.00000000000E+00  0.86885637826E+03  0.86885637826E+03  0.00000000000E+00 0. -1.
         21   -1    0    0  501  502  0.00000000000E+00 -0.00000000000E+00 -0.64821498928E+03  0.64821498928E+03  0.00000000000E+00 0. -1.
        -13    1    1    2    0    0 -0.73080954409E+02 -0.35889153030E+03  0.23575315999E+03  0.43557263462E+03  0.10566000000E+00 0.  1.
         13    1    1    2    0    0  0.49611539010E+03  0.34664578695E+03 -0.17353114692E+03  0.62960849107E+03  0.10566000000E+00 0. -1.
         -4    1    1    2    0  502 -0.42303443569E+03  0.12245743355E+02  0.15841937591E+03  0.45189024185E+03  0.00000000000E+00 0. -1.
</event>
<event>
 5    1  0.8445827E-005  0.4765256E+03  0.7818608E-02  0.9530962E-01
         21   -1    0    0  501  502  0.00000000000E+00  0.00000000000E+00  0.16771171732E+04  0.16771171732E+04  0.00000000000E+00 0.  1.
         -4   -1    0    0    0  501 -0.00000000000E+00 -0.00000000000E+00 -0.59475148226E+03  0.59475148226E+03  0.00000000000E+00 0. -1.
        -13    1    1    2    0    0 -0.37367301663E+03 -0.27333424646E+03 -0.26383516873E+03  0.53287159904E+03  0.10566000000E+00 0.  1.
         13    1    1    2    0    0  0.24410599968E+03  0.64063922631E+03  0.10300906157E+04  0.12373734461E+04  0.10566000000E+00 0. -1.
         -4    1    1    2    0  502  0.12956701695E+03 -0.36730497985E+03  0.31611024398E+03  0.50162361034E+03  0.00000000000E+00 0. -1.
</event>
<event>
 5    1  0.8445827E-005  0.3632928E+03  0.7818608E-02  0.9841492E-01
          4   -1    0    0  502    0 -0.00000000000E+00  0.00000000000E+00  0.15167898598E+04  0.15167898598E+04  0.00000000000E+00 0.  1.
         21   -1    0    0  501  502  0.00000000000E+00 -0.00000000000E+00 -0.31674202454E+03  0.31674202454E+03  0.00000000000E+00 0.  1.
        -13    1    1    2    0    0 -0.17640881026E+03  0.40135554637E+03  0.91365800517E+03  0.10133988872E+04  0.10566000000E+00 0.  1.
         13    1    1    2    0    0  0.26410359307E+03 -0.17372011182E+03  0.43255290591E+03  0.53575312664E+03  0.10566000000E+00 0. -1.
          4    1    1    2  501    0 -0.87694782818E+02 -0.22763543455E+03 -0.14616307585E+03  0.28437987049E+03  0.00000000000E+00 0.  1.
</event>
<event>
 5    1  0.8445827E-005  0.1484752E+03  0.7818608E-02  0.1108474E+00
          4   -1    0    0  502    0 -0.00000000000E+00  0.00000000000E+00  0.14418744475E+04  0.14418744475E+04  0.00000000000E+00 0.  1.
         21   -1    0    0  501  502  0.00000000000E+00 -0.00000000000E+00 -0.11430353606E+03  0.11430353606E+03  0.00000000000E+00 0.  1.
        -13    1    1    2    0    0 -0.28880003176E+02  0.26082608003E+03  0.12391124514E+04  0.12665954275E+04  0.10566000000E+00 0.  1.
         13    1    1    2    0    0 -0.11798247557E+01 -0.12691567563E+03  0.11577835365E+01  0.12692648397E+03  0.10566000000E+00 0. -1.
          4    1    1    2  501    0  0.30059827932E+02 -0.13391040440E+03  0.87300676458E+02  0.16265607204E+03  0.00000000000E+00 0.  1.
</event>
<event>
 5    1  0.8445827E-005  0.2928260E+03  0.7818608E-02  0.1010311E+00
         21   -1    0    0  501  502  0.00000000000E+00  0.00000000000E+00  0.39987463193E+03  0.39987463193E+03  0.00000000000E+00 0. -1.
         -4   -1    0    0    0  501 -0.00000000000E+00 -0.00000000000E+00 -0.44510319934E+03  0.44510319934E+03  0.00000000000E+00 0. -1.
        -13    1    1    2    0    0  0.22399383703E+03  0.68062170269E+02  0.52954382129E+02  0.24002057370E+03  0.10566000000E+00 0.  1.
         13    1    1    2    0    0 -0.36197090965E+03  0.10150921701E+03 -0.88048958145E+02  0.38610839251E+03  0.10566000000E+00 0. -1.
         -4    1    1    2    0  502  0.13797707263E+03 -0.16957138728E+03 -0.10133991389E+02  0.21884886506E+03  0.00000000000E+00 0. -1.
</event>
<event>
 5    1  0.8445827E-005  0.1809836E+03  0.7818608E-02  0.1074017E+00
         21   -1    0    0  501  502  0.00000000000E+00  0.00000000000E+00  0.24954117465E+03  0.24954117465E+03  0.00000000000E+00 0. -1.
          4   -1    0    0  502    0 -0.00000000000E+00 -0.00000000000E+00 -0.15543788995E+03  0.15543788995E+03  0.00000000000E+00 0.  1.
        -13    1    1    2    0    0 -0.54125180430E+02 -0.16507304616E+03  0.42070527048E+02  0.17874167431E+03  0.10566000000E+00 0.  1.
         13    1    1    2    0    0  0.62712334851E+02  0.17700131446E+03  0.17366358469E+02  0.18858394373E+03  0.10566000000E+00 0. -1.
          4    1    1    2  501    0 -0.85871544210E+01 -0.11928268299E+02  0.34666399177E+02  0.37653446556E+02  0.00000000000E+00 0.  1.
</event>
<event>
 5    1  0.8445827E-005  0.8022620E+02  0.7818608E-02  0.1202193E+00
         -4   -1    0    0    0  501 -0.00000000000E+00  0.00000000000E+00  0.15301580732E+03  0.15301580732E+03  0.00000000000E+00 0. -1.
         21   -1    0    0  501  502  0.00000000000E+00 -0.00000000000E+00 -0.12973012104E+03  0.12973012104E+03  0.00000000000E+00 0.  1.
        -13    1    1    2    0    0  0.95059849582E+02  0.44494816619E+02 -0.40351199274E+02  0.11244729501E+03  0.10566000000E+00 0.  1.
         13    1    1    2    0    0 -0.45968139230E+02 -0.62194337061E+02  0.84091641034E+02  0.11424806625E+03  0.10566000000E+00 0. -1.
         -4    1    1    2    0  502 -0.49091710351E+02  0.17699520442E+02 -0.20454755478E+02  0.56050567087E+02  0.00000000000E+00 0. -1.
</event>
<event>
 5    1  0.8445827E-005  0.4737221E+02  0.7818608E-02  0.1302874E+00
         21   -1    0    0  501  502  0.00000000000E+00  0.00000000000E+00  0.14687711897E+03  0.14687711897E+03  0.00000000000E+00 0. -1.
         -4   -1    0    0    0  501 -0.00000000000E+00 -0.00000000000E+00 -0.48875313049E+02  0.48875313049E+02  0.00000000000E+00 0. -1.
        -13    1    1    2    0    0  0.31651377431E+02  0.33971717065E+02 -0.13903014847E+02  0.48468466445E+02  0.10566000000E+00 0.  1.
         13    1    1    2    0    0 -0.52166573517E+02 -0.17076639019E+02  0.33053347093E+02  0.64074159463E+02  0.10566000000E+00 0. -1.
         -4    1    1    2    0  502  0.20515196086E+02 -0.16895078046E+02  0.78851473676E+02  0.83209806114E+02  0.00000000000E+00 0. -1.
</event>
<event>
 5    1  0.8445827E-005  0.3782015E+03  0.7818608E-02  0.1011204E+00
         21   -1    0    0  501  502  0.00000000000E+00  0.00000000000E+00  0.87291420247E+03  0.87291420247E+03  0.00000000000E+00 0. -1.
         -4   -1    0    0    0  501 -0.00000000000E+00 -0.00000000000E+00 -0.47822657444E+03  0.47822657444E+03  0.00000000000E+00 0. -1.
        -13    1    1    2    0    0 -0.17609003365E+02 -0.13089951395E+03 -0.15600516721E+03  0.20440739495E+03  0.10566000000E+00 0.  1.
         13    1    1    2    0    0  0.38549732574E+03  0.34420824979E+02 -0.93939048755E+02  0.39826817271E+03  0.10566000000E+00 0. -1.
         -4    1    1    2    0  502 -0.36788832238E+03  0.96478688974E+02  0.64463184399E+03  0.74846520925E+03  0.00000000000E+00 0. -1.
</event>
<event>
 5    1  0.8445827E-005  0.4507386E+03  0.7818608E-02  0.9726705E-01
         21   -1    0    0  501  502  0.00000000000E+00  0.00000000000E+00  0.70201851466E+03  0.70201851466E+03  0.00000000000E+00 0. -1.
         -4   -1    0    0    0  501 -0.00000000000E+00 -0.00000000000E+00 -0.12899802198E+04  0.12899802198E+04  0.00000000000E+00 0. -1.
        -13    1    1    2    0    0 -0.47499989284E+02  0.56804252556E+03 -0.62133308013E+03  0.84319829664E+03  0.10566000000E+00 0.  1.
         13    1    1    2    0    0  0.10120606506E+03  0.25829974985E+03  0.14532945313E+03  0.31318060203E+03  0.10566000000E+00 0. -1.
         -4    1    1    2    0  502 -0.53706075781E+02 -0.82634227541E+03 -0.11195807813E+03  0.83561983579E+03  0.00000000000E+00 0. -1.
</event>
<event>
 5    1  0.8445827E-005  0.4720304E+02  0.7818608E-02  0.1303615E+00
         21   -1    0    0  501  502  0.00000000000E+00  0.00000000000E+00  0.61397014869E+02  0.61397014869E+02  0.00000000000E+00 0. -1.
          4   -1    0    0  502    0 -0.00000000000E+00 -0.00000000000E+00 -0.84330597857E+02  0.84330597857E+02  0.00000000000E+00 0.  1.
        -13    1    1    2    0    0 -0.45597894060E+02 -0.17821595519E+02 -0.63341119152E+02  0.80055516668E+02  0.10566000000E+00 0.  1.
         13    1    1    2    0    0  0.34208395982E+02  0.20130029110E+02  0.27407167697E+02  0.48234805201E+02  0.10566000000E+00 0. -1.
          4    1    1    2  501    0  0.11389498078E+02 -0.23084335907E+01  0.13000368468E+02  0.17437290856E+02  0.00000000000E+00 0.  1.
</event>
<event>
 5    1  0.8445827E-005  0.4883578E+03  0.7818608E-02  0.9637014E-01
         -4   -1    0    0    0  501 -0.00000000000E+00  0.00000000000E+00  0.28850038619E+04  0.28850038619E+04  0.00000000000E+00 0. -1.
         21   -1    0    0  501  502  0.00000000000E+00 -0.00000000000E+00 -0.16444020102E+03  0.16444020102E+03  0.00000000000E+00 0. -1.
        -13    1    1    2    0    0 -0.25348544406E+03 -0.16635695147E+03  0.87278532987E+03  0.92395007920E+03  0.10566000000E+00 0.  1.
         13    1    1    2    0    0  0.59314705070E+01  0.54322341427E+03  0.65886776490E+03  0.85395175680E+03  0.10566000000E+00 0. -1.
         -4    1    1    2    0  502  0.24755397356E+03 -0.37686646280E+03  0.11889105661E+04  0.12715422269E+04  0.00000000000E+00 0. -1.
</event>
<event>
 5    1  0.8445827E-005  0.4915890E+03  0.7818608E-02  0.9621881E-01
         21   -1    0    0  501  502  0.00000000000E+00  0.00000000000E+00  0.31734201073E+03  0.31734201073E+03  0.00000000000E+00 0.  1.
          4   -1    0    0  502    0 -0.00000000000E+00 -0.00000000000E+00 -0.15617140531E+04  0.15617140531E+04  0.00000000000E+00 0.  1.
        -13    1    1    2    0    0  0.34714563607E+03 -0.94741909315E+01 -0.62506734269E+03  0.71505877171E+03  0.10566000000E+00 0.  1.
         13    1    1    2    0    0  0.28002744886E+03 -0.14115951348E+03 -0.81033838165E+02  0.32389485092E+03  0.10566000000E+00 0. -1.
          4    1    1    2  501    0 -0.62717308493E+03  0.15063370441E+03 -0.53827086155E+03  0.84010244123E+03  0.00000000000E+00 0.  1.
</event>
<event>
 5    1  0.8445827E-005  0.4496680E+02  0.7818608E-02  0.1313759E+00
          4   -1    0    0  502    0 -0.00000000000E+00  0.00000000000E+00  0.27547011626E+02  0.27547011626E+02  0.00000000000E+00 0.  1.
         21   -1    0    0  501  502  0.00000000000E+00 -0.00000000000E+00 -0.24960830788E+03  0.24960830788E+03  0.00000000000E+00 0.  1.
        -13    1    1    2    0    0 -0.17993539906E+02 -0.47216712931E+02 -0.44757602975E+01  0.50727005161E+02  0.10566000000E+00 0.  1.
         13    1    1    2    0    0  0.12291043741E+02  0.29312429155E+02 -0.61619362201E+02  0.69334300468E+02  0.10566000000E+00 0. -1.
          4    1    1    2  501    0  0.57024961648E+01  0.17904283775E+02 -0.15596617376E+03  0.15709401388E+03  0.00000000000E+00 0.  1.
</event>
<event>
 5    1  0.1958468E-004  0.4129250E+03  0.7818608E-02  0.9848557E-01
          4   -1    0    0  502    0 -0.00000000000E+00  0.00000000000E+00  0.11688781245E+04  0.11688781245E+04  0.00000000000E+00 0.  1.
         21   -1    0    0  501  502  0.00000000000E+00 -0.00000000000E+00 -0.62704763046E+03  0.62704763046E+03  0.00000000000E+00 0.  1.
        -13    1    1    2    0    0  0.17859378712E+03  0.14570194493E+03  0.30350575731E+03  0.38110438654E+03  0.10566000000E+00 0.  1.
         13    1    1    2    0    0  0.12147359204E+03  0.20880074879E+03  0.71174274159E+03  0.75161913735E+03  0.10566000000E+00 0. -1.
          4    1    1    2  501    0 -0.30006737916E+03 -0.35450269372E+03 -0.47341800490E+03  0.66320223103E+03  0.00000000000E+00 0.  1.
</event>
<event>
 5    1  0.8445827E-005  0.3164892E+03  0.7818608E-02  0.1047508E+00
         21   -1    0    0  501  502  0.00000000000E+00  0.00000000000E+00  0.25002498020E+03  0.25002498020E+03  0.00000000000E+00 0. -1.
         -4   -1    0    0    0  501 -0.00000000000E+00 -0.00000000000E+00 -0.11824716778E+04  0.11824716778E+04  0.00000000000E+00 0. -1.
        -13    1    1    2    0    0  0.72409463025E+02  0.11241214224E+02 -0.46375056331E+02  0.86718811376E+02  0.10566000000E+00 0.  1.
         13    1    1    2    0    0  0.24817745663E+03 -0.18710249633E+03  0.73089041985E+02  0.31928265430E+03  0.10566000000E+00 0. -1.
         -4    1    1    2    0  502 -0.32058691965E+03  0.17586128210E+03 -0.95916068329E+03  0.10264951924E+04  0.00000000000E+00 0. -1.
</event>
<event>
 5    1  0.8445827E-005  0.6283795E+03  0.7818608E-02  0.9233900E-01
         -4   -1    0    0    0  501 -0.00000000000E+00  0.00000000000E+00  0.81874858932E+03  0.81874858932E+03  0.00000000000E+00 0. -1.
         21   -1    0    0  501  502  0.00000000000E+00 -0.00000000000E+00 -0.12770310038E+04  0.12770310038E+04  0.00000000000E+00 0.  1.
        -13    1    1    2    0    0 -0.87711812628E+02 -0.68845558773E+03  0.18496235745E+03  0.71824476552E+03  0.10566000000E+00 0.  1.
         13    1    1    2    0    0  0.44070465102E+03  0.44299042622E+03 -0.26132956917E+02  0.62541510196E+03  0.10566000000E+00 0. -1.
         -4    1    1    2    0  502 -0.35299283840E+03  0.24546516151E+03 -0.61711181500E+03  0.75211972564E+03  0.00000000000E+00 0. -1.
</event>
<event>
 5    1  0.8445827E-005  0.2200680E+02  0.7818608E-02  0.1483715E+00
         21   -1    0    0  501  502  0.00000000000E+00  0.00000000000E+00  0.72268755313E+02  0.72268755313E+02  0.00000000000E+00 0.  1.
         -4   -1    0    0    0  501 -0.00000000000E+00 -0.00000000000E+00 -0.18484517069E+02  0.18484517069E+02  0.00000000000E+00 0. -1.
        -13    1    1    2    0    0  0.67014796589E+01 -0.12278059297E+02  0.40698247018E+02  0.43035090846E+02  0.10566000000E+00 0.  1.
         13    1    1    2    0    0 -0.56917352010E+01  0.23103705029E+02 -0.70647278004E+01  0.24821333135E+02  0.10566000000E+00 0. -1.
         -4    1    1    2    0  502 -0.10097444579E+01 -0.10825645732E+02  0.20150719026E+02  0.22896848400E+02  0.00000000000E+00 0. -1.
</event>
<event>
 5    1  0.8445827E-005  0.6978330E+02  0.7818608E-02  0.1227297E+00
         -4   -1    0    0    0  501 -0.00000000000E+00  0.00000000000E+00  0.94303561045E+02  0.94303561045E+02  0.00000000000E+00 0. -1.
         21   -1    0    0  501  502  0.00000000000E+00 -0.00000000000E+00 -0.80102371310E+02  0.80102371310E+02  0.00000000000E+00 0.  1.
        -13    1    1    2    0    0 -0.56342786205E+02 -0.99492954105E+01 -0.18775856183E+02  0.60216625411E+02  0.10566000000E+00 0.  1.
         13    1    1    2    0    0  0.72859996945E+02  0.25598883635E+02  0.44026727836E+02  0.88894577597E+02  0.10566000000E+00 0. -1.
         -4    1    1    2    0  502 -0.16517210740E+02 -0.15649588224E+02 -0.11049681918E+02  0.25294729347E+02  0.00000000000E+00 0. -1.
</event>
<event>
 5    1  0.8445827E-005  0.8819078E+02  0.7818608E-02  0.1185727E+00
         21   -1    0    0  501  502  0.00000000000E+00  0.00000000000E+00  0.31489106812E+03  0.31489106812E+03  0.00000000000E+00 0.  1.
         -4   -1    0    0    0  501 -0.00000000000E+00 -0.00000000000E+00 -0.13620059932E+03  0.13620059932E+03  0.00000000000E+00 0. -1.
        -13    1    1    2    0    0  0.70397894384E+02 -0.74555697760E+02  0.17401729824E+03  0.20198130322E+03  0.10566000000E+00 0.  1.
         13    1    1    2    0    0 -0.56257434581E+02  0.66381657595E+02 -0.10605576833E+03  0.13718331010E+03  0.10566000000E+00 0. -1.
         -4    1    1    2    0  502 -0.14140459804E+02  0.81740401649E+01  0.11072893889E+03  0.11192705412E+03  0.00000000000E+00 0. -1.
</event>
<event>
 5    1  0.8445827E-005  0.2555790E+03  0.7818608E-02  0.1027542E+00
         -4   -1    0    0    0  501 -0.00000000000E+00  0.00000000000E+00  0.14455869327E+04  0.14455869327E+04  0.00000000000E+00 0. -1.
         21   -1    0    0  501  502  0.00000000000E+00 -0.00000000000E+00 -0.14139174370E+03  0.14139174370E+03  0.00000000000E+00 0. -1.
        -13    1    1    2    0    0  0.86963417758E+02 -0.23653158387E+03  0.36324906193E+03  0.44210826542E+03  0.10566000000E+00 0.  1.
         13    1    1    2    0    0 -0.79254268300E+02  0.24454555625E+03  0.10267026096E+04  0.10583959693E+04  0.10566000000E+00 0. -1.
         -4    1    1    2    0  502 -0.77091494577E+01 -0.80139723795E+01 -0.85756482615E+02  0.86474441595E+02  0.00000000000E+00 0. -1.
</event>
<event>
 5    1  0.8445827E-005  0.5491334E+03  0.7818608E-02  0.9376328E-01
         21   -1    0    0  501  502  0.00000000000E+00  0.00000000000E+00  0.28595808453E+03  0.28595808453E+03  0.00000000000E+00 0. -1.
          4   -1    0    0  502    0 -0.00000000000E+00 -0.00000000000E+00 -0.13680968130E+04  0.13680968130E+04  0.00000000000E+00 0.  1.
        -13    1    1    2    0    0  0.56051990559E+03  0.32032901270E+02 -0.23793701033E+03  0.60977266532E+03  0.10566000000E+00 0.  1.
         13    1    1    2    0    0 -0.54213766282E+03 -0.44601743221E+02 -0.85956462952E+03  0.10172285507E+04  0.10566000000E+00 0. -1.
          4    1    1    2  501    0 -0.18382242769E+02  0.12568841951E+02  0.15362911362E+02  0.27053681500E+02  0.00000000000E+00 0.  1.
</event>
<event>
 5    1  0.8445827E-005  0.2695867E+03  0.7818608E-02  0.1020714E+00
          4   -1    0    0  502    0 -0.00000000000E+00  0.00000000000E+00  0.96248494110E+03  0.96248494110E+03  0.00000000000E+00 0.  1.
         21   -1    0    0  501  502  0.00000000000E+00 -0.00000000000E+00 -0.47586142209E+03  0.47586142209E+03  0.00000000000E+00 0.  1.
        -13    1    1    2    0    0  0.26621175441E+03  0.22054377906E+03 -0.31368644023E+03  0.46680558118E+03  0.10566000000E+00 0.  1.
         13    1    1    2    0    0 -0.48786709925E+02 -0.26362162092E+03  0.20864125717E+03  0.33971706969E+03  0.10566000000E+00 0. -1.
          4    1    1    2  501    0 -0.21742504448E+03  0.43077841861E+02  0.59166870208E+03  0.63182371232E+03  0.00000000000E+00 0.  1.
</event>
<event>
 5    1  0.8445827E-005  0.7359538E+02  0.7818608E-02  0.1287681E+00
          4   -1    0    0  502    0 -0.00000000000E+00  0.00000000000E+00  0.11584800548E+03  0.11584800548E+03  0.00000000000E+00 0.  1.
         21   -1    0    0  501  502  0.00000000000E+00 -0.00000000000E+00 -0.33356998240E+03  0.33356998240E+03  0.00000000000E+00 0.  1.
        -13    1    1    2    0    0 -0.82997480974E+02 -0.26163665631E+02  0.91224449709E+02  0.12607549578E+03  0.10566000000E+00 0.  1.
         13    1    1    2    0    0  0.11179863556E+02  0.12808582259E+02 -0.25601105085E+02  0.30732342478E+02  0.10566000000E+00 0. -1.
          4    1    1    2  501    0  0.71817617418E+02  0.13355083373E+02 -0.28334532154E+03  0.29261014962E+03  0.00000000000E+00 0.  1.
</event>
<event>
 5    1  0.9280633E-005  0.1029318E+04  0.7818608E-02  0.8747522E-01
          4   -1    0    0  502    0 -0.00000000000E+00  0.00000000000E+00  0.27674904700E+04  0.27674904700E+04  0.00000000000E+00 0.  1.
         21   -1    0    0  501  502  0.00000000000E+00 -0.00000000000E+00 -0.51220828756E+03  0.51220828756E+03  0.00000000000E+00 0.  1.
        -13    1    1    2    0    0 -0.97993937002E+03 -0.43671207372E+03  0.13873045501E+04  0.17537424355E+04  0.10566000000E+00 0.  1.
         13    1    1    2    0    0  0.91560119033E+03  0.35309726675E+03  0.96955144245E+03  0.13795047047E+04  0.10566000000E+00 0. -1.
          4    1    1    2  501    0  0.64338179689E+02  0.83614806964E+02 -0.10157381014E+03  0.14645161732E+03  0.00000000000E+00 0.  1.
</event>
<event>
 5    1  0.8445827E-005  0.4547384E+03  0.7818608E-02  0.9901185E-01
         21   -1    0    0  501  502  0.00000000000E+00  0.00000000000E+00  0.38968687089E+03  0.38968687089E+03  0.00000000000E+00 0. -1.
         -4   -1    0    0    0  501 -0.00000000000E+00 -0.00000000000E+00 -0.89618775027E+03  0.89618775027E+03  0.00000000000E+00 0. -1.
        -13    1    1    2    0    0  0.11847321481E+03  0.94478793803E+02  0.19655994068E+02  0.15280220670E+03  0.10566000000E+00 0.  1.
         13    1    1    2    0    0 -0.42575506478E+03 -0.26194136867E+03  0.15390215454E+01  0.49988302187E+03  0.10566000000E+00 0. -1.
         -4    1    1    2    0  502  0.30728184996E+03  0.16746257486E+03 -0.52769589499E+03  0.63318939259E+03  0.00000000000E+00 0. -1.
</event>
<event>
 5    1  0.8445827E-005  0.4317024E+03  0.7818608E-02  0.9897944E-01
          4   -1    0    0  502    0 -0.00000000000E+00  0.00000000000E+00  0.16846992918E+03  0.16846992918E+03  0.00000000000E+00 0.  1.
         21   -1    0    0  501  502  0.00000000000E+00 -0.00000000000E+00 -0.20019668996E+04  0.20019668996E+04  0.00000000000E+00 0.  1.
        -13    1    1    2    0    0 -0.20040962156E+03  0.52261825582E+03 -0.70392951044E+03  0.89933899313E+03  0.10566000000E+00 0.  1.
         13    1    1    2    0    0  0.79175011245E+02 -0.16058082534E+03 -0.21338732218E+03  0.27854810052E+03  0.10566000000E+00 0. -1.
          4    1    1    2  501    0  0.12123461031E+03 -0.36203743049E+03 -0.91618013778E+03  0.99254973512E+03  0.00000000000E+00 0.  1.
</event>
<event>
 5    1  0.8445827E-005  0.1516564E+03  0.7818608E-02  0.1099489E+00
          4   -1    0    0  502    0 -0.00000000000E+00  0.00000000000E+00  0.39059591283E+02  0.39059591283E+02  0.00000000000E+00 0.  1.
         21   -1    0    0  501  502  0.00000000000E+00 -0.00000000000E+00 -0.96908086073E+03  0.96908086073E+03  0.00000000000E+00 0. -1.
        -13    1    1    2    0    0 -0.10868807646E+03  0.94725087179E+02 -0.21782750498E+03  0.26121786539E+03  0.10566000000E+00 0.  1.
         13    1    1    2    0    0  0.11506201497E+03 -0.11745284257E+03 -0.38195630033E+03  0.41584259527E+03  0.10566000000E+00 0. -1.
          4    1    1    2  501    0 -0.63739385005E+01  0.22727755388E+02 -0.33023746414E+03  0.33107999136E+03  0.00000000000E+00 0.  1.
</event>
<event>
 5    1  0.8445827E-005  0.4816533E+03  0.7818608E-02  0.9592365E-01
         21   -1    0    0  501  502  0.00000000000E+00  0.00000000000E+00  0.58401360391E+03  0.58401360391E+03  0.00000000000E+00 0.  1.
          4   -1    0    0  502    0 -0.00000000000E+00 -0.00000000000E+00 -0.98170845525E+03  0.98170845525E+03  0.00000000000E+00 0.  1.
        -13    1    1    2    0    0 -0.34291541011E+03  0.21423338832E+03 -0.31756796879E+02  0.40558036007E+03  0.10566000000E+00 0.  1.
         13    1    1    2    0    0  0.59208988334E+02  0.36549187193E+03 -0.35747490901E+03  0.51466332149E+03  0.10566000000E+00 0. -1.
          4    1    1    2  501    0  0.28370642177E+03 -0.57972526025E+03 -0.84631454606E+01  0.64547837761E+03  0.00000000000E+00 0.  1.
</event>
<event>
 5    1  0.8445827E-005  0.1202251E+03  0.7818608E-02  0.1134850E+00
          4   -1    0    0  502    0 -0.00000000000E+00  0.00000000000E+00  0.59113493587E+03  0.59113493587E+03  0.00000000000E+00 0.  1.
         21   -1    0    0  501  502  0.00000000000E+00 -0.00000000000E+00 -0.93983165804E+02  0.93983165804E+02  0.00000000000E+00 0. -1.
        -13    1    1    2    0    0 -0.62562586312E+02  0.99860808249E+02  0.34211395554E+03  0.36184005855E+03  0.10566000000E+00 0.  1.
         13    1    1    2    0    0  0.90633572272E+02 -0.88318567146E+02  0.21874330624E+03  0.25271181000E+03  0.10566000000E+00 0. -1.
          4    1    1    2  501    0 -0.28070985960E+02 -0.11542241103E+02 -0.63705491716E+02  0.70566233124E+02  0.00000000000E+00 0.  1.
</event>
<event>
 5    1  0.8445827E-005  0.4568048E+03  0.7818608E-02  0.9957101E-01
         21   -1    0    0  501  502  0.00000000000E+00  0.00000000000E+00  0.12126816274E+04  0.12126816274E+04  0.00000000000E+00 0. -1.
         -4   -1    0    0    0  501 -0.00000000000E+00 -0.00000000000E+00 -0.25924541502E+03  0.25924541502E+03  0.00000000000E+00 0. -1.
        -13    1    1    2    0    0  0.11138800419E+03  0.54758351307E+02  0.78897126432E+02  0.14707322067E+03  0.10566000000E+00 0.  1.
         13    1    1    2    0    0  0.19695002879E+02  0.40872549122E+03  0.11428143638E+03  0.42485842133E+03  0.10566000000E+00 0. -1.
         -4    1    1    2    0  502 -0.13108300707E+03 -0.46348384253E+03  0.76025764954E+03  0.89999540038E+03  0.00000000000E+00 0. -1.
</event>
<event>
 5    1  0.8445827E-005  0.1445821E+03  0.7818608E-02  0.1112491E+00
         -4   -1    0    0    0  501 -0.00000000000E+00  0.00000000000E+00  0.17349795359E+04  0.17349795359E+04  0.00000000000E+00 0. -1.
         21   -1    0    0  501  502  0.00000000000E+00 -0.00000000000E+00 -0.17597945396E+03  0.17597945396E+03  0.00000000000E+00 0. -1.
        -13    1    1    2    0    0  0.36843742262E+02 -0.11791140074E+03  0.30723449543E+03  0.33113985884E+03  0.10566000000E+00 0.  1.
         13    1    1    2    0    0 -0.13882114454E+03  0.46024199694E+02 -0.12804207299E+03  0.19438189409E+03  0.10566000000E+00 0. -1.
         -4    1    1    2    0  502  0.10197740228E+03  0.71887201044E+02  0.13798076595E+04  0.13854372369E+04  0.00000000000E+00 0. -1.
</event>
<event>
 5    1  0.8445827E-005  0.5723063E+03  0.7818608E-02  0.1020218E+00
         -4   -1    0    0    0  501 -0.00000000000E+00  0.00000000000E+00  0.46995101096E+03  0.46995101096E+03  0.00000000000E+00 0. -1.
         21   -1    0    0  501  502  0.00000000000E+00 -0.00000000000E+00 -0.83940907239E+03  0.83940907239E+03  0.00000000000E+00 0. -1.
        -13    1    1    2    0    0  0.42954782322E+01  0.28297183981E+02 -0.13427135757E+03  0.13728798339E+03  0.10566000000E+00 0.  1.
         13    1    1    2    0    0 -0.57318568923E+03  0.25220087829E+02 -0.74858496254E+02  0.57860322570E+03  0.10566000000E+00 0. -1.
         -4    1    1    2    0  502  0.56889021100E+03 -0.53517271810E+02 -0.16032820760E+03  0.59346887425E+03  0.00000000000E+00 0. -1.
</event>
<event>
 5    1  0.8445827E-005  0.7300096E+02  0.7818608E-02  0.1219067E+00
         21   -1    0    0  501  502  0.00000000000E+00  0.00000000000E+00  0.29195298083E+02  0.29195298083E+02  0.00000000000E+00 0. -1.
         -4   -1    0    0    0  501 -0.00000000000E+00 -0.00000000000E+00 -0.51864394372E+03  0.51864394372E+03  0.00000000000E+00 0. -1.
        -13    1    1    2    0    0 -0.39627430139E+02 -0.49958327603E+02 -0.16818259006E+03  0.17986540101E+03  0.10566000000E+00 0.  1.
         13    1    1    2    0    0  0.70167629626E+02  0.44567913077E+02 -0.32615269265E+03  0.33657894351E+03  0.10566000000E+00 0. -1.
         -4    1    1    2    0  502 -0.30540199487E+02  0.53904145258E+01  0.48866370802E+01  0.31394897284E+02  0.00000000000E+00 0. -1.
</event>
<event>
 5    1  0.8445827E-005  0.2508322E+03  0.7818608E-02  0.1029962E+00
          4   -1    0    0  502    0 -0.00000000000E+00  0.00000000000E+00  0.97241197230E+02  0.97241197230E+02  0.00000000000E+00 0.  1.
         21   -1    0    0  501  502  0.00000000000E+00 -0.00000000000E+00 -0.11643718043E+04  0.11643718043E+04  0.00000000000E+00 0. -1.
        -13    1    1    2    0    0 -0.53760648442E+02 -0.23000633543E+03 -0.16564000782E+03  0.28849565857E+03  0.10566000000E+00 0.  1.
         13    1    1    2    0    0  0.53132008365E+02  0.28851269520E+03 -0.62393487589E+03  0.68946162049E+03  0.10566000000E+00 0. -1.
          4    1    1    2  501    0  0.62864007746E+00 -0.58506359770E+02 -0.27755572334E+03  0.28365572246E+03  0.00000000000E+00 0.  1.
</event>
<event>
 5    1  0.8445827E-005  0.4229270E+03  0.7818608E-02  0.9713313E-01
         21   -1    0    0  501  502  0.00000000000E+00  0.00000000000E+00  0.67430260202E+03  0.67430260202E+03  0.00000000000E+00 0.  1.
          4   -1    0    0  502    0 -0.00000000000E+00 -0.00000000000E+00 -0.74390014224E+03  0.74390014224E+03  0.00000000000E+00 0.  1.
        -13    1    1    2    0    0 -0.36671883106E+03  0.30683767198E+03  0.30597760027E+03  0.56767452033E+03  0.10566000000E+00 0.  1.
         13    1    1    2    0    0  0.34552530965E+03  0.91316070505E+02 -0.23512504478E+03  0.42779687024E+03  0.10566000000E+00 0. -1.
          4    1    1    2  501    0  0.21193521412E+02 -0.39815374248E+03 -0.14045009570E+03  0.42273135368E+03  0.00000000000E+00 0.  1.
</event>
<event>
 5    1  0.8445827E-005  0.4510866E+03  0.7818608E-02  0.9592150E-01
          4   -1    0    0  502    0 -0.00000000000E+00  0.00000000000E+00  0.16561693535E+04  0.16561693535E+04  0.00000000000E+00 0.  1.
         21   -1    0    0  501  502  0.00000000000E+00 -0.00000000000E+00 -0.28352762274E+03  0.28352762274E+03  0.00000000000E+00 0.  1.
        -13    1    1    2    0    0  0.51161438111E+03 -0.14382578927E+02  0.10545665209E+04  0.11722059084E+04  0.10566000000E+00 0.  1.
         13    1    1    2    0    0 -0.29212144505E+03  0.24335318759E+03  0.15202066463E+03  0.40947039723E+03  0.10566000000E+00 0. -1.
          4    1    1    2  501    0 -0.21949293606E+03 -0.22897060866E+03  0.16605454528E+03  0.35802067066E+03  0.00000000000E+00 0.  1.
</event>
<event>
 5    1  0.8918894E-005  0.8534853E+03  0.7818608E-02  0.8925969E-01
         -4   -1    0    0    0  501 -0.00000000000E+00  0.00000000000E+00  0.19589261532E+04  0.19589261532E+04  0.00000000000E+00 0. -1.
         21   -1    0    0  501  502  0.00000000000E+00 -0.00000000000E+00 -0.89617710492E+03  0.89617710492E+03  0.00000000000E+00 0. -1.
        -13    1    1    2    0    0  0.59103938441E+03 -0.58880405468E+03  0.12830115920E+04  0.15304040398E+04  0.10566000000E+00 0.  1.
         13    1    1    2    0    0 -0.84672000205E+03  0.50130688183E+03 -0.32291114211E+03  0.10356229857E+04  0.10566000000E+00 0. -1.
         -4    1    1    2    0  502  0.25568061765E+03  0.87497172843E+02  0.10264859835E+03  0.28907623258E+03  0.00000000000E+00 0. -1.
</event>
<event>
 5    1  0.8445827E-005  0.4533302E+03  0.7818608E-02  0.1011357E+00
         21   -1    0    0  501  502  0.00000000000E+00  0.00000000000E+00  0.60182583842E+03  0.60182583842E+03  0.00000000000E+00 0. -1.
         -4   -1    0    0    0  501 -0.00000000000E+00 -0.00000000000E+00 -0.60152815545E+03  0.60152815545E+03  0.00000000000E+00 0. -1.
        -13    1    1    2    0    0 -0.74806212915E+02 -0.15117202039E+02 -0.17931646232E+03  0.19488176957E+03  0.10566000000E+00 0.  1.
         13    1    1    2    0    0 -0.49205929824E+02  0.45238672358E+03 -0.11176393484E+03  0.46857887223E+03  0.10566000000E+00 0. -1.
         -4    1    1    2    0  502  0.12401214274E+03 -0.43726952155E+03  0.29137808014E+03  0.53989335206E+03  0.00000000000E+00 0. -1.
</event>
<event>
 5    1  0.8445827E-005  0.2032271E+03  0.7818608E-02  0.1064882E+00
         -4   -1    0    0    0  501 -0.00000000000E+00  0.00000000000E+00  0.16702184143E+04  0.16702184143E+04  0.00000000000E+00 0. -1.
         21   -1    0    0  501  502  0.00000000000E+00 -0.00000000000E+00 -0.28189440847E+03  0.28189440847E+03  0.00000000000E+00 0. -1.
        -13    1    1    2    0    0 -0.12024380066E+03 -0.11455981693E+03  0.69187389675E+03  0.71152794985E+03  0.10566000000E+00 0.  1.
         13    1    1    2    0    0  0.30928127809E+03  0.17000672376E+03  0.89427655634E+03  0.96139885869E+03  0.10566000000E+00 0. -1.
         -4    1    1    2    0  502 -0.18903747743E+03 -0.55446906828E+02 -0.19782644722E+03  0.27918601428E+03  0.00000000000E+00 0. -1.
</event>
<event>
 5    1  0.8445827E-005  0.6342597E+02  0.7818608E-02  0.1245110E+00
          4   -1    0    0  502    0 -0.00000000000E+00  0.00000000000E+00  0.38138160326E+02  0.38138160326E+02  0.00000000000E+00 0.  1.
         21   -1    0    0  501  502  0.00000000000E+00 -0.00000000000E+00 -0.35786080428E+03  0.35786080428E+03  0.00000000000E+00 0.  1.
        -13    1    1    2    0    0 -0.66939725742E+02 -0.11397658833E+02 -0.29352249532E+02  0.73975666444E+02  0.10566000000E+00 0.  1.
         13    1    1    2    0    0  0.56959520206E+02  0.14471981154E+02 -0.39216664686E+02  0.70652552210E+02  0.10566000000E+00 0. -1.
          4    1    1    2  501    0  0.99802055356E+01 -0.30743223205E+01 -0.25115372974E+03  0.25137074595E+03  0.00000000000E+00 0.  1.
</event>
<event>
 5    1  0.8445827E-005  0.5005749E+03  0.7818608E-02  0.9945726E-01
         21   -1    0    0  501  502  0.00000000000E+00  0.00000000000E+00  0.77788297402E+03  0.77788297402E+03  0.00000000000E+00 0. -1.
         -4   -1    0    0    0  501 -0.00000000000E+00 -0.00000000000E+00 -0.40546622346E+03  0.40546622346E+03  0.00000000000E+00 0. -1.
        -13    1    1    2    0    0  0.46593992894E+00 -0.97943428219E+02 -0.18934523345E+02  0.99758005040E+02  0.10566000000E+00 0.  1.
         13    1    1    2    0    0 -0.12529501050E+03  0.52901586468E+03  0.31513086456E+03  0.62838212713E+03  0.10566000000E+00 0. -1.
         -4    1    1    2    0  502  0.12482907057E+03 -0.43107243646E+03  0.76220409343E+02  0.45520906531E+03  0.00000000000E+00 0. -1.
</event>
<event>
 5    1  0.8445827E-005  0.4296209E+02  0.7818608E-02  0.1323436E+00
         21   -1    0    0  501  502  0.00000000000E+00  0.00000000000E+00  0.64206828573E+02  0.64206828573E+02  0.00000000000E+00 0. -1.
          4   -1    0    0  502    0 -0.00000000000E+00 -0.00000000000E+00 -0.92003467085E+02  0.92003467085E+02  0.00000000000E+00 0.  1.
        -13    1    1    2    0    0 -0.41290314419E+02  0.90627240313E+01 -0.64036817760E+02  0.76731663768E+02  0.10566000000E+00 0.  1.
         13    1    1    2    0    0  0.50275574950E+02  0.77075904346E+01  0.31652177484E+02  0.59907527827E+02  0.10566000000E+00 0. -1.
          4    1    1    2  501    0 -0.89852605303E+01 -0.16770314466E+02  0.45880017649E+01  0.19571104064E+02  0.00000000000E+00 0.  1.
</event>
<event>
 5    1  0.8445827E-005  0.7921795E+02  0.7818608E-02  0.1204427E+00
         21   -1    0    0  501  502  0.00000000000E+00  0.00000000000E+00  0.19238453073E+02  0.19238453073E+02  0.00000000000E+00 0.  1.
         -4   -1    0    0    0  501 -0.00000000000E+00 -0.00000000000E+00 -0.56812249165E+03  0.56812249165E+03  0.00000000000E+00 0. -1.
        -13    1    1    2    0    0 -0.74155796241E+02  0.24314002836E+02 -0.13930798073E+03  0.15967773016E+03  0.10566000000E+00 0.  1.
         13    1    1    2    0    0  0.67789292829E+02 -0.43207400910E+02 -0.39471200581E+03  0.40281490341E+03  0.10566000000E+00 0. -1.
         -4    1    1    2    0  502  0.63665034116E+01  0.18893398074E+02 -0.14864052033E+02  0.24868311147E+02  0.00000000000E+00 0. -1.
</event>
<event>
 5    1  0.8445827E-005  0.3708277E+03  0.7818608E-02  0.9817297E-01
         21   -1    0    0  501  502  0.00000000000E+00  0.00000000000E+00  0.10954964803E+04  0.10954964803E+04  0.00000000000E+00 0. -1.
         -4   -1    0    0    0  501 -0.00000000000E+00 -0.00000000000E+00 -0.51964633110E+03  0.51964633110E+03  0.00000000000E+00 0. -1.
        -13    1    1    2    0    0 -0.58384289944E+02  0.30798409527E+03 -0.15152182029E+03  0.34816921380E+03  0.10566000000E+00 0.  1.
         13    1    1    2    0    0  0.18944913672E+03 -0.58897359774E+03  0.19112139950E+03  0.64754017231E+03  0.10566000000E+00 0. -1.
         -4    1    1    2    0  502 -0.13106484678E+03  0.28098950247E+03  0.53625057002E+03  0.61943342533E+03  0.00000000000E+00 0. -1.
</event>
<event>
 5    1  0.8445827E-005  0.8170847E+02  0.7818608E-02  0.1198973E+00
         -4   -1    0    0    0  501 -0.00000000000E+00  0.00000000000E+00  0.56075837493E+02  0.56075837493E+02  0.00000000000E+00 0. -1.
         21   -1    0    0  501  502  0.00000000000E+00 -0.00000000000E+00 -0.17377357075E+03  0.17377357075E+03  0.00000000000E+00 0.  1.
        -13    1    1    2    0    0  0.58194521440E+02 -0.46318077558E+02 -0.70754232446E+02  0.10265543925E+03  0.10566000000E+00 0.  1.
         13    1    1    2    0    0 -0.60967267133E+02  0.60501964741E+02 -0.87253210318E+01  0.86334453090E+02  0.10566000000E+00 0. -1.
         -4    1    1    2    0  502  0.27727456929E+01 -0.14183887183E+02 -0.38218179782E+02  0.40859515907E+02  0.00000000000E+00 0. -1.
</event>
<event>
 5    1  0.8445827E-005  0.5019747E+03  0.7818608E-02  0.9651434E-01
         21   -1    0    0  501  502  0.00000000000E+00  0.00000000000E+00  0.26553512587E+03  0.26553512587E+03  0.00000000000E+00 0. -1.
         -4   -1    0    0    0  501 -0.00000000000E+00 -0.00000000000E+00 -0.17905853905E+04  0.17905853905E+04  0.00000000000E+00 0. -1.
        -13    1    1    2    0    0  0.16514111112E+03 -0.20770644944E+03 -0.62684285053E+03  0.68069488477E+03  0.10566000000E+00 0.  1.
         13    1    1    2    0    0 -0.51170914881E+03  0.34445291711E+03 -0.34010220613E+03  0.70438880376E+03  0.10566000000E+00 0. -1.
         -4    1    1    2    0  502  0.34656803769E+03 -0.13674646768E+03 -0.55810520796E+03  0.67103682784E+03  0.00000000000E+00 0. -1.
</event>
<event>
 5    1  0.8720689E-005  0.4900891E+03  0.7818608E-02  0.9528596E-01
         -4   -1    0    0    0  501 -0.00000000000E+00  0.00000000000E+00  0.15654800409E+04  0.15654800409E+04  0.00000000000E+00 0. -1.
         21   -1    0    0  501  502  0.00000000000E+00 -0.00000000000E+00 -0.47390413575E+03  0.47390413575E+03  0.00000000000E+00 0. -1.
        -13    1    1    2    0    0  0.43400914275E+03 -0.82624117221E+02  0.77909746025E+03  0.89564699769E+03  0.10566000000E+00 0.  1.
         13    1    1    2    0    0  0.19503108592E+03  0.21346737868E+03  0.40183163182E+03  0.49504961138E+03  0.10566000000E+00 0. -1.
         -4    1    1    2    0  502 -0.62904022867E+03 -0.13084326146E+03 -0.89353186906E+02  0.64868756760E+03  0.00000000000E+00 0. -1.
</event>
<event>
 5    1  0.8445827E-005  0.1213919E+03  0.7818608E-02  0.1133335E+00
         21   -1    0    0  501  502  0.00000000000E+00  0.00000000000E+00  0.14926282585E+03  0.14926282585E+03  0.00000000000E+00 0. -1.
          4   -1    0    0  502    0 -0.00000000000E+00 -0.00000000000E+00 -0.18701068813E+03  0.18701068813E+03  0.00000000000E+00 0.  1.
        -13    1    1    2    0    0 -0.12594652820E+03 -0.70308727645E+01 -0.55437317666E+02  0.13778704036E+03  0.10566000000E+00 0.  1.
         13    1    1    2    0    0  0.11383521849E+03  0.31838026464E+02 -0.47733367866E+02  0.12747785089E+03  0.10566000000E+00 0. -1.
          4    1    1    2  501    0  0.12111309715E+02 -0.24807153699E+02  0.65422823251E+02  0.71008622715E+02  0.00000000000E+00 0.  1.
</event>
<event>
 5    1  0.8445827E-005  0.3369726E+02  0.7818608E-02  0.1398002E+00
         21   -1    0    0  501  502  0.00000000000E+00  0.00000000000E+00  0.64083980081E+02  0.64083980081E+02  0.00000000000E+00 0. -1.
         -4   -1    0    0    0  501 -0.00000000000E+00 -0.00000000000E+00 -0.67143070825E+02  0.67143070825E+02  0.00000000000E+00 0. -1.
        -13    1    1    2    0    0  0.89665604442E+01 -0.21997308491E+02  0.66503496534E+01  0.24668179941E+02  0.10566000000E+00 0.  1.
         13    1    1    2    0    0 -0.10612463714E+02 -0.14244999501E+02 -0.49571949368E+02  0.52658652898E+02  0.10566000000E+00 0. -1.
         -4    1    1    2    0  502  0.16459032697E+01  0.36242307992E+02  0.39862508971E+02  0.53900218067E+02  0.00000000000E+00 0. -1.
</event>
<event>
 5    1  0.8445827E-005  0.4617012E+03  0.7818608E-02  0.9566113E-01
          4   -1    0    0  502    0 -0.00000000000E+00  0.00000000000E+00  0.36823065327E+03  0.36823065327E+03  0.00000000000E+00 0.  1.
         21   -1    0    0  501  502  0.00000000000E+00 -0.00000000000E+00 -0.13141928749E+04  0.13141928749E+04  0.00000000000E+00 0.  1.
        -13    1    1    2    0    0 -0.47396841389E+03  0.33523100376E+03 -0.24192288986E+03  0.62892970915E+03  0.10566000000E+00 0.  1.
         13    1    1    2    0    0  0.18512754117E+03 -0.35927505427E+03 -0.15542359832E+03  0.43302110480E+03  0.10566000000E+00 0. -1.
          4    1    1    2  501    0  0.28884087272E+03  0.24044050515E+02 -0.54861573344E+03  0.62047271422E+03  0.00000000000E+00 0.  1.
</event>
<event>
 5    1  0.8445827E-005  0.3571701E+03  0.7818608E-02  0.1022552E+00
         -4   -1    0    0    0  501 -0.00000000000E+00  0.00000000000E+00  0.87256622547E+03  0.87256622547E+03  0.00000000000E+00 0. -1.
         21   -1    0    0  501  502  0.00000000000E+00 -0.00000000000E+00 -0.72751971811E+03  0.72751971811E+03  0.00000000000E+00 0. -1.
        -13    1    1    2    0    0  0.52412874735E+02 -0.96049246392E+02  0.53644844893E+03  0.54749385083E+03  0.10566000000E+00 0.  1.
         13    1    1    2    0    0 -0.75557284762E+02  0.36630726621E+03 -0.60231488555E+03  0.70899446336E+03  0.10566000000E+00 0. -1.
         -4    1    1    2    0  502  0.23144410027E+02 -0.27025801982E+03  0.21091294397E+03  0.34359762939E+03  0.00000000000E+00 0. -1.
</event>
<event>
 5    1  0.8445827E-005  0.3203371E+03  0.7818608E-02  0.9992470E-01
         21   -1    0    0  501  502  0.00000000000E+00  0.00000000000E+00  0.82293524782E+02  0.82293524782E+02  0.00000000000E+00 0. -1.
          4   -1    0    0  502    0 -0.00000000000E+00 -0.00000000000E+00 -0.22175461044E+04  0.22175461044E+04  0.00000000000E+00 0.  1.
        -13    1    1    2    0    0 -0.13104442243E+03 -0.31606494721E+03 -0.11914766453E+04  0.12396315175E+04  0.10566000000E+00 0.  1.
         13    1    1    2    0    0  0.11037983499E+03  0.27871495045E+03 -0.96644936990E+03  0.10118745611E+04  0.10566000000E+00 0. -1.
          4    1    1    2  501    0  0.20664587432E+02  0.37349996758E+02  0.22673435663E+02  0.48333550628E+02  0.00000000000E+00 0.  1.
</event>
<event>
 5    1  0.8445827E-005  0.5244935E+03  0.7818608E-02  0.9524627E-01
         -4   -1    0    0    0  501 -0.00000000000E+00  0.00000000000E+00  0.48820853634E+03  0.48820853634E+03  0.00000000000E+00 0. -1.
         21   -1    0    0  501  502  0.00000000000E+00 -0.00000000000E+00 -0.11752932943E+04  0.11752932943E+04  0.00000000000E+00 0. -1.
        -13    1    1    2    0    0  0.35196333216E+03  0.99096906488E+02 -0.17925295462E+02  0.36608702715E+03  0.10566000000E+00 0.  1.
         13    1    1    2    0    0 -0.12493561681E+03  0.47482888883E+03 -0.24671957034E+03  0.54949243814E+03  0.10566000000E+00 0. -1.
         -4    1    1    2    0  502 -0.22702771535E+03 -0.57392579532E+03 -0.42243989212E+03  0.74792236531E+03  0.00000000000E+00 0. -1.
</event>
<event>
 5    1  0.9614167E-005  0.3925398E+03  0.7818608E-02  0.1006662E+00
         -4   -1    0    0    0  501 -0.00000000000E+00  0.00000000000E+00  0.78125662590E+03  0.78125662590E+03  0.00000000000E+00 0. -1.
         21   -1    0    0  501  502  0.00000000000E+00 -0.00000000000E+00 -0.50263206741E+03  0.50263206741E+03  0.00000000000E+00 0. -1.
        -13    1    1    2    0    0 -0.11695094501E+03  0.70839937600E+02  0.22939582430E+03  0.26705481773E+03  0.10566000000E+00 0.  1.
         13    1    1    2    0    0 -0.29309064507E+03 -0.11610715465E+03  0.37592029107E+03  0.49061091915E+03  0.10566000000E+00 0. -1.
         -4    1    1    2    0  502  0.41004159008E+03  0.45267217048E+02 -0.32669155688E+03  0.52622295643E+03  0.00000000000E+00 0. -1.
</event>
<event>
 5    1  0.8445827E-005  0.1103357E+03  0.7818608E-02  0.1149359E+00
          4   -1    0    0  502    0 -0.00000000000E+00  0.00000000000E+00  0.15459966562E+03  0.15459966562E+03  0.00000000000E+00 0.  1.
         21   -1    0    0  501  502  0.00000000000E+00 -0.00000000000E+00 -0.78396625895E+03  0.78396625895E+03  0.00000000000E+00 0.  1.
        -13    1    1    2    0    0  0.35325349005E+02  0.53212561580E+02  0.12509410600E+03  0.14045641143E+03  0.10566000000E+00 0.  1.
         13    1    1    2    0    0  0.76077322762E+02 -0.76674249399E+02 -0.16131627542E+03  0.19413822766E+03  0.10566000000E+00 0. -1.
          4    1    1    2  501    0 -0.11140267177E+03  0.23461687819E+02 -0.59314442391E+03  0.60397128548E+03  0.00000000000E+00 0.  1.
</event>
<event>
 5    1  0.8445827E-005  0.4990111E+03  0.7818608E-02  0.9621273E-01
         21   -1    0    0  501  502  0.00000000000E+00  0.00000000000E+00  0.37338764317E+03  0.37338764317E+03  0.00000000000E+00 0.  1.
          4   -1    0    0  502    0 -0.00000000000E+00 -0.00000000000E+00 -0.13613535615E+04  0.13613535615E+04  0.00000000000E+00 0.  1.
        -13    1    1    2    0    0 -0.10776236613E+03 -0.36789734927E+03 -0.23444625351E+03  0.44936204124E+03  0.10566000000E+00 0.  1.
         13    1    1    2    0    0  0.30969770864E+00 -0.30045455347E+03 -0.45568294265E+03  0.54582047415E+03  0.10566000000E+00 0. -1.
          4    1    1    2  501    0  0.10745266842E+03  0.66835190275E+03 -0.29783672221E+03  0.73955868932E+03  0.00000000000E+00 0.  1.
</event>
<event>
 5    1  0.8445827E-005  0.2092433E+03  0.7818608E-02  0.1053977E+00
         -4   -1    0    0    0  501 -0.00000000000E+00  0.00000000000E+00  0.21904400692E+03  0.21904400692E+03  0.00000000000E+00 0. -1.
         21   -1    0    0  501  502  0.00000000000E+00 -0.00000000000E+00 -0.73286051806E+03  0.73286051806E+03  0.00000000000E+00 0. -1.
        -13    1    1    2    0    0  0.43427378917E+02 -0.20231732934E+03 -0.22119028382E+03  0.30289171631E+03  0.10566000000E+00 0.  1.
         13    1    1    2    0    0 -0.24249331355E+02  0.20856771515E+03  0.11600311904E+03  0.23988592427E+03  0.10566000000E+00 0. -1.
         -4    1    1    2    0  502 -0.19178047562E+02 -0.62503858090E+01 -0.40862934636E+03  0.40912688440E+03  0.00000000000E+00 0. -1.
</event>
<event>
 5    1  0.8463564E-005  0.4985390E+03  0.7818608E-02  0.1022323E+00
         21   -1    0    0  501  502  0.00000000000E+00  0.00000000000E+00  0.16770526153E+04  0.16770526153E+04  0.00000000000E+00 0. -1.
         -4   -1    0    0    0  501 -0.00000000000E+00 -0.00000000000E+00 -0.16781478867E+03  0.16781478867E+03  0.00000000000E+00 0. -1.
        -13    1    1    2    0    0 -0.22545270628E+02  0.33677541701E+02  0.85591921363E+01  0.41421455513E+02  0.10566000000E+00 0.  1.
         13    1    1    2    0    0  0.25349839074E+03  0.41818306186E+03  0.65896398444E+03  0.82059250014E+03  0.10566000000E+00 0. -1.
         -4    1    1    2    0  502 -0.23095312011E+03 -0.45186060356E+03  0.84171465004E+03  0.98285344830E+03  0.00000000000E+00 0. -1.
</event>
<event>
 5    1  0.8445827E-005  0.2542182E+03  0.7818608E-02  0.1078136E+00
         -4   -1    0    0    0  501 -0.00000000000E+00  0.00000000000E+00  0.10617378750E+03  0.10617378750E+03  0.00000000000E+00 0. -1.
         21   -1    0    0  501  502  0.00000000000E+00 -0.00000000000E+00 -0.10189057015E+04  0.10189057015E+04  0.00000000000E+00 0. -1.
        -13    1    1    2    0    0  0.33937234099E+02  0.47181160784E+02 -0.92900122585E+02  0.10958212323E+03  0.10566000000E+00 0.  1.
         13    1    1    2    0    0 -0.16119350969E+02 -0.26534909473E+03 -0.73351082443E+03  0.78019748543E+03  0.10566000000E+00 0. -1.
         -4    1    1    2    0  502 -0.17817883130E+02  0.21816793394E+03 -0.86320967036E+02  0.23529988039E+03  0.00000000000E+00 0. -1.
</event>
<event>
 5    1  0.8445827E-005  0.4897092E+03  0.7818608E-02  0.9890198E-01
         -4   -1    0    0    0  501 -0.00000000000E+00  0.00000000000E+00  0.24579266391E+04  0.24579266391E+04  0.00000000000E+00 0. -1.
         21   -1    0    0  501  502  0.00000000000E+00 -0.00000000000E+00 -0.13035280905E+03  0.13035280905E+03  0.00000000000E+00 0. -1.
        -13    1    1    2    0    0  0.13066517236E+02 -0.12519877754E+03  0.15173251017E+03  0.19715028170E+03  0.10566000000E+00 0.  1.
         13    1    1    2    0    0  0.31409514866E+03  0.42753725871E+03  0.96937710488E+03  0.11050501584E+04  0.10566000000E+00 0. -1.
         -4    1    1    2    0  502 -0.32716166590E+03 -0.30233848117E+03  0.12064642150E+04  0.12860790080E+04  0.00000000000E+00 0. -1.
</event>
<event>
 5    1  0.1077810E-004  0.4871140E+03  0.7818608E-02  0.9875869E-01
         21   -1    0    0  501  502  0.00000000000E+00  0.00000000000E+00  0.41571947771E+03  0.41571947771E+03  0.00000000000E+00 0.  1.
          4   -1    0    0  502    0 -0.00000000000E+00 -0.00000000000E+00 -0.10708161984E+04  0.10708161984E+04  0.00000000000E+00 0.  1.
        -13    1    1    2    0    0  0.31970534441E+03 -0.25174559727E+03 -0.26837667697E+03  0.48745605433E+03  0.10566000000E+00 0.  1.
         13    1    1    2    0    0  0.88484920350E+02 -0.10090243243E+03 -0.43716459910E+03  0.45730053561E+03  0.10566000000E+00 0. -1.
          4    1    1    2  501    0 -0.40819026476E+03  0.35264802970E+03  0.50444555346E+02  0.54177908622E+03  0.00000000000E+00 0.  1.
</event>
<event>
 5    1  0.8445827E-005  0.1710411E+03  0.7818608E-02  0.1082031E+00
         21   -1    0    0  501  502  0.00000000000E+00  0.00000000000E+00  0.21230700508E+03  0.21230700508E+03  0.00000000000E+00 0.  1.
         -4   -1    0    0    0  501 -0.00000000000E+00 -0.00000000000E+00 -0.17818299583E+03  0.17818299583E+03  0.00000000000E+00 0. -1.
        -13    1    1    2    0    0  0.34824657911E+02  0.15975993257E+03  0.42664554627E+02  0.16898600012E+03  0.10566000000E+00 0.  1.
         13    1    1    2    0    0 -0.36950926602E+02 -0.17194012129E+03 -0.46228043944E+02  0.18184009320E+03  0.10566000000E+00 0. -1.
         -4    1    1    2    0  502  0.21262686907E+01  0.12180188722E+02  0.37687498567E+02  0.39663907574E+02  0.00000000000E+00 0. -1.
</event>
<event>
 5    1  0.8445827E-005  0.3047274E+03  0.7818608E-02  0.1017318E+00
         21   -1    0    0  501  502  0.00000000000E+00  0.00000000000E+00  0.18878016213E+03  0.18878016213E+03  0.00000000000E+00 0. -1.
         -4   -1    0    0    0  501 -0.00000000000E+00 -0.00000000000E+00 -0.20638008838E+04  0.20638008838E+04  0.00000000000E+00 0. -1.
        -13    1    1    2    0    0 -0.20490160995E+03 -0.34580120405E+02 -0.39300885421E+03  0.44456318464E+03  0.10566000000E+00 0.  1.
         13    1    1    2    0    0  0.50261368067E+02 -0.24252309145E+03 -0.14697247591E+04  0.14904477628E+04  0.10566000000E+00 0. -1.
         -4    1    1    2    0  502  0.15464024188E+03  0.27710321186E+03 -0.12287108381E+02  0.31757009850E+03  0.00000000000E+00 0. -1.
</event>
<event>
 5    1  0.8445827E-005  0.4979712E+03  0.7818608E-02  0.9554003E-01
         -4   -1    0    0    0  501 -0.00000000000E+00  0.00000000000E+00  0.37884748818E+04  0.37884748818E+04  0.00000000000E+00 0. -1.
         21   -1    0    0  501  502  0.00000000000E+00 -0.00000000000E+00 -0.14069813019E+03  0.14069813019E+03  0.00000000000E+00 0. -1.
        -13    1    1    2    0    0 -0.41015132942E+02 -0.38213057772E+03  0.84517877667E+03  0.92845742781E+03  0.10566000000E+00 0.  1.
         13    1    1    2    0    0 -0.13422559094E+03 -0.26236458951E+03  0.15831150456E+04  0.16103120647E+04  0.10566000000E+00 0. -1.
         -4    1    1    2    0  502  0.17524072388E+03  0.64449516723E+03  0.12194829293E+04  0.13904035194E+04  0.00000000000E+00 0. -1.
</event>
<event>
 5    1  0.8445827E-005  0.5035082E+03  0.7818608E-02  0.9770813E-01
         -4   -1    0    0    0  501 -0.00000000000E+00  0.00000000000E+00  0.21695013148E+04  0.21695013148E+04  0.00000000000E+00 0. -1.
         21   -1    0    0  501  502  0.00000000000E+00 -0.00000000000E+00 -0.16746636337E+03  0.16746636337E+03  0.00000000000E+00 0. -1.
        -13    1    1    2    0    0 -0.73851353571E+02  0.15716178302E+03  0.26001914274E+03  0.31267205539E+03  0.10566000000E+00 0.  1.
         13    1    1    2    0    0  0.38472585621E+03  0.27957555351E+03  0.10161047965E+04  0.11218936862E+04  0.10566000000E+00 0. -1.
         -4    1    1    2    0  502 -0.31087450264E+03 -0.43673733653E+03  0.72591101219E+03  0.90240193657E+03  0.00000000000E+00 0. -1.
</event>
<event>
 5    1  0.8445827E-005  0.9194339E+02  0.7818608E-02  0.1178621E+00
         -4   -1    0    0    0  501 -0.00000000000E+00  0.00000000000E+00  0.29584334354E+02  0.29584334354E+02  0.00000000000E+00 0. -1.
         21   -1    0    0  501  502  0.00000000000E+00 -0.00000000000E+00 -0.48373853791E+03  0.48373853791E+03  0.00000000000E+00 0.  1.
        -13    1    1    2    0    0  0.93065710253E+02 -0.45336159349E+02 -0.30084557250E+03  0.31815823646E+03  0.10566000000E+00 0.  1.
         13    1    1    2    0    0 -0.76362719428E+02  0.44455844397E+02 -0.77498745338E+02  0.11753150094E+03  0.10566000000E+00 0. -1.
         -4    1    1    2    0  502 -0.16702990825E+02  0.88031495231E+00 -0.75809885721E+02  0.77633134871E+02  0.00000000000E+00 0. -1.
</event>
<event>
 5    1  0.8445827E-005  0.4890857E+03  0.7818608E-02  0.9576626E-01
         -4   -1    0    0    0  501 -0.00000000000E+00  0.00000000000E+00  0.21274006671E+04  0.21274006671E+04  0.00000000000E+00 0. -1.
         21   -1    0    0  501  502  0.00000000000E+00 -0.00000000000E+00 -0.24074613240E+03  0.24074613240E+03  0.00000000000E+00 0. -1.
        -13    1    1    2    0    0  0.15047617633E+03  0.34246453065E+03  0.50636844114E+03  0.62955066813E+03  0.10566000000E+00 0.  1.
         13    1    1    2    0    0  0.11472869964E+03  0.24970426417E+03  0.87227514650E+03  0.91453749865E+03  0.10566000000E+00 0. -1.
         -4    1    1    2    0  502 -0.26520487597E+03 -0.59216879482E+03  0.50801094703E+03  0.82405863269E+03  0.00000000000E+00 0. -1.
</event>
<event>
 5    1  0.8445827E-005  0.3732597E+03  0.7818608E-02  0.1000600E+00
         21   -1    0    0  501  502  0.00000000000E+00  0.00000000000E+00  0.73057842849E+03  0.73057842849E+03  0.00000000000E+00 0. -1.
         -4   -1    0    0    0  501 -0.00000000000E+00 -0.00000000000E+00 -0.10582441827E+04  0.10582441827E+04  0.00000000000E+00 0. -1.
        -13    1    1    2    0    0  0.19005173796E+03 -0.37423566794E+02 -0.72594999244E+03  0.75134784830E+03  0.10566000000E+00 0.  1.
         13    1    1    2    0    0 -0.39533846512E+03 -0.25348978254E+03 -0.41696559153E+02  0.47147448082E+03  0.10566000000E+00 0. -1.
         -4    1    1    2    0  502  0.20528672716E+03  0.29091334934E+03  0.43998079742E+03  0.56600028204E+03  0.00000000000E+00 0. -1.
</event>
<event>
 5    1  0.8445827E-005  0.8171015E+03  0.7818608E-02  0.8968518E-01
         -4   -1    0    0    0  501 -0.00000000000E+00  0.00000000000E+00  0.37064380507E+04  0.37064380507E+04  0.00000000000E+00 0. -1.
         21   -1    0    0  501  502  0.00000000000E+00 -0.00000000000E+00 -0.53947318034E+03  0.53947318034E+03  0.00000000000E+00 0. -1.
        -13    1    1    2    0    0 -0.57093092869E+03 -0.65534203380E+03  0.26719175826E+04  0.28097293261E+04  0.10566000000E+00 0.  1.
         13    1    1    2    0    0  0.76147063264E+03  0.10861283381E+03  0.28028747863E+03  0.81865459987E+03  0.10566000000E+00 0. -1.
         -4    1    1    2    0  502 -0.19053970395E+03  0.54672919998E+03  0.21475980915E+03  0.61752730508E+03  0.00000000000E+00 0. -1.
</event>
<event>
 5    1  0.8445827E-005  0.4005732E+03  0.7818608E-02  0.1043374E+00
         21   -1    0    0  501  502  0.00000000000E+00  0.00000000000E+00  0.13735451900E+03  0.13735451900E+03  0.00000000000E+00 0.  1.
          4   -1    0    0  502    0 -0.00000000000E+00 -0.00000000000E+00 -0.13247400779E+04  0.13247400779E+04  0.00000000000E+00 0.  1.
        -13    1    1    2    0    0  0.35696724062E+03  0.16191677763E+03 -0.67185169098E+03  0.77783504652E+03  0.10566000000E+00 0.  1.
         13    1    1    2    0    0 -0.29636535837E+01  0.40804332886E+02 -0.34309911817E+02  0.53394363352E+02  0.10566000000E+00 0. -1.
          4    1    1    2  501    0 -0.35400358703E+03 -0.20272111052E+03 -0.48122395614E+03  0.63086518706E+03  0.00000000000E+00 0.  1.
</event>
<event>
 5    1  0.8445827E-005  0.4926972E+03  0.7818608E-02  0.9800933E-01
         21   -1    0    0  501  502  0.00000000000E+00  0.00000000000E+00  0.71500707644E+03  0.71500707644E+03  0.00000000000E+00 0. -1.
         -4   -1    0    0    0  501 -0.00000000000E+00 -0.00000000000E+00 -0.62018114641E+03  0.62018114641E+03  0.00000000000E+00 0. -1.
        -13    1    1    2    0    0 -0.14207403466E+03  0.88101116713E+02 -0.22303175129E+03  0.27872927965E+03  0.10566000000E+00 0.  1.
         13    1    1    2    0    0  0.48242812942E+03 -0.29523828082E+03  0.33553459619E+03  0.65763669220E+03  0.10566000000E+00 0. -1.
         -4    1    1    2    0  502 -0.34035409476E+03  0.20713716411E+03 -0.17676914878E+02  0.39882225100E+03  0.00000000000E+00 0. -1.
</event>
<event>
 5    1  0.8445827E-005  0.4865689E+03  0.7818608E-02  0.9869553E-01
          4   -1    0    0  502    0 -0.00000000000E+00  0.00000000000E+00  0.18350707903E+03  0.18350707903E+03  0.00000000000E+00 0.  1.
         21   -1    0    0  501  502  0.00000000000E+00 -0.00000000000E+00 -0.20737403409E+04  0.20737403409E+04  0.00000000000E+00 0.  1.
        -13    1    1    2    0    0 -0.24957565921E+03  0.48004618486E+03 -0.13534345304E+04  0.14575724299E+04  0.10566000000E+00 0.  1.
         13    1    1    2    0    0  0.97957990812E+02 -0.96559076937E+02 -0.20753463294E+02  0.13910478319E+03  0.10566000000E+00 0. -1.
          4    1    1    2  501    0  0.15161766840E+03 -0.38348710792E+03 -0.51604526820E+03  0.66057020683E+03  0.00000000000E+00 0.  1.
</event>
<event>
 5    1  0.8445827E-005  0.4086062E+03  0.7818608E-02  0.9795604E-01
         -4   -1    0    0    0  501 -0.00000000000E+00  0.00000000000E+00  0.68035483860E+03  0.68035483860E+03  0.00000000000E+00 0. -1.
         21   -1    0    0  501  502  0.00000000000E+00 -0.00000000000E+00 -0.69208170979E+03  0.69208170979E+03  0.00000000000E+00 0.  1.
        -13    1    1    2    0    0 -0.19921414771E+03 -0.22225137387E+03  0.13499784973E+03  0.32757652607E+03  0.10566000000E+00 0.  1.
         13    1    1    2    0    0 -0.23608854995E+03 -0.24981188954E+03 -0.20479946821E+03  0.40010825650E+03  0.10566000000E+00 0. -1.
         -4    1    1    2    0  502  0.43530269766E+03  0.47206326342E+03  0.58074747295E+02  0.64475176582E+03  0.00000000000E+00 0. -1.
</event>
<event>
 5    1  0.8445827E-005  0.6027203E+02  0.7818608E-02  0.1289653E+00
         -4   -1    0    0    0  501 -0.00000000000E+00  0.00000000000E+00  0.19471059835E+03  0.19471059835E+03  0.00000000000E+00 0. -1.
         21   -1    0    0  501  502  0.00000000000E+00 -0.00000000000E+00 -0.86203983696E+02  0.86203983696E+02  0.00000000000E+00 0.  1.
        -13    1    1    2    0    0 -0.22598069457E+01  0.29684404110E+02 -0.45452067659E+02  0.54333895437E+02  0.10566000000E+00 0.  1.
         13    1    1    2    0    0  0.28671244247E+01 -0.85137413754E+02  0.14805308404E+03  0.17081079146E+03  0.10566000000E+00 0. -1.
         -4    1    1    2    0  502 -0.60731747903E+00  0.55453009644E+02  0.59055982694E+01  0.55769895141E+02  0.00000000000E+00 0. -1.
</event>
<event>
 5    1  0.8445827E-005  0.7527200E+03  0.7818608E-02  0.9049818E-01
         21   -1    0    0  501  502  0.00000000000E+00  0.00000000000E+00  0.41919668618E+03  0.41919668618E+03  0.00000000000E+00 0. -1.
         -4   -1    0    0    0  501 -0.00000000000E+00 -0.00000000000E+00 -0.22478765232E+04  0.22478765232E+04  0.00000000000E+00 0. -1.
        -13    1    1    2    0    0  0.37849729998E+02  0.70969169529E+03 -0.74770730474E+03  0.10315818577E+04  0.10566000000E+00 0.  1.
         13    1    1    2    0    0 -0.19026074742E+03 -0.77117328040E+03 -0.11954024639E+04  0.14352332362E+04  0.10566000000E+00 0. -1.
         -4    1    1    2    0  502  0.15241101742E+03  0.61481585110E+02  0.11442993167E+03  0.20025811544E+03  0.00000000000E+00 0. -1.
</event>
<event>
 5    1  0.8445827E-005  0.5253539E+03  0.7818608E-02  0.9687153E-01
         21   -1    0    0  501  502  0.00000000000E+00  0.00000000000E+00  0.92782096248E+03  0.92782096248E+03  0.00000000000E+00 0.  1.
          4   -1    0    0  502    0 -0.00000000000E+00 -0.00000000000E+00 -0.51960148300E+03  0.51960148300E+03  0.00000000000E+00 0.  1.
        -13    1    1    2    0    0  0.52200708049E+03 -0.27981756716E+03  0.54271648359E+03  0.80332462660E+03  0.10566000000E+00 0.  1.
         13    1    1    2    0    0 -0.12328693554E+03  0.16283434701E+03 -0.99245890898E+02  0.22707807262E+03  0.10566000000E+00 0. -1.
          4    1    1    2  501    0 -0.39872014496E+03  0.11698322015E+03 -0.35251113216E+02  0.41701974627E+03  0.00000000000E+00 0.  1.
</event>
<event>
 5    1  0.8445827E-005  0.1049131E+03  0.7818608E-02  0.1156673E+00
         21   -1    0    0  501  502  0.00000000000E+00  0.00000000000E+00  0.54779063006E+02  0.54779063006E+02  0.00000000000E+00 0. -1.
         -4   -1    0    0    0  501 -0.00000000000E+00 -0.00000000000E+00 -0.75746221843E+03  0.75746221843E+03  0.00000000000E+00 0. -1.
        -13    1    1    2    0    0 -0.79053232517E+02  0.48545930948E+02 -0.21326436998E+03  0.23256789041E+03  0.10566000000E+00 0.  1.
         13    1    1    2    0    0  0.92462465102E+02 -0.63993458405E+02 -0.52593307834E+03  0.53781975069E+03  0.10566000000E+00 0. -1.
         -4    1    1    2    0  502 -0.13409232585E+02  0.15447527457E+02  0.36514292902E+02  0.41853640334E+02  0.00000000000E+00 0. -1.
</event>
<event>
 5    1  0.8445827E-005  0.5073413E+03  0.7818608E-02  0.9805431E-01
         21   -1    0    0  501  502  0.00000000000E+00  0.00000000000E+00  0.37715104200E+03  0.37715104200E+03  0.00000000000E+00 0. -1.
         -4   -1    0    0    0  501 -0.00000000000E+00 -0.00000000000E+00 -0.12769894041E+04  0.12769894041E+04  0.00000000000E+00 0. -1.
        -13    1    1    2    0    0 -0.52367379357E+02  0.14139262172E+03 -0.55001150136E+03  0.57030419838E+03  0.10566000000E+00 0.  1.
         13    1    1    2    0    0 -0.41155076645E+03 -0.32724811050E+03 -0.16702579069E+03  0.55169102323E+03  0.10566000000E+00 0. -1.
         -4    1    1    2    0  502  0.46391814581E+03  0.18585548878E+03 -0.18280107003E+03  0.53214522447E+03  0.00000000000E+00 0. -1.
</event>
<event>
 5    1  0.8445827E-005  0.4655322E+03  0.7818608E-02  0.9856385E-01
         -4   -1    0    0    0  501 -0.00000000000E+00  0.00000000000E+00  0.17147457395E+04  0.17147457395E+04  0.00000000000E+00 0. -1.
         21   -1    0    0  501  502  0.00000000000E+00 -0.00000000000E+00 -0.32033122609E+03  0.32033122609E+03  0.00000000000E+00 0. -1.
        -13    1    1    2    0    0 -0.39261067458E+02 -0.15941407181E+03  0.88392737152E+03  0.89904498608E+03  0.10566000000E+00 0.  1.
         13    1    1    2    0    0 -0.14987695065E+02 -0.41438375865E+03  0.94642223771E+02  0.42531834209E+03  0.10566000000E+00 0. -1.
         -4    1    1    2    0  502  0.54248762523E+02  0.57379783046E+03  0.41584491810E+03  0.71071363740E+03  0.00000000000E+00 0. -1.
</event>
<event>
 5    1  0.8445827E-005  0.1472580E+03  0.7818608E-02  0.1194051E+00
          4   -1    0    0  502    0 -0.00000000000E+00  0.00000000000E+00  0.13537419388E+04  0.13537419388E+04  0.00000000000E+00 0.  1.
         21   -1    0    0  501  502  0.00000000000E+00 -0.00000000000E+00 -0.21506916979E+02  0.21506916979E+02  0.00000000000E+00 0.  1.
        -13    1    1    2    0    0 -0.12944402941E+02  0.15152320019E+03  0.82876278703E+03  0.84259990867E+03  0.10566000000E+00 0.  1.
         13    1    1    2    0    0 -0.12622734538E+02 -0.92062178179E+01  0.10292502220E+02  0.18709212696E+02  0.10566000000E+00 0. -1.
          4    1    1    2  501    0  0.25567137479E+02 -0.14231698237E+03  0.49317973257E+03  0.51393973441E+03  0.00000000000E+00 0.  1.
</event>
<event>
 5    1  0.8445827E-005  0.2825879E+02  0.7818608E-02  0.1419459E+00
         21   -1    0    0  501  502  0.00000000000E+00  0.00000000000E+00  0.26948571417E+02  0.26948571417E+02  0.00000000000E+00 0. -1.
          4   -1    0    0  502    0 -0.00000000000E+00 -0.00000000000E+00 -0.57322548175E+02  0.57322548175E+02  0.00000000000E+00 0.  1.
        -13    1    1    2    0    0 -0.26959783289E+02 -0.14170700952E+02 -0.35332094033E+02  0.46647687115E+02  0.10566000000E+00 0.  1.
         13    1    1    2    0    0  0.22983141184E+02  0.23974688269E+01  0.86277961567E+01  0.24666225208E+02  0.10566000000E+00 0. -1.
          4    1    1    2  501    0  0.39766421048E+01  0.11773232125E+02 -0.36696788821E+01  0.12957207269E+02  0.00000000000E+00 0.  1.
</event>
<event>
 5    1  0.8445827E-005  0.1605858E+03  0.7818608E-02  0.1091117E+00
         21   -1    0    0  501  502  0.00000000000E+00  0.00000000000E+00  0.99775584893E+02  0.99775584893E+02  0.00000000000E+00 0. -1.
         -4   -1    0    0    0  501 -0.00000000000E+00 -0.00000000000E+00 -0.10386416282E+04  0.10386416282E+04  0.00000000000E+00 0. -1.
        -13    1    1    2    0    0 -0.16524013528E+03  0.36296835446E+02 -0.52495893058E+03  0.55154660051E+03  0.10566000000E+00 0.  1.
         13    1    1    2    0    0  0.14867260369E+03 -0.36250598073E+02 -0.48774974941E+03  0.51119221254E+03  0.10566000000E+00 0. -1.
         -4    1    1    2    0  502  0.16567531587E+02 -0.46237372906E-01  0.73842636685E+02  0.75678400045E+02  0.00000000000E+00 0. -1.
</event>
<event>
 5    1  0.8445827E-005  0.3118093E+03  0.7818608E-02  0.1002546E+00
         21   -1    0    0  501  502  0.00000000000E+00  0.00000000000E+00  0.19541445433E+03  0.19541445433E+03  0.00000000000E+00 0.  1.
         -4   -1    0    0    0  501 -0.00000000000E+00 -0.00000000000E+00 -0.97420801875E+03  0.97420801875E+03  0.00000000000E+00 0. -1.
        -13    1    1    2    0    0  0.11820654091E+03  0.29819727107E+03 -0.13304614491E+03  0.34726889672E+03  0.10566000000E+00 0.  1.
         13    1    1    2    0    0 -0.11391003383E+03 -0.28732869068E+03 -0.70087436784E+03  0.76600141185E+03  0.10566000000E+00 0. -1.
         -4    1    1    2    0  502 -0.42965070873E+01 -0.10868580388E+02  0.55126948332E+02  0.56352164513E+02  0.00000000000E+00 0. -1.
</event>
<event>
 5    1  0.8445827E-005  0.4927762E+03  0.7818608E-02  0.9738874E-01
         21   -1    0    0  501  502  0.00000000000E+00  0.00000000000E+00  0.44068007917E+03  0.44068007917E+03  0.00000000000E+00 0. -1.
         -4   -1    0    0    0  501 -0.00000000000E+00 -0.00000000000E+00 -0.10852173915E+04  0.10852173915E+04  0.00000000000E+00 0. -1.
        -13    1    1    2    0    0 -0.14344597825E+03  0.14894515364E+03 -0.42863783496E+03  0.47591155921E+03  0.10566000000E+00 0.  1.
         13    1    1    2    0    0  0.57152877016E+03 -0.17544817847E+03 -0.14604957696E+03  0.61543292774E+03  0.10566000000E+00 0. -1.
         -4    1    1    2    0  502 -0.42808279191E+03  0.26503024831E+02 -0.69849900377E+02  0.43455298370E+03  0.00000000000E+00 0. -1.
</event>
<event>
 5    1  0.8445827E-005  0.6940991E+02  0.7818608E-02  0.1228284E+00
         -4   -1    0    0    0  501 -0.00000000000E+00  0.00000000000E+00  0.43179642254E+03  0.43179642254E+03  0.00000000000E+00 0. -1.
         21   -1    0    0  501  502  0.00000000000E+00 -0.00000000000E+00 -0.97463054972E+02  0.97463054972E+02  0.00000000000E+00 0. -1.
        -13    1    1    2    0    0  0.69249483266E+02  0.12035068038E+02  0.14292969077E+03  0.15927724716E+03  0.10566000000E+00 0.  1.
         13    1    1    2    0    0 -0.61176919034E+02 -0.34853356098E+02  0.27452415037E+03  0.28340940731E+03  0.10566000000E+00 0. -1.
         -4    1    1    2    0  502 -0.80725642326E+01  0.22818288060E+02 -0.83120473568E+02  0.86572823041E+02  0.00000000000E+00 0. -1.
</event>
<event>
 5    1  0.8445827E-005  0.5042169E+03  0.7818608E-02  0.9615976E-01
          4   -1    0    0  502    0 -0.00000000000E+00  0.00000000000E+00  0.14524147558E+03  0.14524147558E+03  0.00000000000E+00 0.  1.
         21   -1    0    0  501  502  0.00000000000E+00 -0.00000000000E+00 -0.32751604256E+04  0.32751604256E+04  0.00000000000E+00 0.  1.
        -13    1    1    2    0    0 -0.22021313731E+02 -0.63495435762E+03 -0.21365774206E+04  0.22290390441E+04  0.10566000000E+00 0.  1.
         13    1    1    2    0    0 -0.74261919683E+02  0.28732104381E+03 -0.43193446534E+03  0.52405687520E+03  0.10566000000E+00 0. -1.
          4    1    1    2  501    0  0.96283233414E+02  0.34763331381E+03 -0.56140706403E+03  0.66730598188E+03  0.00000000000E+00 0.  1.
</event>
<event>
 5    1  0.8445827E-005  0.4163518E+03  0.7818608E-02  0.9682973E-01
          4   -1    0    0  502    0 -0.00000000000E+00  0.00000000000E+00  0.32781489581E+04  0.32781489581E+04  0.00000000000E+00 0.  1.
         21   -1    0    0  501  502  0.00000000000E+00 -0.00000000000E+00 -0.15576294169E+03  0.15576294169E+03  0.00000000000E+00 0.  1.
        -13    1    1    2    0    0 -0.30071244861E+03 -0.36781872855E+03  0.20905394983E+04  0.21438456099E+04  0.10566000000E+00 0.  1.
         13    1    1    2    0    0  0.36230875791E+03  0.10658846066E+03  0.92866737622E+03  0.10025227393E+04  0.10566000000E+00 0. -1.
          4    1    1    2  501    0 -0.61596309303E+02  0.26123026788E+03  0.10317914188E+03  0.28754355061E+03  0.00000000000E+00 0.  1.
</event>
<event>
 5    1  0.8445827E-005  0.4995185E+03  0.7818608E-02  0.9542256E-01
         21   -1    0    0  501  502  0.00000000000E+00  0.00000000000E+00  0.74013859799E+03  0.74013859799E+03  0.00000000000E+00 0.  1.
          4   -1    0    0  502    0 -0.00000000000E+00 -0.00000000000E+00 -0.17195478713E+04  0.17195478713E+04  0.00000000000E+00 0.  1.
        -13    1    1    2    0    0  0.47474176441E+03  0.88925173972E+02  0.40261430855E+03  0.62879704361E+03  0.10566000000E+00 0.  1.
         13    1    1    2    0    0  0.15924396190E+03 -0.36387781319E+03 -0.91315439351E+03  0.99579950788E+03  0.10566000000E+00 0. -1.
          4    1    1    2  501    0 -0.63398572631E+03  0.27495263922E+03 -0.46886918830E+03  0.83508991774E+03  0.00000000000E+00 0.  1.
</event>
<event>
 5    1  0.8445827E-005  0.1512425E+03  0.7818608E-02  0.1099893E+00
         -4   -1    0    0    0  501 -0.00000000000E+00  0.00000000000E+00  0.61229953091E+02  0.61229953091E+02  0.00000000000E+00 0. -1.
         21   -1    0    0  501  502  0.00000000000E+00 -0.00000000000E+00 -0.47475786500E+03  0.47475786500E+03  0.00000000000E+00 0.  1.
        -13    1    1    2    0    0  0.10198729738E+03  0.10896516189E+03 -0.27833643469E+03  0.31582589724E+03  0.10566000000E+00 0.  1.
         13    1    1    2    0    0 -0.11234904168E+03 -0.10285923447E+03 -0.98124526701E+02  0.18119261350E+03  0.10566000000E+00 0. -1.
         -4    1    1    2    0  502  0.10361744301E+02 -0.61059274196E+01 -0.37066950523E+02  0.38969307354E+02  0.00000000000E+00 0. -1.
</event>
<event>
 5    1  0.8445827E-005  0.7966250E+03  0.7818608E-02  0.8993498E-01
         -4   -1    0    0    0  501 -0.00000000000E+00  0.00000000000E+00  0.41569520550E+04  0.41569520550E+04  0.00000000000E+00 0. -1.
         21   -1    0    0  501  502  0.00000000000E+00 -0.00000000000E+00 -0.22929698841E+03  0.22929698841E+03  0.00000000000E+00 0.  1.
        -13    1    1    2    0    0 -0.69585299267E+03  0.15115076014E+03  0.13425602299E+04  0.15197124471E+04  0.10566000000E+00 0.  1.
         13    1    1    2    0    0  0.78247939659E+03 -0.45233511679E+03  0.21315213841E+04  0.23152245001E+04  0.10566000000E+00 0. -1.
         -4    1    1    2    0  502 -0.86626403912E+02  0.30118435665E+03  0.45357345261E+03  0.55131209624E+03  0.00000000000E+00 0. -1.
</event>
<event>
 5    1  0.8445827E-005  0.1270043E+03  0.7818608E-02  0.1126297E+00
         21   -1    0    0  501  502  0.00000000000E+00  0.00000000000E+00  0.70216785606E+03  0.70216785606E+03  0.00000000000E+00 0. -1.
          4   -1    0    0  502    0 -0.00000000000E+00 -0.00000000000E+00 -0.75834869640E+02  0.75834869640E+02  0.00000000000E+00 0.  1.
        -13    1    1    2    0    0 -0.10216279146E+03 -0.61693437447E+02  0.12801048225E+02  0.12002997202E+03  0.10566000000E+00 0.  1.
         13    1    1    2    0    0  0.15514269552E+03  0.73445643274E+02  0.36173803218E+03  0.40039721975E+03  0.10566000000E+00 0. -1.
          4    1    1    2  501    0 -0.52979904065E+02 -0.11752205826E+02  0.25179390601E+03  0.25757553394E+03  0.00000000000E+00 0.  1.
</event>
<event>
 5    1  0.8445827E-005  0.4724426E+03  0.7818608E-02  0.1011044E+00
         21   -1    0    0  501  502  0.00000000000E+00  0.00000000000E+00  0.66224322622E+03  0.66224322622E+03  0.00000000000E+00 0. -1.
         -4   -1    0    0    0  501 -0.00000000000E+00 -0.00000000000E+00 -0.70714003350E+03  0.70714003350E+03  0.00000000000E+00 0. -1.
        -13    1    1    2    0    0 -0.67574427832E+02 -0.84949598115E+01 -0.32121617059E+03  0.32835698113E+03  0.10566000000E+00 0.  1.
         13    1    1    2    0    0 -0.22394908167E+03  0.40584904487E+03  0.29219522588E+03  0.54794589112E+03  0.10566000000E+00 0. -1.
         -4    1    1    2    0  502  0.29152350950E+03 -0.39735408506E+03 -0.15875862569E+02  0.49308038748E+03  0.00000000000E+00 0. -1.
</event>
<event>
 5    1  0.1583057E-004  0.4835718E+03  0.7818608E-02  0.9880550E-01
         21   -1    0    0  501  502  0.00000000000E+00  0.00000000000E+00  0.37828411228E+03  0.37828411228E+03  0.00000000000E+00 0.  1.
          4   -1    0    0  502    0 -0.00000000000E+00 -0.00000000000E+00 -0.10147921680E+04  0.10147921680E+04  0.00000000000E+00 0.  1.
        -13    1    1    2    0    0 -0.39862693636E+03  0.54940204587E+02 -0.34370089457E+03  0.52919956213E+03  0.10566000000E+00 0.  1.
         13    1    1    2    0    0 -0.12202429543E+03  0.57831038319E+02 -0.30227783039E+03  0.33106835484E+03  0.10566000000E+00 0. -1.
          4    1    1    2  501    0  0.52065123179E+03 -0.11277124291E+03  0.94706692818E+01  0.53280836327E+03  0.00000000000E+00 0.  1.
</event>
<event>
 5    1  0.8445827E-005  0.5073415E+03  0.7818608E-02  0.9462025E-01
         -4   -1    0    0    0  501 -0.00000000000E+00  0.00000000000E+00  0.25382505184E+04  0.25382505184E+04  0.00000000000E+00 0. -1.
         21   -1    0    0  501  502  0.00000000000E+00 -0.00000000000E+00 -0.34317700103E+03  0.34317700103E+03  0.00000000000E+00 0. -1.
        -13    1    1    2    0    0  0.43668748108E+03  0.15471615766E+03  0.14943709406E+04  0.15645374923E+04  0.10566000000E+00 0.  1.
         13    1    1    2    0    0 -0.59929303227E+03 -0.43799638647E+03  0.64938341130E+03  0.98625138738E+03  0.10566000000E+00 0. -1.
         -4    1    1    2    0  502  0.16260555119E+03  0.28328022881E+03  0.51319165414E+02  0.33063863968E+03  0.00000000000E+00 0. -1.
</event>
<event>
 5    1  0.8445827E-005  0.4505455E+03  0.7818608E-02  0.9768264E-01
         21   -1    0    0  501  502  0.00000000000E+00  0.00000000000E+00  0.53251615143E+03  0.53251615143E+03  0.00000000000E+00 0.  1.
          4   -1    0    0  502    0 -0.00000000000E+00 -0.00000000000E+00 -0.10004334262E+04  0.10004334262E+04  0.00000000000E+00 0.  1.
        -13    1    1    2    0    0  0.35473440798E+02 -0.41815675456E+03  0.14850363169E+03  0.44515927057E+03  0.10566000000E+00 0.  1.
         13    1    1    2    0    0 -0.21570330795E+03 -0.11511581816E+03 -0.43030229903E+03  0.49491377872E+03  0.10566000000E+00 0. -1.
          4    1    1    2  501    0  0.18022986716E+03  0.53327257272E+03 -0.18611860743E+03  0.59287652834E+03  0.00000000000E+00 0.  1.
</event>
<event>
 5    1  0.8445827E-005  0.5009314E+03  0.7818608E-02  0.9880536E-01
          4   -1    0    0  502    0 -0.00000000000E+00  0.00000000000E+00  0.68966096144E+03  0.68966096144E+03  0.00000000000E+00 0.  1.
         21   -1    0    0  501  502  0.00000000000E+00 -0.00000000000E+00 -0.50087765996E+03  0.50087765996E+03  0.00000000000E+00 0.  1.
        -13    1    1    2    0    0 -0.31977434074E+03  0.46475710634E+03 -0.31926503927E+01  0.56414980375E+03  0.10566000000E+00 0.  1.
         13    1    1    2    0    0  0.56882188761E+02 -0.10734233694E+03  0.13078754745E+03  0.17850309362E+03  0.10566000000E+00 0. -1.
          4    1    1    2  501    0  0.26289215198E+03 -0.35741476939E+03  0.61188404416E+02  0.44788572403E+03  0.00000000000E+00 0.  1.
</event>
<event>
 5    1  0.8445827E-005  0.4877357E+03  0.7818608E-02  0.9740601E-01
         -4   -1    0    0    0  501 -0.00000000000E+00  0.00000000000E+00  0.28879847126E+03  0.28879847126E+03  0.00000000000E+00 0. -1.
         21   -1    0    0  501  502  0.00000000000E+00 -0.00000000000E+00 -0.13092217484E+04  0.13092217484E+04  0.00000000000E+00 0. -1.
        -13    1    1    2    0    0 -0.18175866398E+03  0.10911703165E+03 -0.14447929423E+03  0.25654827256E+03  0.10566000000E+00 0.  1.
         13    1    1    2    0    0 -0.18530110414E+03 -0.45450219025E+03 -0.29619707749E+03  0.57327258788E+03  0.10566000000E+00 0. -1.
         -4    1    1    2    0  502  0.36705976812E+03  0.34538515861E+03 -0.57974690539E+03  0.76819935920E+03  0.00000000000E+00 0. -1.
</event>
<event>
 5    1  0.8445827E-005  0.4903150E+03  0.7818608E-02  0.9669779E-01
         -4   -1    0    0    0  501 -0.00000000000E+00  0.00000000000E+00  0.15966767891E+04  0.15966767891E+04  0.00000000000E+00 0. -1.
         21   -1    0    0  501  502  0.00000000000E+00 -0.00000000000E+00 -0.35705611296E+03  0.35705611296E+03  0.00000000000E+00 0. -1.
        -13    1    1    2    0    0  0.17094268359E+03 -0.20507065796E+03  0.79545721707E+03  0.83906350843E+03  0.10566000000E+00 0.  1.
         13    1    1    2    0    0  0.18954673282E+03  0.50328067506E+03  0.13689501978E+03  0.55494113149E+03  0.10566000000E+00 0. -1.
         -4    1    1    2    0  502 -0.36048941640E+03 -0.29821001710E+03  0.30726843924E+03  0.55972826210E+03  0.00000000000E+00 0. -1.
</event>
<event>
 5    1  0.8445827E-005  0.2008009E+03  0.7818608E-02  0.1059588E+00
          4   -1    0    0  502    0 -0.00000000000E+00  0.00000000000E+00  0.92314569537E+03  0.92314569537E+03  0.00000000000E+00 0.  1.
         21   -1    0    0  501  502  0.00000000000E+00 -0.00000000000E+00 -0.81100018941E+03  0.81100018941E+03  0.00000000000E+00 0. -1.
        -13    1    1    2    0    0 -0.79135453804E+02 -0.18503699246E+03  0.89559953156E+03  0.91793226369E+03  0.10566000000E+00 0.  1.
         13    1    1    2    0    0  0.37429385212E+02  0.17744763634E+03 -0.55555738766E+03  0.58440794370E+03  0.10566000000E+00 0. -1.
          4    1    1    2  501    0  0.41706068593E+02  0.75893561137E+01 -0.22789663794E+03  0.23180567739E+03  0.00000000000E+00 0.  1.
</event>
<event>
 5    1  0.8445827E-005  0.5199086E+03  0.7818608E-02  0.9502761E-01
         -4   -1    0    0    0  501 -0.00000000000E+00  0.00000000000E+00  0.15313707201E+04  0.15313707201E+04  0.00000000000E+00 0. -1.
         21   -1    0    0  501  502  0.00000000000E+00 -0.00000000000E+00 -0.46688264900E+03  0.46688264900E+03  0.00000000000E+00 0. -1.
        -13    1    1    2    0    0 -0.16597950149E+02 -0.40601617184E+03  0.66978365537E+02  0.41183824053E+03  0.10566000000E+00 0.  1.
         13    1    1    2    0    0 -0.72584346016E+02 -0.21850770887E+03  0.92286621283E+03  0.95115517350E+03  0.10566000000E+00 0. -1.
         -4    1    1    2    0  502  0.89182296165E+02  0.62452388072E+03  0.74643492745E+02  0.63525995509E+03  0.00000000000E+00 0. -1.
</event>
<event>
 5    1  0.8445827E-005  0.4212010E+03  0.7818608E-02  0.9735967E-01
          4   -1    0    0  502    0 -0.00000000000E+00  0.00000000000E+00  0.91781052494E+03  0.91781052494E+03  0.00000000000E+00 0.  1.
         21   -1    0    0  501  502  0.00000000000E+00 -0.00000000000E+00 -0.82876502795E+03  0.82876502795E+03  0.00000000000E+00 0.  1.
        -13    1    1    2    0    0  0.34548118979E+03  0.10478208610E+03  0.22601105982E+03  0.42593138930E+03  0.10566000000E+00 0.  1.
         13    1    1    2    0    0 -0.28362156471E+03  0.31185168903E+03  0.43800700396E+03  0.60790033279E+03  0.10566000000E+00 0. -1.
          4    1    1    2  501    0 -0.61859625078E+02 -0.41663377513E+03 -0.57497256679E+03  0.71274383081E+03  0.00000000000E+00 0.  1.
</event>
<event>
 5    1  0.8445827E-005  0.5091456E+03  0.7818608E-02  0.9529072E-01
         21   -1    0    0  501  502  0.00000000000E+00  0.00000000000E+00  0.38433090158E+03  0.38433090158E+03  0.00000000000E+00 0. -1.
         -4   -1    0    0    0  501 -0.00000000000E+00 -0.00000000000E+00 -0.32066978640E+04  0.32066978640E+04  0.00000000000E+00 0. -1.
        -13    1    1    2    0    0 -0.16617627717E+03 -0.71470281748E+03 -0.19374450164E+04  0.20717403011E+04  0.10566000000E+00 0.  1.
         13    1    1    2    0    0  0.21588724128E+03  0.20798980723E+03 -0.95901765425E+03  0.10047795446E+04  0.10566000000E+00 0. -1.
         -4    1    1    2    0  502 -0.49710964106E+02  0.50671301025E+03  0.74095708233E+02  0.51450891993E+03  0.00000000000E+00 0. -1.
</event>
<event>
 5    1  0.8445827E-005  0.3856562E+03  0.7818608E-02  0.9795282E-01
         21   -1    0    0  501  502  0.00000000000E+00  0.00000000000E+00  0.59154402013E+03  0.59154402013E+03  0.00000000000E+00 0. -1.
         -4   -1    0    0    0  501 -0.00000000000E+00 -0.00000000000E+00 -0.13098089387E+04  0.13098089387E+04  0.00000000000E+00 0. -1.
        -13    1    1    2    0    0 -0.24686290843E+03 -0.25563633746E+03 -0.68733114841E+03  0.77376698775E+03  0.10566000000E+00 0.  1.
         13    1    1    2    0    0 -0.13268363058E+03  0.38513100883E+03  0.37736656719E+03  0.55528044895E+03  0.10566000000E+00 0. -1.
         -4    1    1    2    0  502  0.37954653902E+03 -0.12949467136E+03 -0.40830033740E+03  0.57230552217E+03  0.00000000000E+00 0. -1.
</event>
<event>
 5    1  0.8445827E-005  0.1352913E+03  0.7818608E-02  0.1116598E+00
         -4   -1    0    0    0  501 -0.00000000000E+00  0.00000000000E+00  0.75267715504E+03  0.75267715504E+03  0.00000000000E+00 0. -1.
         21   -1    0    0  501  502  0.00000000000E+00 -0.00000000000E+00 -0.50246726282E+02  0.50246726282E+02  0.00000000000E+00 0. -1.
        -13    1    1    2    0    0 -0.43011412905E+02  0.15627024084E+03  0.46154931414E+03  0.48918110180E+03  0.10566000000E+00 0.  1.
         13    1    1    2    0    0 -0.10547265787E+02 -0.11177613725E+03  0.20881587261E+03  0.23708485715E+03  0.10566000000E+00 0. -1.
         -4    1    1    2    0  502  0.53558678692E+02 -0.44494103583E+02  0.32065242012E+02  0.76657922370E+02  0.00000000000E+00 0. -1.
</event>
<event>
 5    1  0.8445827E-005  0.3980410E+03  0.7818608E-02  0.9734721E-01
         21   -1    0    0  501  502  0.00000000000E+00  0.00000000000E+00  0.20029626977E+03  0.20029626977E+03  0.00000000000E+00 0. -1.
         -4   -1    0    0    0  501 -0.00000000000E+00 -0.00000000000E+00 -0.24028819709E+04  0.24028819709E+04  0.00000000000E+00 0. -1.
        -13    1    1    2    0    0 -0.22527796267E+03 -0.15815875082E+03 -0.23475482183E+03  0.36176537765E+03  0.10566000000E+00 0.  1.
         13    1    1    2    0    0  0.42026354979E+03  0.15823945001E+03 -0.19946642023E+04  0.20445895593E+04  0.10566000000E+00 0. -1.
         -4    1    1    2    0  502 -0.19498558712E+03 -0.80699182506E-01  0.26833322950E+02  0.19682330379E+03  0.00000000000E+00 0. -1.
</event>
<event>
 5    1  0.8445827E-005  0.2509692E+03  0.7818608E-02  0.1066729E+00
         21   -1    0    0  501  502  0.00000000000E+00  0.00000000000E+00  0.15610144001E+03  0.15610144001E+03  0.00000000000E+00 0.  1.
         -4   -1    0    0    0  501 -0.00000000000E+00 -0.00000000000E+00 -0.10769155989E+04  0.10769155989E+04  0.00000000000E+00 0. -1.
        -13    1    1    2    0    0  0.83197465957E+02  0.82739353683E+01  0.54481790863E+02  0.99792550062E+02  0.10566000000E+00 0.  1.
         13    1    1    2    0    0 -0.27383180366E+03  0.12756774456E+03 -0.74907039340E+03  0.80769044292E+03  0.10566000000E+00 0. -1.
         -4    1    1    2    0  502  0.19063433771E+03 -0.13584167992E+03 -0.22622555641E+03  0.32553404597E+03  0.00000000000E+00 0. -1.
</event>
<event>
 5    1  0.8445827E-005  0.3106339E+03  0.7818608E-02  0.1013246E+00
         21   -1    0    0  501  502  0.00000000000E+00  0.00000000000E+00  0.32701297480E+03  0.32701297480E+03  0.00000000000E+00 0. -1.
         -4   -1    0    0    0  501 -0.00000000000E+00 -0.00000000000E+00 -0.20711356493E+04  0.20711356493E+04  0.00000000000E+00 0. -1.
        -13    1    1    2    0    0 -0.37883781707E+03  0.12050470779E+03 -0.82392090586E+03  0.91481426887E+03  0.10566000000E+00 0.  1.
         13    1    1    2    0    0  0.18875571486E+03  0.19270953685E+03 -0.10580383744E+04  0.10918841049E+04  0.10566000000E+00 0. -1.
         -4    1    1    2    0  502  0.19008210220E+03 -0.31321424465E+03  0.13783660580E+03  0.39145025039E+03  0.00000000000E+00 0. -1.
</event>
<event>
 5    1  0.8445827E-005  0.2149748E+02  0.7818608E-02  0.1490032E+00
         21   -1    0    0  501  502  0.00000000000E+00  0.00000000000E+00  0.23516915401E+02  0.23516915401E+02  0.00000000000E+00 0. -1.
         -4   -1    0    0    0  501 -0.00000000000E+00 -0.00000000000E+00 -0.57924236713E+02  0.57924236713E+02  0.00000000000E+00 0. -1.
        -13    1    1    2    0    0  0.13678194488E+02  0.29817839861E+01  0.27756948242E+01  0.14272339892E+02  0.10566000000E+00 0.  1.
         13    1    1    2    0    0 -0.22604018173E+02 -0.83337628135E+01 -0.47029877381E+02  0.52841402051E+02  0.10566000000E+00 0. -1.
         -4    1    1    2    0  502  0.89258236855E+01  0.53519788274E+01  0.98468612455E+01  0.14327410171E+02  0.00000000000E+00 0. -1.
</event>
<event>
 5    1  0.8445827E-005  0.4756682E+03  0.7818608E-02  0.9532958E-01
         21   -1    0    0  501  502  0.00000000000E+00  0.00000000000E+00  0.35206010102E+03  0.35206010102E+03  0.00000000000E+00 0.  1.
          4   -1    0    0  502    0 -0.00000000000E+00 -0.00000000000E+00 -0.21582610389E+04  0.21582610389E+04  0.00000000000E+00 0.  1.
        -13    1    1    2    0    0 -0.19411565857E+03  0.44697058627E+03 -0.80478540661E+03  0.94082046946E+03  0.10566000000E+00 0.  1.
         13    1    1    2    0    0  0.53944358347E+03 -0.16567304903E+03 -0.97099279036E+03  0.11230645347E+04  0.10566000000E+00 0. -1.
          4    1    1    2  501    0 -0.34532792489E+03 -0.28129753724E+03 -0.30422740896E+02  0.44643613578E+03  0.00000000000E+00 0.  1.
</event>
<event>
 5    1  0.8445827E-005  0.6400529E+03  0.7818608E-02  0.9214794E-01
          4   -1    0    0  502    0 -0.00000000000E+00  0.00000000000E+00  0.20099206755E+04  0.20099206755E+04  0.00000000000E+00 0.  1.
         21   -1    0    0  501  502  0.00000000000E+00 -0.00000000000E+00 -0.11475394522E+04  0.11475394522E+04  0.00000000000E+00 0.  1.
        -13    1    1    2    0    0 -0.51290053349E+03 -0.50995754700E+03  0.17060488147E+04  0.18530316312E+04  0.10566000000E+00 0.  1.
         13    1    1    2    0    0  0.18730194477E+03  0.36512263934E+03 -0.24485279183E+02  0.41109135279E+03  0.10566000000E+00 0. -1.
          4    1    1    2  501    0  0.32559858872E+03  0.14483490766E+03 -0.81918231229E+03  0.89333714365E+03  0.00000000000E+00 0.  1.
</event>
<event>
 5    1  0.8445827E-005  0.4773154E+03  0.7818608E-02  0.9529128E-01
          4   -1    0    0  502    0 -0.00000000000E+00  0.00000000000E+00  0.15145792063E+04  0.15145792063E+04  0.00000000000E+00 0.  1.
         21   -1    0    0  501  502  0.00000000000E+00 -0.00000000000E+00 -0.37184296971E+03  0.37184296971E+03  0.00000000000E+00 0. -1.
        -13    1    1    2    0    0  0.41077798222E+03  0.30821664650E+03  0.11885749023E+04  0.12947765681E+04  0.10566000000E+00 0.  1.
         13    1    1    2    0    0 -0.35431808118E+03 -0.91538633957E+02 -0.27614403769E+02  0.36699208522E+03  0.10566000000E+00 0. -1.
          4    1    1    2  501    0 -0.56459901041E+02 -0.21667801254E+03 -0.18224261876E+02  0.22465352271E+03  0.00000000000E+00 0.  1.
</event>
<event>
 5    1  0.8445827E-005  0.4304369E+03  0.7818608E-02  0.9883830E-01
         21   -1    0    0  501  502  0.00000000000E+00  0.00000000000E+00  0.34572005470E+03  0.34572005470E+03  0.00000000000E+00 0.  1.
          4   -1    0    0  502    0 -0.00000000000E+00 -0.00000000000E+00 -0.10706608622E+04  0.10706608622E+04  0.00000000000E+00 0.  1.
        -13    1    1    2    0    0 -0.20252676445E+03  0.32985463457E+03 -0.28643392195E+02  0.38812578547E+03  0.10566000000E+00 0.  1.
         13    1    1    2    0    0 -0.15206533244E+03  0.11286270057E+03 -0.17855932982E+03  0.26027927297E+03  0.10566000000E+00 0. -1.
          4    1    1    2  501    0  0.35459209689E+03 -0.44271733515E+03 -0.51773808552E+03  0.76797585848E+03  0.00000000000E+00 0.  1.
</event>
<event>
 5    1  0.8445827E-005  0.3373094E+03  0.7818608E-02  0.9929962E-01
         21   -1    0    0  501  502  0.00000000000E+00  0.00000000000E+00  0.64826244012E+02  0.64826244012E+02  0.00000000000E+00 0. -1.
          4   -1    0    0  502    0 -0.00000000000E+00 -0.00000000000E+00 -0.23860493522E+04  0.23860493522E+04  0.00000000000E+00 0.  1.
        -13    1    1    2    0    0  0.26452805233E+03 -0.19951336119E+03 -0.15172582123E+04  0.15530142194E+04  0.10566000000E+00 0.  1.
         13    1    1    2    0    0 -0.27318469698E+03  0.21805300182E+03 -0.80475315830E+03  0.87738511911E+03  0.10566000000E+00 0. -1.
          4    1    1    2  501    0  0.86566446551E+01 -0.18539640632E+02  0.78826240834E+00  0.20476257692E+02  0.00000000000E+00 0.  1.
</event>
<event>
 5    1  0.8445827E-005  0.4850795E+03  0.7818608E-02  0.1008230E+00
         21   -1    0    0  501  502  0.00000000000E+00  0.00000000000E+00  0.94916760753E+03  0.94916760753E+03  0.00000000000E+00 0. -1.
         -4   -1    0    0    0  501 -0.00000000000E+00 -0.00000000000E+00 -0.30027654664E+03  0.30027654664E+03  0.00000000000E+00 0. -1.
        -13    1    1    2    0    0  0.55071004412E+02 -0.41370000019E+02  0.40267509746E+02  0.79785812860E+02  0.10566000000E+00 0.  1.
         13    1    1    2    0    0 -0.12592126331E+03 -0.45084954515E+03  0.14571757141E+03  0.49026023569E+03  0.10566000000E+00 0. -1.
         -4    1    1    2    0  502  0.70850258897E+02  0.49221954517E+03  0.46290597974E+03  0.67939810561E+03  0.00000000000E+00 0. -1.
</event>
<event>
 5    1  0.8445827E-005  0.4970458E+03  0.7818608E-02  0.9747041E-01
         -4   -1    0    0    0  501 -0.00000000000E+00  0.00000000000E+00  0.60186537459E+03  0.60186537459E+03  0.00000000000E+00 0. -1.
         21   -1    0    0  501  502  0.00000000000E+00 -0.00000000000E+00 -0.70022116817E+03  0.70022116817E+03  0.00000000000E+00 0. -1.
        -13    1    1    2    0    0 -0.11752678698E+03  0.15673153280E+03  0.14870004824E+03  0.24594518605E+03  0.10566000000E+00 0.  1.
         13    1    1    2    0    0 -0.53951248705E+02  0.39040123156E+03  0.71005774347E+02  0.40045685160E+03  0.10566000000E+00 0. -1.
         -4    1    1    2    0  502  0.17147803569E+03 -0.54713276436E+03 -0.31806161616E+03  0.65568450510E+03  0.00000000000E+00 0. -1.
</event>
<event>
 5    1  0.8445827E-005  0.4734403E+03  0.7818608E-02  0.9679369E-01
         21   -1    0    0  501  502  0.00000000000E+00  0.00000000000E+00  0.24387927647E+03  0.24387927647E+03  0.00000000000E+00 0.  1.
          4   -1    0    0  502    0 -0.00000000000E+00 -0.00000000000E+00 -0.19652643356E+04  0.19652643356E+04  0.00000000000E+00 0.  1.
        -13    1    1    2    0    0 -0.43290723551E+03 -0.50120670342E+03 -0.70269553492E+03  0.96560750829E+03  0.10566000000E+00 0.  1.
         13    1    1    2    0    0  0.20383107391E+03  0.20170341827E+03 -0.67480760835E+03  0.73320985747E+03  0.10566000000E+00 0. -1.
          4    1    1    2  501    0  0.22907616160E+03  0.29950328515E+03 -0.34388191587E+03  0.51032624633E+03  0.00000000000E+00 0.  1.
</event>
<event>
 5    1  0.8445827E-005  0.4560291E+03  0.7818608E-02  0.9761059E-01
         -4   -1    0    0    0  501 -0.00000000000E+00  0.00000000000E+00  0.12739459514E+04  0.12739459514E+04  0.00000000000E+00 0. -1.
         21   -1    0    0  501  502  0.00000000000E+00 -0.00000000000E+00 -0.33195371288E+03  0.33195371288E+03  0.00000000000E+00 0.  1.
        -13    1    1    2    0    0 -0.13659450919E+03  0.19939886779E+03  0.36125688883E+02  0.24438298832E+03  0.10566000000E+00 0.  1.
         13    1    1    2    0    0 -0.18674428237E+02 -0.57964568055E+03  0.67659087332E+03  0.89113022072E+03  0.10566000000E+00 0. -1.
         -4    1    1    2    0  502  0.15526893742E+03  0.38024681275E+03  0.22927567632E+03  0.47038645526E+03  0.00000000000E+00 0. -1.
</event>
<event>
 5    1  0.8445827E-005  0.1262671E+03  0.7818608E-02  0.1127198E+00
          4   -1    0    0  502    0 -0.00000000000E+00  0.00000000000E+00  0.51995300035E+02  0.51995300035E+02  0.00000000000E+00 0.  1.
         21   -1    0    0  501  502  0.00000000000E+00 -0.00000000000E+00 -0.62237318266E+03  0.62237318266E+03  0.00000000000E+00 0.  1.
        -13    1    1    2    0    0 -0.14272954264E+03  0.34647682936E+01 -0.18525828156E+03  0.23388965135E+03  0.10566000000E+00 0.  1.
         13    1    1    2    0    0  0.11618216664E+03  0.10084051157E+02 -0.99469776720E+02  0.15327828150E+03  0.10566000000E+00 0. -1.
          4    1    1    2  501    0  0.26547375995E+02 -0.13548819451E+02 -0.28564982435E+03  0.28720054985E+03  0.00000000000E+00 0.  1.
</event>
<event>
 5    1  0.8445827E-005  0.4847889E+03  0.7818608E-02  0.1011829E+00
          4   -1    0    0  502    0 -0.00000000000E+00  0.00000000000E+00  0.21416054285E+04  0.21416054285E+04  0.00000000000E+00 0.  1.
         21   -1    0    0  501  502  0.00000000000E+00 -0.00000000000E+00 -0.13103424059E+03  0.13103424059E+03  0.00000000000E+00 0.  1.
        -13    1    1    2    0    0 -0.34165338845E+03  0.31086030933E+03  0.70813966730E+03  0.84547203935E+03  0.10566000000E+00 0.  1.
         13    1    1    2    0    0 -0.57241086399E+02  0.22397474099E+02  0.18046336406E+03  0.19064423870E+03  0.10566000000E+00 0. -1.
          4    1    1    2  501    0  0.39889447485E+03 -0.33325778343E+03  0.11219681566E+04  0.12365233911E+04  0.00000000000E+00 0.  1.
</event>
<event>
 5    1  0.8445827E-005  0.5096926E+03  0.7818608E-02  0.9591058E-01
         -4   -1    0    0    0  501 -0.00000000000E+00  0.00000000000E+00  0.27100964903E+04  0.27100964903E+04  0.00000000000E+00 0. -1.
         21   -1    0    0  501  502  0.00000000000E+00 -0.00000000000E+00 -0.28736503441E+03  0.28736503441E+03  0.00000000000E+00 0. -1.
        -13    1    1    2    0    0  0.25516808727E+02  0.31287086598E+03  0.16513408770E+04  0.16809122492E+04  0.10566000000E+00 0.  1.
         13    1    1    2    0    0  0.36466305583E+03  0.18211054713E+03  0.45649117950E+03  0.61198660426E+03  0.10566000000E+00 0. -1.
         -4    1    1    2    0  502 -0.39017986456E+03 -0.49498141311E+03  0.31489939944E+03  0.70456267131E+03  0.00000000000E+00 0. -1.
</event>
<event>
 5    1  0.8445827E-005  0.4628527E+03  0.7818608E-02  0.9563333E-01
         -4   -1    0    0    0  501 -0.00000000000E+00  0.00000000000E+00  0.16621801407E+04  0.16621801407E+04  0.00000000000E+00 0. -1.
         21   -1    0    0  501  502  0.00000000000E+00 -0.00000000000E+00 -0.56680455080E+03  0.56680455080E+03  0.00000000000E+00 0. -1.
        -13    1    1    2    0    0 -0.21605718571E+03 -0.39728397640E+03  0.10201198132E+04  0.11158672457E+04  0.10566000000E+00 0.  1.
         13    1    1    2    0    0  0.52538238853E+03  0.34533946490E+03 -0.23569930351E+03  0.67144632923E+03  0.10566000000E+00 0. -1.
         -4    1    1    2    0  502 -0.30932520282E+03  0.51944511499E+02  0.31095508014E+03  0.44167111660E+03  0.00000000000E+00 0. -1.
</event>
<event>
 5    1  0.8445827E-005  0.3767946E+03  0.7818608E-02  0.1014602E+00
          4   -1    0    0  502    0 -0.00000000000E+00  0.00000000000E+00  0.96175825726E+03  0.96175825726E+03  0.00000000000E+00 0.  1.
         21   -1    0    0  501  502  0.00000000000E+00 -0.00000000000E+00 -0.33083766113E+03  0.33083766113E+03  0.00000000000E+00 0.  1.
        -13    1    1    2    0    0 -0.31290958326E+03  0.17838844661E+03 -0.87781099877E+02  0.37072952113E+03  0.10566000000E+00 0.  1.
         13    1    1    2    0    0 -0.11639174678E+03 -0.28459461097E+02  0.18867189869E+03  0.22350408534E+03  0.10566000000E+00 0. -1.
          4    1    1    2  501    0  0.42930133004E+03 -0.14992898551E+03  0.53002979732E+03  0.69836231193E+03  0.00000000000E+00 0.  1.
</event>
<event>
 5    1  0.8445827E-005  0.3230086E+03  0.7818608E-02  0.1011263E+00
          4   -1    0    0  502    0 -0.00000000000E+00  0.00000000000E+00  0.15631637619E+04  0.15631637619E+04  0.00000000000E+00 0.  1.
         21   -1    0    0  501  502  0.00000000000E+00 -0.00000000000E+00 -0.23724770413E+03  0.23724770413E+03  0.00000000000E+00 0.  1.
        -13    1    1    2    0    0  0.20881133901E+03 -0.39273537651E+03  0.10695037141E+04  0.11583097414E+04  0.10566000000E+00 0.  1.
         13    1    1    2    0    0  0.41069040838E+02  0.20758865264E+03  0.25465055287E+03  0.33109912422E+03  0.10566000000E+00 0. -1.
          4    1    1    2  501    0 -0.24988037985E+03  0.18514672388E+03  0.17617908022E+01  0.31100260047E+03  0.00000000000E+00 0.  1.
</event>
<event>
 5    1  0.8445827E-005  0.4980623E+03  0.7818608E-02  0.9515518E-01
          4   -1    0    0  502    0 -0.00000000000E+00  0.00000000000E+00  0.46428130967E+03  0.46428130967E+03  0.00000000000E+00 0.  1.
         21   -1    0    0  501  502  0.00000000000E+00 -0.00000000000E+00 -0.15883179197E+04  0.15883179197E+04  0.00000000000E+00 0. -1.
        -13    1    1    2    0    0  0.13344363828E+03  0.21467258842E+03  0.10329238072E+03  0.27305833057E+03  0.10566000000E+00 0.  1.
         13    1    1    2    0    0  0.47569176237E+03 -0.23169804208E+03 -0.16395419082E+03  0.55393828478E+03  0.10566000000E+00 0. -1.
          4    1    1    2  501    0 -0.60913540065E+03  0.17025453655E+02 -0.10633748000E+04  0.12256026141E+04  0.00000000000E+00 0.  1.
</event>
<event>
 5    1  0.8445827E-005  0.3340296E+02  0.7818608E-02  0.1379499E+00
         -4   -1    0    0    0  501 -0.00000000000E+00  0.00000000000E+00  0.18359378058E+02  0.18359378058E+02  0.00000000000E+00 0. -1.
         21   -1    0    0  501  502  0.00000000000E+00 -0.00000000000E+00 -0.27281188785E+03  0.27281188785E+03  0.00000000000E+00 0. -1.
        -13    1    1    2    0    0  0.37538087148E+02 -0.19242774766E+02 -0.12360701224E+03  0.13060664993E+03  0.10566000000E+00 0.  1.
         13    1    1    2    0    0 -0.30298358810E+02  0.10951975679E+02 -0.31224247198E+01  0.32368148202E+02  0.10566000000E+00 0. -1.
         -4    1    1    2    0  502 -0.72397283378E+01  0.82907990870E+01 -0.12772307283E+03  0.12819646777E+03  0.00000000000E+00 0. -1.
</event>
<event>
 5    1  0.8445827E-005  0.4304788E+03  0.7818608E-02  0.9996622E-01
         -4   -1    0    0    0  501 -0.00000000000E+00  0.00000000000E+00  0.18394467134E+04  0.18394467134E+04  0.00000000000E+00 0. -1.
         21   -1    0    0  501  502  0.00000000000E+00 -0.00000000000E+00 -0.17521899896E+03  0.17521899896E+03  0.00000000000E+00 0. -1.
        -13    1    1    2    0    0 -0.69441319102E+02  0.11015227725E+03  0.32706142229E+03  0.35202955287E+03  0.10566000000E+00 0.  1.
         13    1    1    2    0    0  0.35076648416E+03 -0.30210422213E+03  0.25579080426E+03  0.52889794303E+03  0.10566000000E+00 0. -1.
         -4    1    1    2    0  502 -0.28132516505E+03  0.19195194488E+03  0.10813754879E+04  0.11337382165E+04  0.00000000000E+00 0. -1.
</event>
<event>
 5    1  0.8445827E-005  0.3984432E+03  0.7818608E-02  0.1014690E+00
         -4   -1    0    0    0  501 -0.00000000000E+00  0.00000000000E+00  0.43626006215E+03  0.43626006215E+03  0.00000000000E+00 0. -1.
         21   -1    0    0  501  502  0.00000000000E+00 -0.00000000000E+00 -0.65260666762E+03  0.65260666762E+03  0.00000000000E+00 0. -1.
        -13    1    1    2    0    0  0.89127890760E+02  0.47612589995E+02  0.42139899347E+02  0.10948297547E+03  0.10566000000E+00 0.  1.
         13    1    1    2    0    0  0.24402763986E+03 -0.28399777481E+03  0.14844178311E+03  0.40278927400E+03  0.10566000000E+00 0. -1.
         -4    1    1    2    0  502 -0.33315553063E+03  0.23638518481E+03 -0.40692828794E+03  0.57659448030E+03  0.00000000000E+00 0. -1.
</event>
<event>
 5    1  0.8445827E-005  0.2973193E+03  0.7818608E-02  0.1033083E+00
         21   -1    0    0  501  502  0.00000000000E+00  0.00000000000E+00  0.36529162731E+03  0.36529162731E+03  0.00000000000E+00 0. -1.
         -4   -1    0    0    0  501 -0.00000000000E+00 -0.00000000000E+00 -0.92753172950E+03  0.92753172950E+03  0.00000000000E+00 0. -1.
        -13    1    1    2    0    0  0.92640719534E+02 -0.10066901766E+03 -0.17180255596E+02  0.13788301701E+03  0.10566000000E+00 0.  1.
         13    1    1    2    0    0  0.17888457442E+03  0.23037641376E+03 -0.74067257569E+03  0.79603320190E+03  0.10566000000E+00 0. -1.
         -4    1    1    2    0  502 -0.27152529396E+03 -0.12970739610E+03  0.19561272909E+03  0.35890713791E+03  0.00000000000E+00 0. -1.
</event>
<event>
 5    1  0.8445827E-005  0.3966293E+03  0.7818608E-02  0.9797553E-01
          4   -1    0    0  502    0 -0.00000000000E+00  0.00000000000E+00  0.23842391352E+04  0.23842391352E+04  0.00000000000E+00 0.  1.
         21   -1    0    0  501  502  0.00000000000E+00 -0.00000000000E+00 -0.18901364817E+03  0.18901364817E+03  0.00000000000E+00 0. -1.
        -13    1    1    2    0    0 -0.23487346287E+03 -0.60385273588E+03  0.12156944431E+04  0.13775763718E+04  0.10566000000E+00 0.  1.
         13    1    1    2    0    0  0.13736206907E+03  0.29362134062E+03  0.68106942271E+03  0.75427939081E+03  0.10566000000E+00 0. -1.
          4    1    1    2  501    0  0.97511393801E+02  0.31023139526E+03  0.29846162122E+03  0.44139702068E+03  0.00000000000E+00 0.  1.
</event>
<event>
 5    1  0.8445827E-005  0.5051571E+03  0.7818608E-02  0.9827788E-01
          4   -1    0    0  502    0 -0.00000000000E+00  0.00000000000E+00  0.55969423050E+03  0.55969423050E+03  0.00000000000E+00 0.  1.
         21   -1    0    0  501  502  0.00000000000E+00 -0.00000000000E+00 -0.65374701014E+03  0.65374701014E+03  0.00000000000E+00 0.  1.
        -13    1    1    2    0    0  0.52226365101E+03  0.66718367644E+02 -0.10817663939E+03  0.53750614715E+03  0.10566000000E+00 0.  1.
         13    1    1    2    0    0 -0.33611466203E+02 -0.13750642939E+03  0.10193099865E+03  0.17443534170E+03  0.10566000000E+00 0. -1.
          4    1    1    2  501    0 -0.48865218481E+03  0.70788061742E+02 -0.87807138906E+02  0.50149975179E+03  0.00000000000E+00 0.  1.
</event>
<event>
 5    1  0.8445827E-005  0.2900901E+03  0.7818608E-02  0.1011482E+00
         -4   -1    0    0    0  501 -0.00000000000E+00  0.00000000000E+00  0.79453875884E+03  0.79453875884E+03  0.00000000000E+00 0. -1.
         21   -1    0    0  501  502  0.00000000000E+00 -0.00000000000E+00 -0.22377824190E+03  0.22377824190E+03  0.00000000000E+00 0. -1.
        -13    1    1    2    0    0  0.14876427958E+03  0.22221528154E+03  0.29581953405E+03  0.39877267976E+03  0.10566000000E+00 0.  1.
         13    1    1    2    0    0 -0.17869138207E+03 -0.31528128413E+03  0.39415304253E+02  0.36453597288E+03  0.10566000000E+00 0. -1.
         -4    1    1    2    0  502  0.29927102487E+02  0.93066002591E+02  0.23552567863E+03  0.25500834809E+03  0.00000000000E+00 0. -1.
</event>
<event>
 5    1  0.8445827E-005  0.7686570E+02  0.7818608E-02  0.1209785E+00
         -4   -1    0    0    0  501 -0.00000000000E+00  0.00000000000E+00  0.22366073793E+03  0.22366073793E+03  0.00000000000E+00 0. -1.
         21   -1    0    0  501  502  0.00000000000E+00 -0.00000000000E+00 -0.12592382833E+03  0.12592382833E+03  0.00000000000E+00 0.  1.
        -13    1    1    2    0    0  0.79402184363E+02 -0.23896092460E+02 -0.77059982031E+02  0.11319886091E+03  0.10566000000E+00 0.  1.
         13    1    1    2    0    0 -0.74994197649E+02  0.14788745655E+02  0.19736668160E+03  0.21165173009E+03  0.10566000000E+00 0. -1.
         -4    1    1    2    0  502 -0.44079867139E+01  0.91073468047E+01 -0.22569789973E+02  0.24733975259E+02  0.00000000000E+00 0. -1.
</event>
<event>
 5    1  0.8445827E-005  0.4913305E+02  0.7818608E-02  0.1295359E+00
         -4   -1    0    0    0  501 -0.00000000000E+00  0.00000000000E+00  0.43031969812E+03  0.43031969812E+03  0.00000000000E+00 0. -1.
         21   -1    0    0  501  502  0.00000000000E+00 -0.00000000000E+00 -0.84794917981E+01  0.84794917981E+01  0.00000000000E+00 0.  1.
        -13    1    1    2    0    0  0.16183801625E+02  0.40029774207E+02  0.15077586415E+03  0.15683644549E+03  0.10566000000E+00 0.  1.
         13    1    1    2    0    0 -0.69439889487E+01 -0.56593364725E+02  0.22575098211E+03  0.23284017051E+03  0.10566000000E+00 0. -1.
         -4    1    1    2    0  502 -0.92398126762E+01  0.16563590518E+02  0.45313360055E+02  0.49122573920E+02  0.00000000000E+00 0. -1.
</event>
<event>
 5    1  0.8445827E-005  0.4723403E+03  0.7818608E-02  0.9986197E-01
         -4   -1    0    0    0  501 -0.00000000000E+00  0.00000000000E+00  0.94046373699E+03  0.94046373699E+03  0.00000000000E+00 0. -1.
         21   -1    0    0  501  502  0.00000000000E+00 -0.00000000000E+00 -0.44843309793E+03  0.44843309793E+03  0.00000000000E+00 0. -1.
        -13    1    1    2    0    0 -0.16336978590E+02  0.10068599006E+03  0.37047782879E+03  0.38426344902E+03  0.10566000000E+00 0.  1.
         13    1    1    2    0    0  0.45853075865E+03 -0.16924102070E+03 -0.10971158226E+03  0.50092875957E+03  0.10566000000E+00 0. -1.
         -4    1    1    2    0  502 -0.44219378006E+03  0.68555030636E+02  0.23126439253E+03  0.50370462635E+03  0.00000000000E+00 0. -1.
</event>
<event>
 5    1  0.8445827E-005  0.4911292E+03  0.7818608E-02  0.9555616E-01
         21   -1    0    0  501  502  0.00000000000E+00  0.00000000000E+00  0.44057011376E+03  0.44057011376E+03  0.00000000000E+00 0.  1.
          4   -1    0    0  502    0 -0.00000000000E+00 -0.00000000000E+00 -0.15130220306E+04  0.15130220306E+04  0.00000000000E+00 0.  1.
        -13    1    1    2    0    0 -0.35157732471E+03  0.50870072697E+03 -0.30369842866E+03  0.68892364716E+03  0.10566000000E+00 0.  1.
         13    1    1    2    0    0  0.39593457709E+03 -0.43334270755E+02 -0.68115088380E+03  0.78905550250E+03  0.10566000000E+00 0. -1.
          4    1    1    2  501    0 -0.44357252379E+02 -0.46536645622E+03 -0.87602604347E+02  0.47561299467E+03  0.00000000000E+00 0.  1.
</event>
<event>
 5    1  0.8445827E-005  0.4899772E+03  0.7818608E-02  0.1004668E+00
         21   -1    0    0  501  502  0.00000000000E+00  0.00000000000E+00  0.63609552693E+03  0.63609552693E+03  0.00000000000E+00 0. -1.
         -4   -1    0    0    0  501 -0.00000000000E+00 -0.00000000000E+00 -0.46035349751E+03  0.46035349751E+03  0.00000000000E+00 0. -1.
        -13    1    1    2    0    0 -0.74653783559E+02 -0.71698782388E+01  0.16656795961E+02  0.76824830422E+02  0.10566000000E+00 0.  1.
         13    1    1    2    0    0 -0.39012708602E+03  0.22865694680E+03 -0.67327138666E+02  0.45718278328E+03  0.10566000000E+00 0. -1.
         -4    1    1    2    0  502  0.46478086958E+03 -0.22148706856E+03  0.22641237212E+03  0.56244141074E+03  0.00000000000E+00 0. -1.
</event>
<event>
 5    1  0.8445827E-005  0.3283933E+03  0.7818608E-02  0.9962297E-01
         21   -1    0    0  501  502  0.00000000000E+00  0.00000000000E+00  0.20535437218E+04  0.20535437218E+04  0.00000000000E+00 0.  1.
         -4   -1    0    0    0  501 -0.00000000000E+00 -0.00000000000E+00 -0.80166204876E+02  0.80166204876E+02  0.00000000000E+00 0. -1.
        -13    1    1    2    0    0 -0.29046441520E+03  0.16704722448E+03  0.78345773251E+03  0.85210350398E+03  0.10566000000E+00 0.  1.
         13    1    1    2    0    0  0.28513319736E+03 -0.15338172741E+03  0.52690976057E+03  0.61843415291E+03  0.10566000000E+00 0. -1.
         -4    1    1    2    0  502  0.53312178468E+01 -0.13665497075E+02  0.66301002379E+03  0.66317226974E+03  0.00000000000E+00 0. -1.
</event>
<event>
 5    1  0.8445827E-005  0.5193944E+03  0.7818608E-02  0.9660906E-01
         21   -1    0    0  501  502  0.00000000000E+00  0.00000000000E+00  0.16857671521E+03  0.16857671521E+03  0.00000000000E+00 0. -1.
         -4   -1    0    0    0  501 -0.00000000000E+00 -0.00000000000E+00 -0.29560995905E+04  0.29560995905E+04  0.00000000000E+00 0. -1.
        -13    1    1    2    0    0  0.18595662456E+03 -0.13821689938E+03 -0.11396154448E+04  0.11629304152E+04  0.10566000000E+00 0.  1.
         13    1    1    2    0    0  0.66493209982E+02  0.56375555986E+03 -0.82177664319E+03  0.99877852435E+03  0.10566000000E+00 0. -1.
         -4    1    1    2    0  502 -0.25244983454E+03 -0.42553866047E+03 -0.82613078734E+03  0.96296736617E+03  0.00000000000E+00 0. -1.
</event>
<event>
 5    1  0.8445827E-005  0.5211792E+03  0.7818608E-02  0.9940232E-01
         21   -1    0    0  501  502  0.00000000000E+00  0.00000000000E+00  0.81680709320E+03  0.81680709320E+03  0.00000000000E+00 0.  1.
          4   -1    0    0  502    0 -0.00000000000E+00 -0.00000000000E+00 -0.45311634779E+03  0.45311634779E+03  0.00000000000E+00 0.  1.
        -13    1    1    2    0    0 -0.50181300577E+03 -0.15992867098E+03  0.29211333447E+03  0.60226545966E+03  0.10566000000E+00 0.  1.
         13    1    1    2    0    0  0.41229393425E+02 -0.78170323035E+02 -0.88451830762E+02  0.12503679384E+03  0.10566000000E+00 0. -1.
          4    1    1    2  501    0  0.46058361235E+03  0.23809899401E+03  0.16002924170E+03  0.54262118749E+03  0.00000000000E+00 0.  1.
</event>
<event>
 5    1  0.8445827E-005  0.3532815E+02  0.7818608E-02  0.1366611E+00
         21   -1    0    0  501  502  0.00000000000E+00  0.00000000000E+00  0.42427753659E+02  0.42427753659E+02  0.00000000000E+00 0.  1.
         -4   -1    0    0    0  501 -0.00000000000E+00 -0.00000000000E+00 -0.41686793607E+02  0.41686793607E+02  0.00000000000E+00 0. -1.
        -13    1    1    2    0    0  0.13236119306E+02 -0.26594443586E+02  0.75735960727E+01  0.30656643740E+02  0.10566000000E+00 0.  1.
         13    1    1    2    0    0 -0.21706923391E+02  0.33342056111E+02 -0.11863367745E+02  0.41516669991E+02  0.10566000000E+00 0. -1.
         -4    1    1    2    0  502  0.84708040858E+01 -0.67476125257E+01  0.50307317239E+01  0.11941233535E+02  0.00000000000E+00 0. -1.
</event>
<event>
 5    1  0.8445827E-005  0.2183189E+03  0.7818608E-02  0.1048255E+00
         21   -1    0    0  501  502  0.00000000000E+00  0.00000000000E+00  0.91124699471E+02  0.91124699471E+02  0.00000000000E+00 0. -1.
          4   -1    0    0  502    0 -0.00000000000E+00 -0.00000000000E+00 -0.14878326686E+04  0.14878326686E+04  0.00000000000E+00 0.  1.
        -13    1    1    2    0    0  0.10511608388E+03 -0.18096685635E+03 -0.27970911648E+03  0.34933593459E+03  0.10566000000E+00 0.  1.
         13    1    1    2    0    0 -0.11294943425E+03  0.18998617217E+03 -0.11621167949E+04  0.11829487632E+04  0.10566000000E+00 0. -1.
          4    1    1    2  501    0  0.78333503692E+01 -0.90193158122E+01  0.45117942242E+02  0.46672670245E+02  0.00000000000E+00 0.  1.
</event>
<event>
 5    1  0.8445827E-005  0.1154947E+03  0.7818608E-02  0.1166675E+00
         -4   -1    0    0    0  501 -0.00000000000E+00  0.00000000000E+00  0.14282104137E+03  0.14282104137E+03  0.00000000000E+00 0. -1.
         21   -1    0    0  501  502  0.00000000000E+00 -0.00000000000E+00 -0.44608854323E+03  0.44608854323E+03  0.00000000000E+00 0. -1.
        -13    1    1    2    0    0 -0.13978023120E+02 -0.60069261485E+02  0.59747020965E+02  0.85868614662E+02  0.10566000000E+00 0.  1.
         13    1    1    2    0    0 -0.83655461241E+02  0.11672054573E+03 -0.23830518050E+02  0.14556725849E+03  0.10566000000E+00 0. -1.
         -4    1    1    2    0  502  0.97633484361E+02 -0.56651284244E+02 -0.33918400478E+03  0.35747371144E+03  0.00000000000E+00 0. -1.
</event>
<event>
 5    1  0.8445827E-005  0.3786092E+03  0.7818608E-02  0.9923845E-01
         -4   -1    0    0    0  501 -0.00000000000E+00  0.00000000000E+00  0.11459630120E+04  0.11459630120E+04  0.00000000000E+00 0. -1.
         21   -1    0    0  501  502  0.00000000000E+00 -0.00000000000E+00 -0.62547537223E+03  0.62547537223E+03  0.00000000000E+00 0. -1.
        -13    1    1    2    0    0 -0.16950189034E+03 -0.17472494756E+03  0.68060802171E+03  0.72283261445E+03  0.10566000000E+00 0.  1.
         13    1    1    2    0    0 -0.11498915957E+03  0.42425637654E+03  0.23756074085E+03  0.49965097479E+03  0.10566000000E+00 0. -1.
         -4    1    1    2    0  502  0.28449104991E+03 -0.24953142898E+03 -0.39768112278E+03  0.54895479499E+03  0.00000000000E+00 0. -1.
</event>
<event>
 5    1  0.8445827E-005  0.1900079E+03  0.7818608E-02  0.1067210E+00
         -4   -1    0    0    0  501 -0.00000000000E+00  0.00000000000E+00  0.21150123745E+03  0.21150123745E+03  0.00000000000E+00 0. -1.
         21   -1    0    0  501  502  0.00000000000E+00 -0.00000000000E+00 -0.30635452986E+03  0.30635452986E+03  0.00000000000E+00 0.  1.
        -13    1    1    2    0    0 -0.16637359379E+00  0.15741828168E+03 -0.44006483200E+02  0.16345373907E+03  0.10566000000E+00 0.  1.
         13    1    1    2    0    0 -0.90718031722E+02 -0.21734261987E+03 -0.31164748562E+01  0.23553619524E+03  0.10566000000E+00 0. -1.
         -4    1    1    2    0  502  0.90884405316E+02  0.59924338190E+02 -0.47730334348E+02  0.11886583300E+03  0.00000000000E+00 0. -1.
</event>
<event>
 5    1  0.8445827E-005  0.4500893E+03  0.7818608E-02  0.9602332E-01
         21   -1    0    0  501  502  0.00000000000E+00  0.00000000000E+00  0.36594088406E+03  0.36594088406E+03  0.00000000000E+00 0. -1.
         -4   -1    0    0    0  501 -0.00000000000E+00 -0.00000000000E+00 -0.18989026704E+04  0.18989026704E+04  0.00000000000E+00 0. -1.
        -13    1    1    2    0    0  0.42364153697E+03 -0.23603297859E+03 -0.77712620960E+03  0.91602886179E+03  0.10566000000E+00 0.  1.
         13    1    1    2    0    0 -0.45245095605E+03 -0.21313333004E+03 -0.74659164450E+03  0.89863050183E+03  0.10566000000E+00 0. -1.
         -4    1    1    2    0  502  0.28809419083E+02  0.44916630864E+03 -0.92439322736E+01  0.45018419089E+03  0.00000000000E+00 0. -1.
</event>
<event>
 5    1  0.8445827E-005  0.4161766E+03  0.7818608E-02  0.9683454E-01
         21   -1    0    0  501  502  0.00000000000E+00  0.00000000000E+00  0.53814664110E+03  0.53814664110E+03  0.00000000000E+00 0. -1.
         -4   -1    0    0    0  501 -0.00000000000E+00 -0.00000000000E+00 -0.79549237943E+03  0.79549237943E+03  0.00000000000E+00 0. -1.
        -13    1    1    2    0    0 -0.35011402073E+03  0.26431763961E+03 -0.25197303532E+03  0.50589926251E+03  0.10566000000E+00 0.  1.
         13    1    1    2    0    0  0.43351905994E+03  0.24342101874E+02  0.18507430382E+03  0.47199981181E+03  0.10566000000E+00 0. -1.
         -4    1    1    2    0  502 -0.83405039205E+02 -0.28865974148E+03 -0.19044700684E+03  0.35573994621E+03  0.00000000000E+00 0. -1.
</event>
<event>
 5    1  0.8445827E-005  0.3357674E+03  0.7818608E-02  0.9935477E-01
          4   -1    0    0  502    0 -0.00000000000E+00  0.00000000000E+00  0.27454984644E+03  0.27454984644E+03  0.00000000000E+00 0.  1.
         21   -1    0    0  501  502  0.00000000000E+00 -0.00000000000E+00 -0.48280048753E+03  0.48280048753E+03  0.00000000000E+00 0. -1.
        -13    1    1    2    0    0  0.34276396280E+03 -0.48649173572E+02 -0.71188091810E+02  0.35344254393E+03  0.10566000000E+00 0.  1.
         13    1    1    2    0    0 -0.32590048854E+03  0.15497665538E+02 -0.80233537462E+02  0.33598919293E+03  0.10566000000E+00 0. -1.
          4    1    1    2  501    0 -0.16863474260E+02  0.33151508034E+02 -0.56829011818E+02  0.67918597109E+02  0.00000000000E+00 0.  1.
</event>
<event>
 5    1  0.8445827E-005  0.4515387E+02  0.7818608E-02  0.1312885E+00
          4   -1    0    0  502    0 -0.00000000000E+00  0.00000000000E+00  0.20751089492E+03  0.20751089492E+03  0.00000000000E+00 0.  1.
         21   -1    0    0  501  502  0.00000000000E+00 -0.00000000000E+00 -0.30534165900E+03  0.30534165900E+03  0.00000000000E+00 0.  1.
        -13    1    1    2    0    0  0.44842286499E+02  0.66448763321E+01  0.19983639984E+03  0.20491359863E+03  0.10566000000E+00 0.  1.
         13    1    1    2    0    0 -0.38026668551E+02  0.25253764247E+02 -0.15447695019E+03  0.16108047502E+03  0.10566000000E+00 0. -1.
          4    1    1    2  501    0 -0.68156179478E+01 -0.31898640579E+02 -0.14319021373E+03  0.14685848027E+03  0.00000000000E+00 0.  1.
</event>
<event>
 5    1  0.8445827E-005  0.5170712E+03  0.7818608E-02  0.9441321E-01
         21   -1    0    0  501  502  0.00000000000E+00  0.00000000000E+00  0.58619322978E+03  0.58619322978E+03  0.00000000000E+00 0.  1.
          4   -1    0    0  502    0 -0.00000000000E+00 -0.00000000000E+00 -0.10840673222E+04  0.10840673222E+04  0.00000000000E+00 0.  1.
        -13    1    1    2    0    0 -0.59873699606E+03 -0.21185677301E+03 -0.56378814344E+03  0.84925047223E+03  0.10566000000E+00 0.  1.
         13    1    1    2    0    0  0.39768794036E+03 -0.12206895224E+03 -0.37670190648E+02  0.41770274292E+03  0.10566000000E+00 0. -1.
          4    1    1    2  501    0  0.20104905570E+03  0.33392572525E+03  0.10358424172E+03  0.40330733680E+03  0.00000000000E+00 0.  1.
</event>
<event>
 5    1  0.8445827E-005  0.4780316E+03  0.7818608E-02  0.9894541E-01
          4   -1    0    0  502    0 -0.00000000000E+00  0.00000000000E+00  0.45340906621E+03  0.45340906621E+03  0.00000000000E+00 0.  1.
         21   -1    0    0  501  502  0.00000000000E+00 -0.00000000000E+00 -0.75334149677E+03  0.75334149677E+03  0.00000000000E+00 0.  1.
        -13    1    1    2    0    0  0.46606765277E+03 -0.44378717829E+02  0.75413104603E+02  0.47421058093E+03  0.10566000000E+00 0.  1.
         13    1    1    2    0    0  0.15698770439E+02  0.13244906399E+03 -0.12375560281E+03  0.18194687778E+03  0.10566000000E+00 0. -1.
          4    1    1    2  501    0 -0.48176642321E+03 -0.88070346156E+02 -0.25158993236E+03  0.55059310427E+03  0.00000000000E+00 0.  1.
</event>
<event>
 5    1  0.8445827E-005  0.3094603E+03  0.7818608E-02  0.1015800E+00
         21   -1    0    0  501  502  0.00000000000E+00  0.00000000000E+00  0.57634429078E+03  0.57634429078E+03  0.00000000000E+00 0. -1.
         -4   -1    0    0    0  501 -0.00000000000E+00 -0.00000000000E+00 -0.11701724592E+04  0.11701724592E+04  0.00000000000E+00 0. -1.
        -13    1    1    2    0    0 -0.72306550926E+01  0.20807287129E+03 -0.52172656668E+03  0.56173412188E+03  0.10566000000E+00 0.  1.
         13    1    1    2    0    0 -0.73370310190E+02  0.28457871398E+03  0.40090074931E+03  0.49708114914E+03  0.10566000000E+00 0. -1.
         -4    1    1    2    0  502  0.80600965283E+02 -0.49265158527E+03 -0.47300235105E+03  0.68770147897E+03  0.00000000000E+00 0. -1.
</event>
<event>
 5    1  0.8445827E-005  0.3265285E+03  0.7818608E-02  0.1026920E+00
          4   -1    0    0  502    0 -0.00000000000E+00  0.00000000000E+00  0.13658708126E+04  0.13658708126E+04  0.00000000000E+00 0.  1.
         21   -1    0    0  501  502  0.00000000000E+00 -0.00000000000E+00 -0.21798194640E+03  0.21798194640E+03  0.00000000000E+00 0.  1.
        -13    1    1    2    0    0 -0.26524575939E+03  0.23107074734E+03  0.87964413912E+03  0.94737681300E+03  0.10566000000E+00 0.  1.
         13    1    1    2    0    0 -0.40150948724E+02 -0.11832105339E+03  0.28428931245E+03  0.31053565768E+03  0.10566000000E+00 0. -1.
          4    1    1    2  501    0  0.30539670811E+03 -0.11274969396E+03 -0.16044585386E+02  0.32594028830E+03  0.00000000000E+00 0.  1.
</event>
<event>
 5    1  0.8445827E-005  0.1851654E+03  0.7818608E-02  0.1070811E+00
         21   -1    0    0  501  502  0.00000000000E+00  0.00000000000E+00  0.45310788390E+03  0.45310788390E+03  0.00000000000E+00 0.  1.
         -4   -1    0    0    0  501 -0.00000000000E+00 -0.00000000000E+00 -0.10848741238E+03  0.10848741238E+03  0.00000000000E+00 0. -1.
        -13    1    1    2    0    0 -0.14811657382E+02 -0.17107922334E+03  0.17449367938E+03  0.24481736287E+03  0.10566000000E+00 0.  1.
         13    1    1    2    0    0  0.20526621760E+02  0.19239413439E+03  0.57269970131E+02  0.20178380954E+03  0.10566000000E+00 0. -1.
         -4    1    1    2    0  502 -0.57149643778E+01 -0.21314911053E+02  0.11285682201E+03  0.11499412387E+03  0.00000000000E+00 0. -1.
</event>
<event>
 5    1  0.8445827E-005  0.9841858E+02  0.7818608E-02  0.1167199E+00
          4   -1    0    0  502    0 -0.00000000000E+00  0.00000000000E+00  0.23285621471E+03  0.23285621471E+03  0.00000000000E+00 0.  1.
         21   -1    0    0  501  502  0.00000000000E+00 -0.00000000000E+00 -0.67382642846E+02  0.67382642846E+02  0.00000000000E+00 0. -1.
        -13    1    1    2    0    0  0.53413729702E+02 -0.78479833536E+02  0.14021255772E+03  0.16932714873E+03  0.10566000000E+00 0.  1.
         13    1    1    2    0    0 -0.57641089314E+02  0.91005077715E+02  0.36314355842E+02  0.11368009039E+03  0.10566000000E+00 0. -1.
          4    1    1    2  501    0  0.42273596126E+01 -0.12525244179E+02 -0.11053341697E+02  0.17231618430E+02  0.00000000000E+00 0.  1.
</event>
<event>
 5    1  0.8445827E-005  0.3034940E+03  0.7818608E-02  0.1005874E+00
         21   -1    0    0  501  502  0.00000000000E+00  0.00000000000E+00  0.30152310634E+03  0.30152310634E+03  0.00000000000E+00 0. -1.
         -4   -1    0    0    0  501 -0.00000000000E+00 -0.00000000000E+00 -0.96883410328E+03  0.96883410328E+03  0.00000000000E+00 0. -1.
        -13    1    1    2    0    0 -0.17298927082E+03 -0.17168241659E+03 -0.19230844248E+03  0.31045561389E+03  0.10566000000E+00 0.  1.
         13    1    1    2    0    0  0.22512653645E+03  0.26443736147E+03 -0.66039532215E+03  0.74614413369E+03  0.10566000000E+00 0. -1.
         -4    1    1    2    0  502 -0.52137265627E+02 -0.92754944882E+02  0.18539276768E+03  0.21375746203E+03  0.00000000000E+00 0. -1.
</event>
<event>
 5    1  0.8445827E-005  0.2282291E+03  0.7818608E-02  0.1042336E+00
          4   -1    0    0  502    0 -0.00000000000E+00  0.00000000000E+00  0.32109649886E+03  0.32109649886E+03  0.00000000000E+00 0.  1.
         21   -1    0    0  501  502  0.00000000000E+00 -0.00000000000E+00 -0.29210284240E+03  0.29210284240E+03  0.00000000000E+00 0. -1.
        -13    1    1    2    0    0  0.18169064792E+03 -0.13963569791E+03  0.11080617724E+03  0.25453416225E+03  0.10566000000E+00 0.  1.
         13    1    1    2    0    0 -0.23237246850E+03  0.59206433032E+02 -0.10346381463E+03  0.26116496306E+03  0.10566000000E+00 0. -1.
          4    1    1    2  501    0  0.50681820576E+02  0.80429264879E+02  0.21651293852E+02  0.97500215956E+02  0.00000000000E+00 0.  1.
</event>
<event>
 5    1  0.8445827E-005  0.4238310E+03  0.7818608E-02  0.9984516E-01
         -4   -1    0    0    0  501 -0.00000000000E+00  0.00000000000E+00  0.29434579394E+04  0.29434579394E+04  0.00000000000E+00 0. -1.
         21   -1    0    0  501  502  0.00000000000E+00 -0.00000000000E+00 -0.11676038382E+03  0.11676038382E+03  0.00000000000E+00 0. -1.
        -13    1    1    2    0    0 -0.13939863063E+03 -0.26902294796E+02  0.75325819857E+03  0.76652047368E+03  0.10566000000E+00 0.  1.
         13    1    1    2    0    0 -0.25256165349E+03 -0.30374122013E+03  0.49061873696E+03  0.62988322238E+03  0.10566000000E+00 0. -1.
         -4    1    1    2    0  502  0.39196028412E+03  0.33064351492E+03  0.15828206201E+04  0.16638146272E+04  0.00000000000E+00 0. -1.
</event>
<event>
 5    1  0.8445827E-005  0.4728500E+03  0.7818608E-02  0.9608502E-01
         21   -1    0    0  501  502  0.00000000000E+00  0.00000000000E+00  0.28942039052E+03  0.28942039052E+03  0.00000000000E+00 0.  1.
          4   -1    0    0  502    0 -0.00000000000E+00 -0.00000000000E+00 -0.18436946994E+04  0.18436946994E+04  0.00000000000E+00 0.  1.
        -13    1    1    2    0    0 -0.34386216480E+03 -0.72389194880E+02 -0.33246130048E+03  0.48374777663E+03  0.10566000000E+00 0.  1.
         13    1    1    2    0    0 -0.36609285345E+03  0.50020602358E+02 -0.60356561755E+03  0.70768460762E+03  0.10566000000E+00 0. -1.
          4    1    1    2  501    0  0.70995501824E+03  0.22368592522E+02 -0.61824739084E+03  0.94168270566E+03  0.00000000000E+00 0.  1.
</event>
<event>
 5    1  0.8445827E-005  0.4868836E+03  0.7818608E-02  0.9875349E-01
         21   -1    0    0  501  502  0.00000000000E+00  0.00000000000E+00  0.19541086684E+03  0.19541086684E+03  0.00000000000E+00 0. -1.
         -4   -1    0    0    0  501 -0.00000000000E+00 -0.00000000000E+00 -0.18635987780E+04  0.18635987780E+04  0.00000000000E+00 0. -1.
        -13    1    1    2    0    0  0.21028304144E+02  0.13297808933E+03 -0.48982460452E+03  0.50798968116E+03  0.10566000000E+00 0.  1.
         13    1    1    2    0    0  0.83283091610E+02  0.39581302524E+03 -0.78726369830E+03  0.88509217945E+03  0.10566000000E+00 0. -1.
         -4    1    1    2    0  502 -0.10431139575E+03 -0.52879111457E+03 -0.39109960830E+03  0.66592778418E+03  0.00000000000E+00 0. -1.
</event>
<event>
 5    1  0.8445827E-005  0.5305234E+03  0.7818608E-02  0.9413468E-01
         -4   -1    0    0    0  501 -0.00000000000E+00  0.00000000000E+00  0.24767104532E+04  0.24767104532E+04  0.00000000000E+00 0. -1.
         21   -1    0    0  501  502  0.00000000000E+00 -0.00000000000E+00 -0.29963640280E+03  0.29963640280E+03  0.00000000000E+00 0. -1.
        -13    1    1    2    0    0 -0.39082348916E+03  0.33939853613E+03  0.11678617775E+04  0.12774331719E+04  0.10566000000E+00 0.  1.
         13    1    1    2    0    0  0.59708166356E+03 -0.91412798881E+02  0.10094381499E+04  0.11763622751E+04  0.10566000000E+00 0. -1.
         -4    1    1    2    0  502 -0.20625817440E+03 -0.24798573725E+03 -0.22587708828E+00  0.32255140894E+03  0.00000000000E+00 0. -1.
</event>
<event>
 5    1  0.8445827E-005  0.4352418E+03  0.7818608E-02  0.9873615E-01
         -4   -1    0    0    0  501 -0.00000000000E+00  0.00000000000E+00  0.15939463988E+04  0.15939463988E+04  0.00000000000E+00 0. -1.
         21   -1    0    0  501  502  0.00000000000E+00 -0.00000000000E+00 -0.21855770613E+03  0.21855770613E+03  0.00000000000E+00 0. -1.
        -13    1    1    2    0    0 -0.69328597130E+02 -0.17643266471E+03  0.40190061647E+03  0.44436365315E+03  0.10566000000E+00 0.  1.
         13    1    1    2    0    0  0.25065600005E+03 -0.26313171909E+03  0.76898601055E+03  0.85053290797E+03  0.10566000000E+00 0. -1.
         -4    1    1    2    0  502 -0.18132740292E+03  0.43956438380E+03  0.20450206567E+03  0.51760754382E+03  0.00000000000E+00 0. -1.
</event>
<event>
 5    1  0.8445827E-005  0.2364887E+02  0.7818608E-02  0.1464636E+00
         -4   -1    0    0    0  501 -0.00000000000E+00  0.00000000000E+00  0.11630511555E+03  0.11630511555E+03  0.00000000000E+00 0. -1.
         21   -1    0    0  501  502  0.00000000000E+00 -0.00000000000E+00 -0.30566465825E+02  0.30566465825E+02  0.00000000000E+00 0.  1.
        -13    1    1    2    0    0  0.95895126774E+01 -0.27857059657E+02 -0.11632958762E+02  0.31675091471E+02  0.10566000000E+00 0.  1.
         13    1    1    2    0    0 -0.21954283533E+02  0.94011793111E+01  0.87829728014E+02  0.91018926740E+02  0.10566000000E+00 0. -1.
         -4    1    1    2    0  502  0.12364770856E+02  0.18455880346E+02  0.95418804753E+01  0.24177563166E+02  0.00000000000E+00 0. -1.
</event>
<event>
 5    1  0.8445827E-005  0.1909301E+03  0.7818608E-02  0.1069810E+00
         21   -1    0    0  501  502  0.00000000000E+00  0.00000000000E+00  0.34079921062E+03  0.34079921062E+03  0.00000000000E+00 0. -1.
         -4   -1    0    0    0  501 -0.00000000000E+00 -0.00000000000E+00 -0.12737151746E+04  0.12737151746E+04  0.00000000000E+00 0. -1.
        -13    1    1    2    0    0  0.16623250885E+03  0.50724029929E+02 -0.46899697655E+03  0.50016432239E+03  0.10566000000E+00 0.  1.
         13    1    1    2    0    0 -0.13515126547E+03 -0.23811275306E+03 -0.73443254703E+03  0.78380783680E+03  0.10566000000E+00 0. -1.
         -4    1    1    2    0  502 -0.31081243377E+02  0.18738872313E+03  0.27051355961E+03  0.33054222602E+03  0.00000000000E+00 0. -1.
</event>
<event>
 5    1  0.8445827E-005  0.1344036E+03  0.7818608E-02  0.1145999E+00
          4   -1    0    0  502    0 -0.00000000000E+00  0.00000000000E+00  0.41965893801E+03  0.41965893801E+03  0.00000000000E+00 0.  1.
         21   -1    0    0  501  502  0.00000000000E+00 -0.00000000000E+00 -0.14371538745E+03  0.14371538745E+03  0.00000000000E+00 0. -1.
        -13    1    1    2    0    0 -0.20482723068E+02 -0.62793542100E+02  0.26301365277E+03  0.27118031563E+03  0.10566000000E+00 0.  1.
         13    1    1    2    0    0  0.13463042033E+03 -0.81615310327E+01 -0.49922793536E+02  0.14382022509E+03  0.10566000000E+00 0. -1.
          4    1    1    2  501    0 -0.11414769726E+03  0.70955073133E+02  0.62852691315E+02  0.14837378474E+03  0.00000000000E+00 0.  1.
</event>
<event>
 5    1  0.8445827E-005  0.4258223E+03  0.7818608E-02  0.9859603E-01
          4   -1    0    0  502    0 -0.00000000000E+00  0.00000000000E+00  0.25334451102E+04  0.25334451102E+04  0.00000000000E+00 0.  1.
         21   -1    0    0  501  502  0.00000000000E+00 -0.00000000000E+00 -0.16017145392E+03  0.16017145392E+03  0.00000000000E+00 0.  1.
        -13    1    1    2    0    0 -0.21246225921E+03  0.54253105378E+03  0.13292558628E+04  0.14513446579E+04  0.10566000000E+00 0.  1.
         13    1    1    2    0    0  0.32655349821E+02 -0.20968102425E+03  0.69813999763E+03  0.72967936195E+03  0.10566000000E+00 0. -1.
          4    1    1    2  501    0  0.17980690939E+03 -0.33285002953E+03  0.34587779578E+03  0.51259254427E+03  0.00000000000E+00 0.  1.
</event>
<event>
 5    1  0.8445827E-005  0.2314392E+03  0.7818608E-02  0.1074292E+00
         21   -1    0    0  501  502  0.00000000000E+00  0.00000000000E+00  0.43745395392E+03  0.43745395392E+03  0.00000000000E+00 0.  1.
          4   -1    0    0  502    0 -0.00000000000E+00 -0.00000000000E+00 -0.23580425402E+03  0.23580425402E+03  0.00000000000E+00 0.  1.
        -13    1    1    2    0    0  0.13776506995E+03 -0.20853758747E+03 -0.25901416263E+02  0.25127282865E+03  0.10566000000E+00 0.  1.
         13    1    1    2    0    0 -0.84677625814E+02 -0.14286369921E+02 -0.16316455245E+02  0.87410746220E+02  0.10566000000E+00 0. -1.
          4    1    1    2  501    0 -0.53087444138E+02  0.22282395739E+03  0.24386757140E+03  0.33457463307E+03  0.00000000000E+00 0.  1.
</event>
<event>
 5    1  0.8445827E-005  0.5044919E+03  0.7818608E-02  0.9468181E-01
         -4   -1    0    0    0  501 -0.00000000000E+00  0.00000000000E+00  0.26787705179E+04  0.26787705179E+04  0.00000000000E+00 0. -1.
         21   -1    0    0  501  502  0.00000000000E+00 -0.00000000000E+00 -0.23325589001E+03  0.23325589001E+03  0.00000000000E+00 0.  1.
        -13    1    1    2    0    0  0.14779862157E+02  0.47732145208E+03  0.82531836901E+03  0.95352222540E+03  0.10566000000E+00 0.  1.
         13    1    1    2    0    0  0.43525915023E+03 -0.46566122015E+03  0.10926455980E+04  0.12649764084E+04  0.10566000000E+00 0. -1.
         -4    1    1    2    0  502 -0.45003901238E+03 -0.11660231931E+02  0.52755066090E+03  0.69352777413E+03  0.00000000000E+00 0. -1.
</event>
<event>
 5    1  0.8445827E-005  0.1230673E+04  0.7818608E-02  0.8583816E-01
         21   -1    0    0  501  502  0.00000000000E+00  0.00000000000E+00  0.72722155366E+03  0.72722155366E+03  0.00000000000E+00 0.  1.
         -4   -1    0    0    0  501 -0.00000000000E+00 -0.00000000000E+00 -0.24818304336E+04  0.24818304336E+04  0.00000000000E+00 0. -1.
        -13    1    1    2    0    0  0.11262084742E+04 -0.14007837149E+03 -0.48893593080E+03  0.12357288672E+04  0.10566000000E+00 0.  1.
         13    1    1    2    0    0 -0.13095836881E+04  0.10901848111E+03 -0.10112456492E+04  0.16581653234E+04  0.10566000000E+00 0. -1.
         -4    1    1    2    0  502  0.18337521390E+03  0.31059890378E+02 -0.25442729988E+03  0.31515779664E+03  0.00000000000E+00 0. -1.
</event>
<event>
 5    1  0.8445827E-005  0.1671521E+03  0.7818608E-02  0.1085327E+00
          4   -1    0    0  502    0 -0.00000000000E+00  0.00000000000E+00  0.93910595934E+02  0.93910595934E+02  0.00000000000E+00 0.  1.
         21   -1    0    0  501  502  0.00000000000E+00 -0.00000000000E+00 -0.64027296618E+03  0.64027296618E+03  0.00000000000E+00 0.  1.
        -13    1    1    2    0    0 -0.15692842309E+03 -0.10278735155E+03 -0.45076844419E+02  0.19293445177E+03  0.10566000000E+00 0.  1.
         13    1    1    2    0    0  0.10946198829E+03  0.62516560220E+02 -0.22372344746E+03  0.25679259975E+03  0.10566000000E+00 0. -1.
          4    1    1    2  501    0  0.47466434799E+02  0.40270791335E+02 -0.27756207837E+03  0.28445651059E+03  0.00000000000E+00 0.  1.
</event>
<event>
 5    1  0.8445827E-005  0.4775768E+03  0.7818608E-02  0.9930072E-01
          4   -1    0    0  502    0 -0.00000000000E+00  0.00000000000E+00  0.17001412827E+04  0.17001412827E+04  0.00000000000E+00 0.  1.
         21   -1    0    0  501  502  0.00000000000E+00 -0.00000000000E+00 -0.19574388880E+03  0.19574388880E+03  0.00000000000E+00 0.  1.
        -13    1    1    2    0    0 -0.78555477484E+02 -0.43138418869E+03  0.40591515758E+03  0.59752021523E+03  0.10566000000E+00 0.  1.
         13    1    1    2    0    0  0.43940685739E+02 -0.11037778099E+03  0.37817472232E+03  0.39639648102E+03  0.10566000000E+00 0. -1.
          4    1    1    2  501    0  0.34614791745E+02  0.54176196968E+03  0.72030751399E+03  0.90196847524E+03  0.00000000000E+00 0.  1.
</event>
<event>
 5    1  0.9125006E-005  0.4885237E+03  0.7818608E-02  0.9764621E-01
         21   -1    0    0  501  502  0.00000000000E+00  0.00000000000E+00  0.10950620984E+04  0.10950620984E+04  0.00000000000E+00 0.  1.
          4   -1    0    0  502    0 -0.00000000000E+00 -0.00000000000E+00 -0.37247723161E+03  0.37247723161E+03  0.00000000000E+00 0.  1.
        -13    1    1    2    0    0 -0.39002431583E+03  0.70339065134E+02  0.98455044911E+02  0.40836253262E+03  0.10566000000E+00 0.  1.
         13    1    1    2    0    0 -0.16246199676E+03 -0.10641402583E+03 -0.36085520590E+02  0.19753486084E+03  0.10566000000E+00 0. -1.
          4    1    1    2  501    0  0.55248631259E+03  0.36074960694E+02  0.66021534250E+03  0.86164193657E+03  0.00000000000E+00 0.  1.
</event>
<event>
 5    1  0.8445827E-005  0.4849473E+03  0.7818608E-02  0.9778753E-01
         -4   -1    0    0    0  501 -0.00000000000E+00  0.00000000000E+00  0.14465770362E+04  0.14465770362E+04  0.00000000000E+00 0. -1.
         21   -1    0    0  501  502  0.00000000000E+00 -0.00000000000E+00 -0.32897904804E+03  0.32897904804E+03  0.00000000000E+00 0. -1.
        -13    1    1    2    0    0 -0.12241506546E+03  0.14417692885E+03  0.61096675889E+03  0.63957237800E+03  0.10566000000E+00 0.  1.
         13    1    1    2    0    0 -0.40426951702E+03 -0.21287151022E+02  0.42858084915E+03  0.58954943865E+03  0.10566000000E+00 0. -1.
         -4    1    1    2    0  502  0.52668458248E+03 -0.12288977783E+03  0.78050380079E+02  0.54643426754E+03  0.00000000000E+00 0. -1.
</event>
<event>
 5    1  0.8445827E-005  0.1603441E+03  0.7818608E-02  0.1091335E+00
         21   -1    0    0  501  502  0.00000000000E+00  0.00000000000E+00  0.55015386877E+03  0.55015386877E+03  0.00000000000E+00 0. -1.
          4   -1    0    0  502    0 -0.00000000000E+00 -0.00000000000E+00 -0.82911324184E+02  0.82911324184E+02  0.00000000000E+00 0.  1.
        -13    1    1    2    0    0 -0.91603236401E+02 -0.13281158703E+03  0.89562752956E+02  0.18453067076E+03  0.10566000000E+00 0.  1.
         13    1    1    2    0    0  0.10988740167E+03  0.11640855254E+03  0.14949639908E+03  0.21903282095E+03  0.10566000000E+00 0. -1.
          4    1    1    2  501    0 -0.18284165272E+02  0.16403034489E+02  0.22818339255E+03  0.22950170125E+03  0.00000000000E+00 0.  1.
</event>
<event>
 5    1  0.8445827E-005  0.3886795E+02  0.7818608E-02  0.1345188E+00
          4   -1    0    0  502    0 -0.00000000000E+00  0.00000000000E+00  0.13140314206E+03  0.13140314206E+03  0.00000000000E+00 0.  1.
         21   -1    0    0  501  502  0.00000000000E+00 -0.00000000000E+00 -0.10848267274E+03  0.10848267274E+03  0.00000000000E+00 0. -1.
        -13    1    1    2    0    0 -0.75560077253E+01 -0.37327905009E+02  0.11013394306E+03  0.11653309540E+03  0.10566000000E+00 0.  1.
         13    1    1    2    0    0  0.18433199190E+02  0.57768662338E+02 -0.77091938985E+02  0.98082513228E+02  0.10566000000E+00 0. -1.
          4    1    1    2  501    0 -0.10877191464E+02 -0.20440757329E+02 -0.10121534758E+02  0.25270206176E+02  0.00000000000E+00 0.  1.
</event>
<event>
 5    1  0.8445827E-005  0.7171478E+02  0.7818608E-02  0.1222299E+00
          4   -1    0    0  502    0 -0.00000000000E+00  0.00000000000E+00  0.81896957236E+02  0.81896957236E+02  0.00000000000E+00 0.  1.
         21   -1    0    0  501  502  0.00000000000E+00 -0.00000000000E+00 -0.16878721899E+03  0.16878721899E+03  0.00000000000E+00 0. -1.
        -13    1    1    2    0    0 -0.69336537626E+02  0.15214732135E+02  0.49223359373E+02  0.86382832762E+02  0.10566000000E+00 0.  1.
         13    1    1    2    0    0  0.77223343947E+02 -0.37581671703E+01 -0.10671865197E+03  0.13178182922E+03  0.10566000000E+00 0. -1.
          4    1    1    2  501    0 -0.78868063205E+01 -0.11456564965E+02 -0.29394969159E+02  0.32519514243E+02  0.00000000000E+00 0.  1.
</event>
<event>
 5    1  0.8445827E-005  0.3776754E+02  0.7818608E-02  0.1351559E+00
         21   -1    0    0  501  502  0.00000000000E+00  0.00000000000E+00  0.60792471592E+02  0.60792471592E+02  0.00000000000E+00 0. -1.
          4   -1    0    0  502    0 -0.00000000000E+00 -0.00000000000E+00 -0.50013895760E+02  0.50013895760E+02  0.00000000000E+00 0.  1.
        -13    1    1    2    0    0  0.30959078921E+02  0.21635592841E+02 -0.27850752169E+02  0.46928019409E+02  0.10566000000E+00 0.  1.
         13    1    1    2    0    0 -0.37318359071E+02 -0.11890627007E+02  0.28332431972E+02  0.48340302025E+02  0.10566000000E+00 0. -1.
          4    1    1    2  501    0  0.63592801504E+01 -0.97449658339E+01  0.10296896029E+02  0.15538045918E+02  0.00000000000E+00 0.  1.
</event>
<event>
 5    1  0.8445827E-005  0.5445355E+03  0.7818608E-02  0.9385360E-01
          4   -1    0    0  502    0 -0.00000000000E+00  0.00000000000E+00  0.23552066378E+04  0.23552066378E+04  0.00000000000E+00 0.  1.
         21   -1    0    0  501  502  0.00000000000E+00 -0.00000000000E+00 -0.29741144882E+03  0.29741144882E+03  0.00000000000E+00 0.  1.
        -13    1    1    2    0    0 -0.43823517496E+03 -0.40241720511E+03  0.12649421026E+04  0.13978798981E+04  0.10566000000E+00 0.  1.
         13    1    1    2    0    0  0.12039158588E+03  0.52166340336E+03  0.73663864865E+03  0.91063897907E+03  0.10566000000E+00 0. -1.
          4    1    1    2  501    0  0.31784358908E+03 -0.11924619825E+03  0.56214437745E+02  0.34409920942E+03  0.00000000000E+00 0.  1.
</event>
<event>
 5    1  0.8445827E-005  0.4438604E+03  0.7818608E-02  0.9713791E-01
          4   -1    0    0  502    0 -0.00000000000E+00  0.00000000000E+00  0.14212079830E+04  0.14212079830E+04  0.00000000000E+00 0.  1.
         21   -1    0    0  501  502  0.00000000000E+00 -0.00000000000E+00 -0.62167537827E+03  0.62167537827E+03  0.00000000000E+00 0.  1.
        -13    1    1    2    0    0 -0.40053407987E+03 -0.45199430441E+03  0.48729674494E+02  0.60588859759E+03  0.10566000000E+00 0.  1.
         13    1    1    2    0    0  0.30166354776E+03  0.65332344101E+02  0.94429603732E+03  0.99346073324E+03  0.10566000000E+00 0. -1.
          4    1    1    2  501    0  0.98870532102E+02  0.38666196031E+03 -0.19349310708E+03  0.44353403043E+03  0.00000000000E+00 0.  1.
</event>
<event>
 5    1  0.8445827E-005  0.3199366E+03  0.7818608E-02  0.1014995E+00
         21   -1    0    0  501  502  0.00000000000E+00  0.00000000000E+00  0.33020975264E+03  0.33020975264E+03  0.00000000000E+00 0. -1.
         -4   -1    0    0    0  501 -0.00000000000E+00 -0.00000000000E+00 -0.11429246199E+04  0.11429246199E+04  0.00000000000E+00 0. -1.
        -13    1    1    2    0    0 -0.54595892456E+02  0.18542096968E+03 -0.44325536314E+02  0.19830887979E+03  0.10566000000E+00 0.  1.
         13    1    1    2    0    0 -0.12679826198E+03  0.26939013418E+03  0.68223223843E+02  0.30545582834E+03  0.10566000000E+00 0. -1.
         -4    1    1    2    0  502  0.18139415444E+03 -0.45481110385E+03 -0.83661255479E+03  0.96936966442E+03  0.00000000000E+00 0. -1.
</event>
<event>
 5    1  0.8445827E-005  0.3555760E+03  0.7818608E-02  0.1028369E+00
         21   -1    0    0  501  502  0.00000000000E+00  0.00000000000E+00  0.23698473884E+04  0.23698473884E+04  0.00000000000E+00 0.  1.
          4   -1    0    0  502    0 -0.00000000000E+00 -0.00000000000E+00 -0.13868698460E+03  0.13868698460E+03  0.00000000000E+00 0.  1.
        -13    1    1    2    0    0  0.41675994986E+03  0.61954982385E+02  0.27453272167E+03  0.50288716635E+03  0.10566000000E+00 0.  1.
         13    1    1    2    0    0 -0.86061713180E+02  0.33910109502E+02  0.53351944888E+03  0.54147901852E+03  0.10566000000E+00 0. -1.
          4    1    1    2  501    0 -0.33069823668E+03 -0.95865091886E+02  0.14231082332E+04  0.14641681881E+04  0.00000000000E+00 0.  1.
</event>
<event>
 5    1  0.8445827E-005  0.6669573E+03  0.7818608E-02  0.9172340E-01
          4   -1    0    0  502    0 -0.00000000000E+00  0.00000000000E+00  0.12527290819E+04  0.12527290819E+04  0.00000000000E+00 0.  1.
         21   -1    0    0  501  502  0.00000000000E+00 -0.00000000000E+00 -0.10092867487E+04  0.10092867487E+04  0.00000000000E+00 0.  1.
        -13    1    1    2    0    0  0.68792887486E+03  0.19274620685E+03 -0.88992760832E+01  0.71447634349E+03  0.10566000000E+00 0.  1.
         13    1    1    2    0    0 -0.41426459887E+03 -0.55322160395E+03  0.64724488423E+03  0.94688713809E+03  0.10566000000E+00 0. -1.
          4    1    1    2  501    0 -0.27366427599E+03  0.36047539709E+03 -0.39490327497E+03  0.60065234907E+03  0.00000000000E+00 0.  1.
</event>
<event>
 5    1  0.8445827E-005  0.1129108E+03  0.7818608E-02  0.1144800E+00
         -4   -1    0    0    0  501 -0.00000000000E+00  0.00000000000E+00  0.52588235501E+03  0.52588235501E+03  0.00000000000E+00 0. -1.
         21   -1    0    0  501  502  0.00000000000E+00 -0.00000000000E+00 -0.37013844618E+02  0.37013844618E+02  0.00000000000E+00 0.  1.
        -13    1    1    2    0    0 -0.98522355419E+02  0.64870028768E+02  0.13649777324E+03  0.18040628707E+03  0.10566000000E+00 0.  1.
         13    1    1    2    0    0  0.87538061792E+02 -0.68345347643E+02  0.35385494545E+03  0.37087374184E+03  0.10566000000E+00 0. -1.
         -4    1    1    2    0  502  0.10984293627E+02  0.34753188749E+01 -0.14842082993E+01  0.11616170714E+02  0.00000000000E+00 0. -1.
</event>
<event>
 5    1  0.8445827E-005  0.1648380E+03  0.7818608E-02  0.1111164E+00
         21   -1    0    0  501  502  0.00000000000E+00  0.00000000000E+00  0.25656463250E+03  0.25656463250E+03  0.00000000000E+00 0.  1.
          4   -1    0    0  502    0 -0.00000000000E+00 -0.00000000000E+00 -0.58137352397E+03  0.58137352397E+03  0.00000000000E+00 0.  1.
        -13    1    1    2    0    0  0.11684017134E+02 -0.23700946653E+03 -0.13046265229E+03  0.27079608249E+03  0.10566000000E+00 0.  1.
         13    1    1    2    0    0  0.11810504032E+02  0.85533091789E+02 -0.34294665854E+03  0.35364928894E+03  0.10566000000E+00 0. -1.
          4    1    1    2  501    0 -0.23494521166E+02  0.15147637475E+03  0.14860041936E+03  0.21349278504E+03  0.00000000000E+00 0.  1.
</event>
<event>
 5    1  0.8445827E-005  0.7148110E+02  0.7818608E-02  0.1222894E+00
         21   -1    0    0  501  502  0.00000000000E+00  0.00000000000E+00  0.56432150660E+02  0.56432150660E+02  0.00000000000E+00 0.  1.
         -4   -1    0    0    0  501 -0.00000000000E+00 -0.00000000000E+00 -0.37797752125E+03  0.37797752125E+03  0.00000000000E+00 0. -1.
        -13    1    1    2    0    0  0.70132107410E+02 -0.39857078031E+02 -0.20264786005E+02  0.83173143951E+02  0.10566000000E+00 0.  1.
         13    1    1    2    0    0 -0.57755696080E+02  0.40258210097E+02 -0.32062766521E+03  0.32826598175E+03  0.10566000000E+00 0. -1.
         -4    1    1    2    0  502 -0.12376411330E+02 -0.40113206581E+00  0.19347080628E+02  0.22970546210E+02  0.00000000000E+00 0. -1.
</event>
<event>
 5    1  0.8445827E-005  0.8769181E+02  0.7818608E-02  0.1247274E+00
         21   -1    0    0  501  502  0.00000000000E+00  0.00000000000E+00  0.44761987687E+02  0.44761987687E+02  0.00000000000E+00 0. -1.
         -4   -1    0    0    0  501 -0.00000000000E+00 -0.00000000000E+00 -0.45055211658E+03  0.45055211658E+03  0.00000000000E+00 0. -1.
        -13    1    1    2    0    0 -0.21028658084E+02 -0.91347590949E+01 -0.83552645854E+02  0.86641237744E+02  0.10566000000E+00 0.  1.
         13    1    1    2    0    0  0.33726966086E+02  0.94098913639E+02 -0.30511924735E+03  0.32107612813E+03  0.10566000000E+00 0. -1.
         -4    1    1    2    0  502 -0.12698308002E+02 -0.84964154544E+02 -0.17118235688E+02  0.87596738390E+02  0.00000000000E+00 0. -1.
</event>
<event>
 5    1  0.8445827E-005  0.6957073E+03  0.7818608E-02  0.9129228E-01
          4   -1    0    0  502    0 -0.00000000000E+00  0.00000000000E+00  0.19547015479E+04  0.19547015479E+04  0.00000000000E+00 0.  1.
         21   -1    0    0  501  502  0.00000000000E+00 -0.00000000000E+00 -0.43333026528E+03  0.43333026528E+03  0.00000000000E+00 0. -1.
        -13    1    1    2    0    0  0.81410462222E+03  0.21257999081E+03  0.60142499943E+03  0.10342478569E+04  0.10566000000E+00 0.  1.
         13    1    1    2    0    0 -0.63076487997E+03  0.64231441038E+02  0.74574349520E+03  0.97883777186E+03  0.10566000000E+00 0. -1.
          4    1    1    2  501    0 -0.18333974225E+03 -0.27681143185E+03  0.17420278804E+03  0.37494618447E+03  0.00000000000E+00 0.  1.
</event>
<event>
 5    1  0.8445827E-005  0.2884444E+03  0.7818608E-02  0.1012193E+00
          4   -1    0    0  502    0 -0.00000000000E+00  0.00000000000E+00  0.14470540096E+03  0.14470540096E+03  0.00000000000E+00 0.  1.
         21   -1    0    0  501  502  0.00000000000E+00 -0.00000000000E+00 -0.78036413637E+03  0.78036413637E+03  0.00000000000E+00 0. -1.
        -13    1    1    2    0    0 -0.18204457904E+03 -0.23841598583E+03 -0.25602895053E+03  0.39437703499E+03  0.10566000000E+00 0.  1.
         13    1    1    2    0    0  0.15682911125E+03  0.23121233822E+03 -0.18677893771E+03  0.33606680618E+03  0.10566000000E+00 0. -1.
          4    1    1    2  501    0  0.25215467792E+02  0.72036476143E+01 -0.19285084717E+03  0.19462569617E+03  0.00000000000E+00 0.  1.
</event>
<event>
 5    1  0.8445827E-005  0.5155052E+03  0.7818608E-02  0.9758110E-01
         21   -1    0    0  501  502  0.00000000000E+00  0.00000000000E+00  0.95769105333E+02  0.95769105333E+02  0.00000000000E+00 0. -1.
         -4   -1    0    0    0  501 -0.00000000000E+00 -0.00000000000E+00 -0.38637329507E+04  0.38637329507E+04  0.00000000000E+00 0. -1.
        -13    1    1    2    0    0 -0.16187261200E+03 -0.48659749562E+02 -0.44783598667E+03  0.47867274401E+03  0.10566000000E+00 0.  1.
         13    1    1    2    0    0 -0.32141931276E+03 -0.30240392759E+03 -0.16094994822E+04  0.16689059603E+04  0.10566000000E+00 0. -1.
         -4    1    1    2    0  502  0.48329192476E+03  0.35106367715E+03 -0.17106283765E+04  0.18119233517E+04  0.00000000000E+00 0. -1.
</event>
<event>
 5    1  0.8445827E-005  0.3941004E+03  0.7818608E-02  0.9913555E-01
         -4   -1    0    0    0  501 -0.00000000000E+00  0.00000000000E+00  0.16518319057E+04  0.16518319057E+04  0.00000000000E+00 0. -1.
         21   -1    0    0  501  502  0.00000000000E+00 -0.00000000000E+00 -0.59285433413E+03  0.59285433413E+03  0.00000000000E+00 0. -1.
        -13    1    1    2    0    0 -0.22330894256E+03 -0.52329545703E+01  0.11924912856E+04  0.12132311177E+04  0.10566000000E+00 0.  1.
         13    1    1    2    0    0  0.33441003226E+03  0.36687796533E+03  0.19211149725E+03  0.53229348076E+03  0.10566000000E+00 0. -1.
         -4    1    1    2    0  502 -0.11110108970E+03 -0.36164501076E+03 -0.32562521130E+03  0.49916164133E+03  0.00000000000E+00 0. -1.
</event>
<event>
 5    1  0.8445827E-005  0.5221734E+02  0.7818608E-02  0.1283015E+00
         21   -1    0    0  501  502  0.00000000000E+00  0.00000000000E+00  0.26018841181E+03  0.26018841181E+03  0.00000000000E+00 0.  1.
         -4   -1    0    0    0  501 -0.00000000000E+00 -0.00000000000E+00 -0.32292959667E+02  0.32292959667E+02  0.00000000000E+00 0. -1.
        -13    1    1    2    0    0  0.63762245931E+02  0.11369625304E+02  0.12823058000E+03  0.14365926770E+03  0.10566000000E+00 0.  1.
         13    1    1    2    0    0 -0.49085697921E+02 -0.85830620058E+01  0.18414357297E+01  0.49864584059E+02  0.10566000000E+00 0. -1.
         -4    1    1    2    0  502 -0.14676548010E+02 -0.27865632986E+01  0.97823436417E+02  0.98957519719E+02  0.00000000000E+00 0. -1.
</event>
<event>
 5    1  0.8445827E-005  0.1679051E+03  0.7818608E-02  0.1084681E+00
         21   -1    0    0  501  502  0.00000000000E+00  0.00000000000E+00  0.15301810742E+03  0.15301810742E+03  0.00000000000E+00 0. -1.
          4   -1    0    0  502    0 -0.00000000000E+00 -0.00000000000E+00 -0.29902931120E+03  0.29902931120E+03  0.00000000000E+00 0.  1.
        -13    1    1    2    0    0  0.15291837847E+03 -0.75727218679E+02 -0.16268464239E+03  0.23576459903E+03  0.10566000000E+00 0.  1.
         13    1    1    2    0    0 -0.14947642370E+03  0.65050481458E+02 -0.32175231675E+02  0.16616264044E+03  0.10566000000E+00 0. -1.
          4    1    1    2  501    0 -0.34419547698E+01  0.10676737220E+02  0.48848670282E+02  0.50120179156E+02  0.00000000000E+00 0.  1.
</event>
<event>
 5    1  0.8445827E-005  0.2256576E+03  0.7818608E-02  0.1109837E+00
         -4   -1    0    0    0  501 -0.00000000000E+00  0.00000000000E+00  0.49471354755E+03  0.49471354755E+03  0.00000000000E+00 0. -1.
         21   -1    0    0  501  502  0.00000000000E+00 -0.00000000000E+00 -0.54782942379E+03  0.54782942379E+03  0.00000000000E+00 0. -1.
        -13    1    1    2    0    0 -0.34854437496E+02 -0.79874813443E+00  0.67492566002E+01  0.35511032658E+02  0.10566000000E+00 0.  1.
         13    1    1    2    0    0  0.53227342915E+01  0.22567340151E+03 -0.47952698996E+03  0.53000279330E+03  0.10566000000E+00 0. -1.
         -4    1    1    2    0  502  0.29531703205E+02 -0.22487465338E+03  0.41966185711E+03  0.47702914538E+03  0.00000000000E+00 0. -1.
</event>
<event>
 5    1  0.8445827E-005  0.2299087E+02  0.7818608E-02  0.1472058E+00
         21   -1    0    0  501  502  0.00000000000E+00  0.00000000000E+00  0.33661898215E+03  0.33661898215E+03  0.00000000000E+00 0. -1.
          4   -1    0    0  502    0 -0.00000000000E+00 -0.00000000000E+00 -0.88500744034E+01  0.88500744034E+01  0.00000000000E+00 0.  1.
        -13    1    1    2    0    0  0.23379516351E+02 -0.46210328871E+00  0.11733195916E+02  0.26162843399E+02  0.10566000000E+00 0.  1.
         13    1    1    2    0    0 -0.20390348935E+02  0.11550536200E+02  0.90718689267E+02  0.93696707320E+02  0.10566000000E+00 0. -1.
          4    1    1    2  501    0 -0.29891674166E+01 -0.11088432911E+02  0.22531702256E+03  0.22560950584E+03  0.00000000000E+00 0.  1.
</event>
<event>
 5    1  0.8445827E-005  0.5015032E+03  0.7818608E-02  0.9601996E-01
         21   -1    0    0  501  502  0.00000000000E+00  0.00000000000E+00  0.23606709335E+03  0.23606709335E+03  0.00000000000E+00 0.  1.
          4   -1    0    0  502    0 -0.00000000000E+00 -0.00000000000E+00 -0.31305768252E+04  0.31305768252E+04  0.00000000000E+00 0.  1.
        -13    1    1    2    0    0 -0.27861892742E+03  0.50967995833E+03 -0.43725373360E+03  0.72704401885E+03  0.10566000000E+00 0.  1.
         13    1    1    2    0    0 -0.12131609547E+03 -0.29281874160E+03 -0.18703343366E+04  0.18970005146E+04  0.10566000000E+00 0. -1.
          4    1    1    2  501    0  0.39993502289E+03 -0.21686121674E+03 -0.58692166157E+03  0.74259938505E+03  0.00000000000E+00 0.  1.
</event>
<event>
 5    1  0.8445827E-005  0.1612047E+03  0.7818608E-02  0.1125943E+00
         21   -1    0    0  501  502  0.00000000000E+00  0.00000000000E+00  0.38092559430E+03  0.38092559430E+03  0.00000000000E+00 0. -1.
         -4   -1    0    0    0  501 -0.00000000000E+00 -0.00000000000E+00 -0.10734480244E+04  0.10734480244E+04  0.00000000000E+00 0. -1.
        -13    1    1    2    0    0  0.24110407623E+03 -0.93306881237E+02 -0.12994018596E+03  0.28934721833E+03  0.10566000000E+00 0.  1.
         13    1    1    2    0    0  0.89903846831E+02  0.40479220461E+02  0.25930325941E+03  0.27741568173E+03  0.10566000000E+00 0. -1.
         -4    1    1    2    0  502 -0.33100792307E+03  0.52827660777E+02 -0.82188550353E+03  0.88761071861E+03  0.00000000000E+00 0. -1.
</event>
<event>
 5    1  0.8445827E-005  0.2468327E+03  0.7818608E-02  0.1032047E+00
         21   -1    0    0  501  502  0.00000000000E+00  0.00000000000E+00  0.40258252909E+03  0.40258252909E+03  0.00000000000E+00 0. -1.
          4   -1    0    0  502    0 -0.00000000000E+00 -0.00000000000E+00 -0.22026501271E+03  0.22026501271E+03  0.00000000000E+00 0.  1.
        -13    1    1    2    0    0 -0.81832160882E+02  0.22174589852E+03 -0.44816387715E+01  0.23640609619E+03  0.10566000000E+00 0.  1.
         13    1    1    2    0    0  0.93964299590E+02 -0.24531902955E+03  0.77383076853E+02  0.27385921128E+03  0.10566000000E+00 0. -1.
          4    1    1    2  501    0 -0.12132138708E+02  0.23573131031E+02  0.10941607830E+03  0.11258223433E+03  0.00000000000E+00 0.  1.
</event>
<event>
 5    1  0.8445827E-005  0.1344015E+03  0.7818608E-02  0.1117603E+00
          4   -1    0    0  502    0 -0.00000000000E+00  0.00000000000E+00  0.54469310222E+03  0.54469310222E+03  0.00000000000E+00 0.  1.
         21   -1    0    0  501  502  0.00000000000E+00 -0.00000000000E+00 -0.54310757598E+02  0.54310757598E+02  0.00000000000E+00 0. -1.
        -13    1    1    2    0    0 -0.11853232127E+03 -0.75171289263E+01  0.20382767193E+03  0.23590707794E+03  0.10566000000E+00 0.  1.
         13    1    1    2    0    0  0.15112125650E+03  0.30425998989E+02  0.28404869776E+03  0.32318268741E+03  0.10566000000E+00 0. -1.
          4    1    1    2  501    0 -0.32588935225E+02 -0.22908870063E+02  0.25059749306E+01  0.39914094465E+02  0.00000000000E+00 0.  1.
</event>
<event>
 5    1  0.8445827E-005  0.4880471E+03  0.7818608E-02  0.9666101E-01
         21   -1    0    0  501  502  0.00000000000E+00  0.00000000000E+00  0.21821660558E+03  0.21821660558E+03  0.00000000000E+00 0.  1.
          4   -1    0    0  502    0 -0.00000000000E+00 -0.00000000000E+00 -0.22493444310E+04  0.22493444310E+04  0.00000000000E+00 0.  1.
        -13    1    1    2    0    0  0.49700546599E+02  0.57642543248E+03 -0.69138821119E+03  0.90152875344E+03  0.10566000000E+00 0.  1.
         13    1    1    2    0    0  0.11488230838E+03 -0.24900327248E+03 -0.13281022764E+03  0.30469516276E+03  0.10566000000E+00 0. -1.
          4    1    1    2  501    0 -0.16458285498E+03 -0.32742216000E+03 -0.12069293866E+04  0.12613371204E+04  0.00000000000E+00 0.  1.
</event>
<event>
 5    1  0.8445827E-005  0.4962908E+03  0.7818608E-02  0.1026598E+00
          4   -1    0    0  502    0 -0.00000000000E+00  0.00000000000E+00  0.28893659029E+04  0.28893659029E+04  0.00000000000E+00 0.  1.
         21   -1    0    0  501  502  0.00000000000E+00 -0.00000000000E+00 -0.93477975424E+02  0.93477975424E+02  0.00000000000E+00 0.  1.
        -13    1    1    2    0    0  0.12487780014E+03 -0.46311068139E+03  0.13229606682E+04  0.14072280942E+04  0.10566000000E+00 0.  1.
         13    1    1    2    0    0  0.23101970854E+02 -0.27536830459E+02  0.20342783839E+03  0.20657897930E+03  0.10566000000E+00 0. -1.
          4    1    1    2  501    0 -0.14797977100E+03  0.49064751184E+03  0.12694994209E+04  0.13690368049E+04  0.00000000000E+00 0.  1.
</event>
<event>
 5    1  0.8445827E-005  0.3910751E+03  0.7818608E-02  0.9755180E-01
         21   -1    0    0  501  502  0.00000000000E+00  0.00000000000E+00  0.25991385405E+03  0.25991385405E+03  0.00000000000E+00 0. -1.
          4   -1    0    0  502    0 -0.00000000000E+00 -0.00000000000E+00 -0.67955624425E+03  0.67955624425E+03  0.00000000000E+00 0.  1.
        -13    1    1    2    0    0 -0.36086282094E+03 -0.12393836408E+03 -0.24092308478E+03  0.45125008319E+03  0.10566000000E+00 0.  1.
         13    1    1    2    0    0  0.38116902401E+03  0.12825867427E+03 -0.20764843334E+03  0.45261241191E+03  0.10566000000E+00 0. -1.
          4    1    1    2  501    0 -0.20306203061E+02 -0.43203101938E+01  0.28929127928E+02  0.35607603199E+02  0.00000000000E+00 0.  1.
</event>
<event>
 5    1  0.8445827E-005  0.7249018E+02  0.7818608E-02  0.1296633E+00
          4   -1    0    0  502    0 -0.00000000000E+00  0.00000000000E+00  0.64537309280E+02  0.64537309280E+02  0.00000000000E+00 0.  1.
         21   -1    0    0  501  502  0.00000000000E+00 -0.00000000000E+00 -0.13553241493E+03  0.13553241493E+03  0.00000000000E+00 0.  1.
        -13    1    1    2    0    0  0.40019675711E+02 -0.62380776822E+02 -0.41292408771E+01  0.74229357772E+02  0.10566000000E+00 0.  1.
         13    1    1    2    0    0 -0.14178181062E+02 -0.46550106244E+01 -0.49812707980E+02  0.52000067139E+02  0.10566000000E+00 0. -1.
          4    1    1    2  501    0 -0.25841494649E+02  0.67035787447E+02 -0.17053156796E+02  0.73840299302E+02  0.00000000000E+00 0.  1.
</event>
<event>
 5    1  0.8445827E-005  0.8723034E+02  0.7818608E-02  0.1187609E+00
          4   -1    0    0  502    0 -0.00000000000E+00  0.00000000000E+00  0.40373238185E+03  0.40373238185E+03  0.00000000000E+00 0.  1.
         21   -1    0    0  501  502  0.00000000000E+00 -0.00000000000E+00 -0.17885810434E+03  0.17885810434E+03  0.00000000000E+00 0.  1.
        -13    1    1    2    0    0 -0.89305641225E+02  0.14336536545E+02  0.34481689593E+03  0.35648244938E+03  0.10566000000E+00 0.  1.
         13    1    1    2    0    0  0.72637145452E+02 -0.90851708091E+01  0.27079192222E+02  0.78051195017E+02  0.10566000000E+00 0. -1.
          4    1    1    2  501    0  0.16668495773E+02 -0.52513657360E+01 -0.14702181065E+03  0.14805684179E+03  0.00000000000E+00 0.  1.
</event>
<event>
 5    1  0.8445827E-005  0.1126627E+03  0.7818608E-02  0.1145152E+00
         21   -1    0    0  501  502  0.00000000000E+00  0.00000000000E+00  0.34812146053E+02  0.34812146053E+02  0.00000000000E+00 0. -1.
          4   -1    0    0  502    0 -0.00000000000E+00 -0.00000000000E+00 -0.63693044862E+03  0.63693044862E+03  0.00000000000E+00 0.  1.
        -13    1    1    2    0    0  0.17644758741E+02 -0.10770163626E+03 -0.38549473519E+03  0.40064595591E+03  0.10566000000E+00 0.  1.
         13    1    1    2    0    0 -0.24534787041E+02  0.11710102607E+03 -0.22627886236E+03  0.25596238160E+03  0.10566000000E+00 0. -1.
          4    1    1    2  501    0  0.68900283007E+01 -0.93993898052E+01  0.96552949788E+01  0.15134257161E+02  0.00000000000E+00 0.  1.
</event>
<event>
 5    1  0.8445827E-005  0.1930472E+03  0.7818608E-02  0.1076180E+00
         21   -1    0    0  501  502  0.00000000000E+00  0.00000000000E+00  0.79149614836E+03  0.79149614836E+03  0.00000000000E+00 0.  1.
          4   -1    0    0  502    0 -0.00000000000E+00 -0.00000000000E+00 -0.10572595824E+03  0.10572595824E+03  0.00000000000E+00 0.  1.
        -13    1    1    2    0    0 -0.22940879737E+03  0.13180569812E+03  0.38982179453E+03  0.47112862471E+03  0.10566000000E+00 0.  1.
         13    1    1    2    0    0  0.74269423199E+02 -0.11898520242E+03  0.85285364681E+02  0.16415550618E+03  0.10566000000E+00 0. -1.
          4    1    1    2  501    0  0.15513937417E+03 -0.12820495701E+02  0.21066303091E+03  0.26193797571E+03  0.00000000000E+00 0.  1.
</event>
<event>
 5    1  0.8445827E-005  0.3613900E+03  0.7818608E-02  0.9847701E-01
         -4   -1    0    0    0  501 -0.00000000000E+00  0.00000000000E+00  0.13998604605E+04  0.13998604605E+04  0.00000000000E+00 0. -1.
         21   -1    0    0  501  502  0.00000000000E+00 -0.00000000000E+00 -0.12882911685E+03  0.12882911685E+03  0.00000000000E+00 0.  1.
        -13    1    1    2    0    0 -0.30608973860E+03 -0.23206912909E+03  0.48073053905E+03  0.61534451415E+03  0.10566000000E+00 0.  1.
         13    1    1    2    0    0  0.25499829368E+03  0.23915546614E+03  0.78758860463E+03  0.86169326798E+03  0.10566000000E+00 0. -1.
         -4    1    1    2    0  502  0.51091444926E+02 -0.70863370527E+01  0.27121999341E+01  0.51651795186E+02  0.00000000000E+00 0. -1.
</event>
<event>
 5    1  0.8445827E-005  0.4986785E+03  0.7818608E-02  0.9557518E-01
         21   -1    0    0  501  502  0.00000000000E+00  0.00000000000E+00  0.14027967181E+04  0.14027967181E+04  0.00000000000E+00 0.  1.
          4   -1    0    0  502    0 -0.00000000000E+00 -0.00000000000E+00 -0.38645631745E+03  0.38645631745E+03  0.00000000000E+00 0.  1.
        -13    1    1    2    0    0  0.16622148847E+03 -0.22294930938E+03 -0.28275636203E+02  0.27952728051E+03  0.10566000000E+00 0.  1.
         13    1    1    2    0    0  0.17547529216E+03 -0.33468145141E+03  0.16184332654E+03  0.41109187001E+03  0.10566000000E+00 0. -1.
          4    1    1    2  501    0 -0.34169678063E+03  0.55763076079E+03  0.88277271033E+03  0.10986338850E+04  0.00000000000E+00 0.  1.
</event>
<event>
 5    1  0.8445827E-005  0.4154006E+02  0.7818608E-02  0.1330669E+00
         -4   -1    0    0    0  501 -0.00000000000E+00  0.00000000000E+00  0.21113360281E+02  0.21113360281E+02  0.00000000000E+00 0. -1.
         21   -1    0    0  501  502  0.00000000000E+00 -0.00000000000E+00 -0.17495194483E+03  0.17495194483E+03  0.00000000000E+00 0.  1.
        -13    1    1    2    0    0 -0.15789260748E+02  0.25992810489E+02 -0.12762889524E+03  0.13120241239E+03  0.10566000000E+00 0.  1.
         13    1    1    2    0    0  0.24130253542E+02 -0.36917116708E+02 -0.13451405442E+02  0.46109588096E+02  0.10566000000E+00 0. -1.
         -4    1    1    2    0  502 -0.83409927938E+01  0.10924306218E+02 -0.12758283864E+02  0.18753304623E+02  0.00000000000E+00 0. -1.
</event>
<event>
 5    1  0.8445827E-005  0.3560291E+02  0.7818608E-02  0.1364848E+00
         21   -1    0    0  501  502  0.00000000000E+00  0.00000000000E+00  0.19946684263E+02  0.19946684263E+02  0.00000000000E+00 0. -1.
         -4   -1    0    0    0  501 -0.00000000000E+00 -0.00000000000E+00 -0.14700659077E+03  0.14700659077E+03  0.00000000000E+00 0. -1.
        -13    1    1    2    0    0 -0.26957245073E+02 -0.17316505421E+02 -0.64988084057E+02  0.72456998664E+02  0.10566000000E+00 0.  1.
         13    1    1    2    0    0  0.37915357294E+02  0.16358942239E+02 -0.69767103579E+02  0.81071876849E+02  0.10566000000E+00 0. -1.
         -4    1    1    2    0  502 -0.10958112221E+02  0.95756318198E+00  0.76952811325E+01  0.13424399517E+02  0.00000000000E+00 0. -1.
</event>
<event>
 5    1  0.8445827E-005  0.1295129E+03  0.7818608E-02  0.1145317E+00
         -4   -1    0    0    0  501 -0.00000000000E+00  0.00000000000E+00  0.72072231278E+03  0.72072231278E+03  0.00000000000E+00 0. -1.
         21   -1    0    0  501  502  0.00000000000E+00 -0.00000000000E+00 -0.42739877290E+03  0.42739877290E+03  0.00000000000E+00 0. -1.
        -13    1    1    2    0    0  0.71989849687E+02  0.16500326952E+02  0.20771844643E+03  0.22045807629E+03  0.10566000000E+00 0.  1.
         13    1    1    2    0    0 -0.23761835175E+02  0.10460432886E+03  0.49060847100E+03  0.50219853983E+03  0.10566000000E+00 0. -1.
         -4    1    1    2    0  502 -0.48228014512E+02 -0.12110465581E+03 -0.40500337754E+03  0.42546446957E+03  0.00000000000E+00 0. -1.
</event>
<event>
 5    1  0.8445827E-005  0.4969855E+03  0.7818608E-02  0.9622981E-01
         21   -1    0    0  501  502  0.00000000000E+00  0.00000000000E+00  0.34178877654E+03  0.34178877654E+03  0.00000000000E+00 0.  1.
          4   -1    0    0  502    0 -0.00000000000E+00 -0.00000000000E+00 -0.13216405886E+04  0.13216405886E+04  0.00000000000E+00 0.  1.
        -13    1    1    2    0    0 -0.52793147556E+03 -0.32091821526E+03 -0.28669494303E+03  0.68109775018E+03  0.10566000000E+00 0.  1.
         13    1    1    2    0    0  0.30154117400E+03  0.21541426062E+02 -0.19955673913E+03  0.36223475254E+03  0.10566000000E+00 0. -1.
          4    1    1    2  501    0  0.22639030157E+03  0.29937678920E+03 -0.49360012994E+03  0.62009686245E+03  0.00000000000E+00 0.  1.
</event>
<event>
 5    1  0.8445827E-005  0.5591248E+02  0.7818608E-02  0.1269425E+00
         -4   -1    0    0    0  501 -0.00000000000E+00  0.00000000000E+00  0.18456314628E+02  0.18456314628E+02  0.00000000000E+00 0. -1.
         21   -1    0    0  501  502  0.00000000000E+00 -0.00000000000E+00 -0.31927168891E+03  0.31927168891E+03  0.00000000000E+00 0.  1.
        -13    1    1    2    0    0 -0.31694570573E+02 -0.54094613376E+02 -0.12276205880E+03  0.13784522931E+03  0.10566000000E+00 0.  1.
         13    1    1    2    0    0  0.49573677416E+02  0.23946140496E+02 -0.96186047391E+02  0.11082749665E+03  0.10566000000E+00 0. -1.
         -4    1    1    2    0  502 -0.17879106844E+02  0.30148472881E+02 -0.81867268089E+02  0.89055277570E+02  0.00000000000E+00 0. -1.
</event>
<event>
 5    1  0.8445827E-005  0.3036498E+03  0.7818608E-02  0.1005810E+00
          4   -1    0    0  502    0 -0.00000000000E+00  0.00000000000E+00  0.15251312449E+04  0.15251312449E+04  0.00000000000E+00 0.  1.
         21   -1    0    0  501  502  0.00000000000E+00 -0.00000000000E+00 -0.87562756149E+02  0.87562756149E+02  0.00000000000E+00 0. -1.
        -13    1    1    2    0    0  0.32920470695E+03 -0.19441110022E+02  0.10378970947E+04  0.10890289649E+04  0.10566000000E+00 0.  1.
         13    1    1    2    0    0 -0.25339653153E+03 -0.12039736439E+02  0.27251917859E+03  0.37231904505E+03  0.10566000000E+00 0. -1.
          4    1    1    2  501    0 -0.75808175414E+02  0.31480846461E+02  0.12715221546E+03  0.15134599119E+03  0.00000000000E+00 0.  1.
</event>
<event>
 5    1  0.8445827E-005  0.4934176E+02  0.7818608E-02  0.1297136E+00
         -4   -1    0    0    0  501 -0.00000000000E+00  0.00000000000E+00  0.68311636903E+02  0.68311636903E+02  0.00000000000E+00 0. -1.
         21   -1    0    0  501  502  0.00000000000E+00 -0.00000000000E+00 -0.31878602269E+03  0.31878602269E+03  0.00000000000E+00 0.  1.
        -13    1    1    2    0    0 -0.42240751355E+02 -0.20284256217E+02 -0.69184876939E+02  0.83560101043E+02  0.10566000000E+00 0.  1.
         13    1    1    2    0    0  0.89109829750E+02  0.26963486864E+02  0.21286992296E+02  0.95502558013E+02  0.10566000000E+00 0. -1.
         -4    1    1    2    0  502 -0.46869078396E+02 -0.66792306469E+01 -0.20257650115E+03  0.20803500054E+03  0.00000000000E+00 0. -1.
</event>
<event>
 5    1  0.8445827E-005  0.5540780E+02  0.7818608E-02  0.1271211E+00
         21   -1    0    0  501  502  0.00000000000E+00  0.00000000000E+00  0.63380617273E+02  0.63380617273E+02  0.00000000000E+00 0. -1.
          4   -1    0    0  502    0 -0.00000000000E+00 -0.00000000000E+00 -0.14539506243E+03  0.14539506243E+03  0.00000000000E+00 0.  1.
        -13    1    1    2    0    0 -0.37557641937E+01  0.53924921091E+02 -0.11194458513E+03  0.12431252625E+03  0.10566000000E+00 0.  1.
         13    1    1    2    0    0  0.29456887046E+01 -0.64089987441E+02  0.14189549298E+02  0.65708127697E+02  0.10566000000E+00 0. -1.
          4    1    1    2  501    0  0.81007548904E+00  0.10165066350E+02  0.15740590676E+02  0.18755025754E+02  0.00000000000E+00 0.  1.
</event>
<event>
 5    1  0.8445827E-005  0.8619443E+03  0.7818608E-02  0.8916393E-01
         -4   -1    0    0    0  501 -0.00000000000E+00  0.00000000000E+00  0.25968132827E+04  0.25968132827E+04  0.00000000000E+00 0. -1.
         21   -1    0    0  501  502  0.00000000000E+00 -0.00000000000E+00 -0.45051404985E+03  0.45051404985E+03  0.00000000000E+00 0. -1.
        -13    1    1    2    0    0  0.74663304293E+03 -0.30697855291E+03  0.12555753919E+04  0.14927043607E+04  0.10566000000E+00 0.  1.
         13    1    1    2    0    0 -0.94257340756E+03  0.20994485909E+03  0.92031434321E+03  0.13339790006E+04  0.10566000000E+00 0. -1.
         -4    1    1    2    0  502  0.19594036463E+03  0.97033693816E+02 -0.29590502221E+02  0.22064397125E+03  0.00000000000E+00 0. -1.
</event>
<event>
 5    1  0.8445827E-005  0.4962985E+03  0.7818608E-02  0.1020084E+00
          4   -1    0    0  502    0 -0.00000000000E+00  0.00000000000E+00  0.67094545846E+03  0.67094545846E+03  0.00000000000E+00 0.  1.
         21   -1    0    0  501  502  0.00000000000E+00 -0.00000000000E+00 -0.52904489034E+03  0.52904489034E+03  0.00000000000E+00 0.  1.
        -13    1    1    2    0    0 -0.10257442033E+03  0.47178511499E+03 -0.85270555100E+02  0.49027929302E+03  0.10566000000E+00 0.  1.
         13    1    1    2    0    0  0.23284183416E+02  0.37421320697E+02  0.18776000343E+03  0.19286352297E+03  0.10566000000E+00 0. -1.
          4    1    1    2  501    0  0.79290236918E+02 -0.50920643568E+03  0.39411119794E+02  0.51684753281E+03  0.00000000000E+00 0.  1.
</event>
<event>
 5    1  0.8445827E-005  0.2474849E+03  0.7818608E-02  0.1031704E+00
          4   -1    0    0  502    0 -0.00000000000E+00  0.00000000000E+00  0.25682108447E+04  0.25682108447E+04  0.00000000000E+00 0.  1.
         21   -1    0    0  501  502  0.00000000000E+00 -0.00000000000E+00 -0.19323332739E+03  0.19323332739E+03  0.00000000000E+00 0.  1.
        -13    1    1    2    0    0 -0.28202350606E+03  0.90163120752E+02 -0.47775420864E+02  0.29991523522E+03  0.10566000000E+00 0.  1.
         13    1    1    2    0    0  0.14933202185E+03 -0.19746321570E+03  0.10821242510E+04  0.11100831861E+04  0.10566000000E+00 0. -1.
          4    1    1    2  501    0  0.13269148421E+03  0.10730009495E+03  0.13406286871E+04  0.13514457507E+04  0.00000000000E+00 0.  1.
</event>
<event>
 5    1  0.8445827E-005  0.4680148E+03  0.7818608E-02  0.9636094E-01
         -4   -1    0    0    0  501 -0.00000000000E+00  0.00000000000E+00  0.17331598288E+04  0.17331598288E+04  0.00000000000E+00 0. -1.
         21   -1    0    0  501  502  0.00000000000E+00 -0.00000000000E+00 -0.28744156361E+03  0.28744156361E+03  0.00000000000E+00 0. -1.
        -13    1    1    2    0    0 -0.16755024143E+03 -0.30226839753E+03  0.31494002591E+03  0.46757512619E+03  0.10566000000E+00 0.  1.
         13    1    1    2    0    0 -0.19754208062E+03  0.55550255375E+03  0.82352862992E+03  0.10128205055E+04  0.10566000000E+00 0. -1.
         -4    1    1    2    0  502  0.36509232205E+03 -0.25323415622E+03  0.30724960935E+03  0.54020576075E+03  0.00000000000E+00 0. -1.
</event>
<event>
 5    1  0.8445827E-005  0.1283028E+03  0.7818608E-02  0.1124725E+00
         21   -1    0    0  501  502  0.00000000000E+00  0.00000000000E+00  0.37171922720E+03  0.37171922720E+03  0.00000000000E+00 0.  1.
         -4   -1    0    0    0  501 -0.00000000000E+00 -0.00000000000E+00 -0.80169106391E+02  0.80169106391E+02  0.00000000000E+00 0. -1.
        -13    1    1    2    0    0  0.10641780372E+03  0.87802636754E+02  0.22222692220E+03  0.26157000609E+03  0.10566000000E+00 0.  1.
         13    1    1    2    0    0 -0.93191895581E+02 -0.84345451993E+02  0.63235972562E+01  0.12585262699E+03  0.10566000000E+00 0. -1.
         -4    1    1    2    0  502 -0.13225908134E+02 -0.34571847609E+01  0.62999601350E+02  0.64465700513E+02  0.00000000000E+00 0. -1.
</event>
<event>
 5    1  0.8445827E-005  0.3964147E+03  0.7818608E-02  0.9739457E-01
          4   -1    0    0  502    0 -0.00000000000E+00  0.00000000000E+00  0.16305033366E+04  0.16305033366E+04  0.00000000000E+00 0.  1.
         21   -1    0    0  501  502  0.00000000000E+00 -0.00000000000E+00 -0.31602782226E+03  0.31602782226E+03  0.00000000000E+00 0. -1.
        -13    1    1    2    0    0  0.46483546709E+03  0.33029326527E+03  0.16410067161E+03  0.59337567707E+03  0.10566000000E+00 0.  1.
         13    1    1    2    0    0 -0.37158994576E+03 -0.26526869666E+01  0.58199156552E+03  0.69050729036E+03  0.10566000000E+00 0. -1.
          4    1    1    2  501    0 -0.93245521324E+02 -0.32764057830E+03  0.56838327722E+03  0.66264819144E+03  0.00000000000E+00 0.  1.
</event>
<event>
 5    1  0.8445827E-005  0.5996070E+03  0.7818608E-02  0.9282915E-01
         21   -1    0    0  501  502  0.00000000000E+00  0.00000000000E+00  0.25400488213E+03  0.25400488213E+03  0.00000000000E+00 0. -1.
         -4   -1    0    0    0  501 -0.00000000000E+00 -0.00000000000E+00 -0.26526755164E+04  0.26526755164E+04  0.00000000000E+00 0. -1.
        -13    1    1    2    0    0 -0.83709477079E+02 -0.40818477079E+03 -0.22424623170E+03  0.47318967366E+03  0.10566000000E+00 0.  1.
         13    1    1    2    0    0  0.34440642103E+03  0.61661341912E+03 -0.17904948898E+04  0.19247596871E+04  0.10566000000E+00 0. -1.
         -4    1    1    2    0  502 -0.26069694395E+03 -0.20842864833E+03 -0.38392951275E+03  0.50873103776E+03  0.00000000000E+00 0. -1.
</event>
<event>
 5    1  0.8445827E-005  0.3409289E+03  0.7818608E-02  0.1016074E+00
          4   -1    0    0  502    0 -0.00000000000E+00  0.00000000000E+00  0.21619458652E+04  0.21619458652E+04  0.00000000000E+00 0.  1.
         21   -1    0    0  501  502  0.00000000000E+00 -0.00000000000E+00 -0.17240086790E+03  0.17240086790E+03  0.00000000000E+00 0.  1.
        -13    1    1    2    0    0  0.31621429619E+02  0.47347178850E+03  0.13229187910E+04  0.14054499593E+04  0.10566000000E+00 0.  1.
         13    1    1    2    0    0 -0.11674594322E+02 -0.15391263956E+03  0.57573139387E+03  0.59606379341E+03  0.10566000000E+00 0. -1.
          4    1    1    2  501    0 -0.19946835297E+02 -0.31955914894E+03  0.90894812428E+02  0.33283298039E+03  0.00000000000E+00 0.  1.
</event>
<event>
 5    1  0.8445827E-005  0.6074630E+03  0.7818608E-02  0.9269249E-01
         -4   -1    0    0    0  501 -0.00000000000E+00  0.00000000000E+00  0.62072319614E+03  0.62072319614E+03  0.00000000000E+00 0. -1.
         21   -1    0    0  501  502  0.00000000000E+00 -0.00000000000E+00 -0.10464209519E+04  0.10464209519E+04  0.00000000000E+00 0. -1.
        -13    1    1    2    0    0  0.53865576165E+03  0.23075632209E+03  0.21027956604E+03  0.62258815986E+03  0.10566000000E+00 0.  1.
         13    1    1    2    0    0 -0.60972830811E+03 -0.26665059509E+03 -0.35855113589E+03  0.75592994238E+03  0.10566000000E+00 0. -1.
         -4    1    1    2    0  502  0.71072546454E+02  0.35894273000E+02 -0.27742618595E+03  0.28862604585E+03  0.00000000000E+00 0. -1.
</event>
<event>
 5    1  0.8445827E-005  0.1633066E+03  0.7818608E-02  0.1088682E+00
         21   -1    0    0  501  502  0.00000000000E+00  0.00000000000E+00  0.62088410224E+03  0.62088410224E+03  0.00000000000E+00 0. -1.
          4   -1    0    0  502    0 -0.00000000000E+00 -0.00000000000E+00 -0.82551425355E+02  0.82551425355E+02  0.00000000000E+00 0.  1.
        -13    1    1    2    0    0 -0.14795577362E+03  0.61652493916E+01  0.27152893617E+03  0.30928448973E+03  0.10566000000E+00 0.  1.
         13    1    1    2    0    0  0.16552807573E+03  0.47297052808E+02  0.63967888091E+02  0.18365308854E+03  0.10566000000E+00 0. -1.
          4    1    1    2  501    0 -0.17572302119E+02 -0.53462302200E+02  0.20283585262E+03  0.21049794932E+03  0.00000000000E+00 0.  1.
</event>
<event>
 5    1  0.8445827E-005  0.4748261E+03  0.7818608E-02  0.9549764E-01
         21   -1    0    0  501  502  0.00000000000E+00  0.00000000000E+00  0.29581816458E+03  0.29581816458E+03  0.00000000000E+00 0. -1.
          4   -1    0    0  502    0 -0.00000000000E+00 -0.00000000000E+00 -0.30485312131E+04  0.30485312131E+04  0.00000000000E+00 0.  1.
        -13    1    1    2    0    0 -0.39411334115E+03  0.12217866155E+03 -0.12900750898E+04  0.13544543918E+04  0.10566000000E+00 0.  1.
         13    1    1    2    0    0  0.58409363006E+03  0.31298493922E+03 -0.13470197477E+04  0.15011952414E+04  0.10566000000E+00 0. -1.
          4    1    1    2  501    0 -0.18998028891E+03 -0.43516360077E+03 -0.11561821110E+03  0.48869974457E+03  0.00000000000E+00 0.  1.
</event>
<event>
 5    1  0.8445827E-005  0.4963191E+03  0.7818608E-02  0.9505771E-01
         21   -1    0    0  501  502  0.00000000000E+00  0.00000000000E+00  0.10657738663E+04  0.10657738663E+04  0.00000000000E+00 0.  1.
          4   -1    0    0  502    0 -0.00000000000E+00 -0.00000000000E+00 -0.67514867465E+03  0.67514867465E+03  0.00000000000E+00 0.  1.
        -13    1    1    2    0    0  0.32324598098E+03  0.17459395534E+03  0.14266879368E+03  0.39411344727E+03  0.10566000000E+00 0.  1.
         13    1    1    2    0    0  0.44762209564E+03 -0.11442855257E+03 -0.13859376421E+03  0.48235637945E+03  0.10566000000E+00 0. -1.
          4    1    1    2  501    0 -0.77086807663E+03 -0.60165402773E+02  0.38655016216E+03  0.86445271422E+03  0.00000000000E+00 0.  1.
</event>
<event>
 5    1  0.8445827E-005  0.3033879E+03  0.7818608E-02  0.1080205E+00
         21   -1    0    0  501  502  0.00000000000E+00  0.00000000000E+00  0.12817724433E+03  0.12817724433E+03  0.00000000000E+00 0.  1.
          4   -1    0    0  502    0 -0.00000000000E+00 -0.00000000000E+00 -0.21258814110E+04  0.21258814110E+04  0.00000000000E+00 0.  1.
        -13    1    1    2    0    0 -0.23606896971E+02  0.31475902052E+03 -0.18283288737E+04  0.18553751665E+04  0.10566000000E+00 0.  1.
         13    1    1    2    0    0  0.29673801953E+02 -0.12654156043E+02 -0.75769575893E+02  0.82351089748E+02  0.10566000000E+00 0. -1.
          4    1    1    2  501    0 -0.60669049819E+01 -0.30210486447E+03 -0.93605717045E+02  0.31633239913E+03  0.00000000000E+00 0.  1.
</event>
<event>
 5    1  0.8445827E-005  0.3747833E+02  0.7818608E-02  0.1353275E+00
         21   -1    0    0  501  502  0.00000000000E+00  0.00000000000E+00  0.24731445389E+03  0.24731445389E+03  0.00000000000E+00 0. -1.
          4   -1    0    0  502    0 -0.00000000000E+00 -0.00000000000E+00 -0.20873578715E+02  0.20873578715E+02  0.00000000000E+00 0.  1.
        -13    1    1    2    0    0  0.12151952293E+02  0.32438093961E+02  0.83367490344E+01  0.35628814643E+02  0.10566000000E+00 0.  1.
         13    1    1    2    0    0 -0.68144003613E+01 -0.53302161875E+02  0.11114536669E+03  0.12345387889E+03  0.10566000000E+00 0. -1.
          4    1    1    2  501    0 -0.53375519318E+01  0.20864067914E+02  0.10695875945E+03  0.10910533907E+03  0.00000000000E+00 0.  1.
</event>
<event>
 5    1  0.8445827E-005  0.1523380E+03  0.7818608E-02  0.1098828E+00
         21   -1    0    0  501  502  0.00000000000E+00  0.00000000000E+00  0.45559202641E+02  0.45559202641E+02  0.00000000000E+00 0.  1.
         -4   -1    0    0    0  501 -0.00000000000E+00 -0.00000000000E+00 -0.85618256901E+03  0.85618256901E+03  0.00000000000E+00 0. -1.
        -13    1    1    2    0    0 -0.65655180136E+02  0.15467102606E+03 -0.20554556937E+03  0.26548582115E+03  0.10566000000E+00 0.  1.
         13    1    1    2    0    0  0.50904000244E+02 -0.13859554991E+03 -0.59343325289E+03  0.61152512663E+03  0.10566000000E+00 0. -1.
         -4    1    1    2    0  502  0.14751179891E+02 -0.16075476153E+02 -0.11644544106E+02  0.24730823867E+02  0.00000000000E+00 0. -1.
</event>
<event>
 5    1  0.8445827E-005  0.4723227E+03  0.7818608E-02  0.9608326E-01
         21   -1    0    0  501  502  0.00000000000E+00  0.00000000000E+00  0.16573201991E+03  0.16573201991E+03  0.00000000000E+00 0.  1.
          4   -1    0    0  502    0 -0.00000000000E+00 -0.00000000000E+00 -0.31540882079E+04  0.31540882079E+04  0.00000000000E+00 0.  1.
        -13    1    1    2    0    0  0.27809563431E+03  0.24349675307E+03 -0.72472609069E+03  0.81354518514E+03  0.10566000000E+00 0.  1.
         13    1    1    2    0    0  0.36947081659E+03  0.33263885362E+02 -0.74071178643E+03  0.82841362380E+03  0.10566000000E+00 0. -1.
          4    1    1    2  501    0 -0.64756645090E+03 -0.27676063843E+03 -0.15229183109E+04  0.16778614189E+04  0.00000000000E+00 0.  1.
</event>
<event>
 5    1  0.8445827E-005  0.4273714E+03  0.7818608E-02  0.9840592E-01
         21   -1    0    0  501  502  0.00000000000E+00  0.00000000000E+00  0.33203289808E+03  0.33203289808E+03  0.00000000000E+00 0. -1.
         -4   -1    0    0    0  501 -0.00000000000E+00 -0.00000000000E+00 -0.18191916632E+04  0.18191916632E+04  0.00000000000E+00 0. -1.
        -13    1    1    2    0    0 -0.90431340130E+02  0.20475768847E+03 -0.11948096017E+04  0.12155959583E+04  0.10566000000E+00 0.  1.
         13    1    1    2    0    0  0.18847390122E+03 -0.51823093040E+03 -0.11857623689E+03  0.56404436331E+03  0.10566000000E+00 0. -1.
         -4    1    1    2    0  502 -0.98042561093E+02  0.31347324193E+03 -0.17377292652E+03  0.37158423968E+03  0.00000000000E+00 0. -1.
</event>
<event>
 5    1  0.8445827E-005  0.2252492E+03  0.7818608E-02  0.1053310E+00
         21   -1    0    0  501  502  0.00000000000E+00  0.00000000000E+00  0.79385440774E+03  0.79385440774E+03  0.00000000000E+00 0. -1.
         -4   -1    0    0    0  501 -0.00000000000E+00 -0.00000000000E+00 -0.80046568611E+03  0.80046568611E+03  0.00000000000E+00 0. -1.
        -13    1    1    2    0    0 -0.85309850696E+02 -0.14828317905E+03 -0.47434758917E+03  0.50425322838E+03  0.10566000000E+00 0.  1.
         13    1    1    2    0    0  0.28858914246E+03  0.53739674067E+02 -0.21991741508E+03  0.36679057558E+03  0.10566000000E+00 0. -1.
         -4    1    1    2    0  502 -0.20327929176E+03  0.94543504984E+02  0.68765372589E+03  0.72327628989E+03  0.00000000000E+00 0. -1.
</event>
<event>
 5    1  0.8445827E-005  0.2754395E+03  0.7818608E-02  0.1017992E+00
          4   -1    0    0  502    0 -0.00000000000E+00  0.00000000000E+00  0.19187082688E+03  0.19187082688E+03  0.00000000000E+00 0.  1.
         21   -1    0    0  501  502  0.00000000000E+00 -0.00000000000E+00 -0.65334289689E+03  0.65334289689E+03  0.00000000000E+00 0. -1.
        -13    1    1    2    0    0 -0.23056980229E+03  0.17427194684E+03 -0.84737054952E+02  0.30118686031E+03  0.10566000000E+00 0.  1.
         13    1    1    2    0    0  0.20403841378E+03 -0.16277769303E+03 -0.12281259486E+03  0.28846350942E+03  0.10566000000E+00 0. -1.
          4    1    1    2  501    0  0.26531388508E+02 -0.11494253808E+02 -0.25392242020E+03  0.25556335403E+03  0.00000000000E+00 0.  1.
</event>
<event>
 5    1  0.8445827E-005  0.4745619E+03  0.7818608E-02  0.9535540E-01
         -4   -1    0    0    0  501 -0.00000000000E+00  0.00000000000E+00  0.57219320213E+03  0.57219320213E+03  0.00000000000E+00 0. -1.
         21   -1    0    0  501  502  0.00000000000E+00 -0.00000000000E+00 -0.56176461236E+03  0.56176461236E+03  0.00000000000E+00 0.  1.
        -13    1    1    2    0    0  0.46370055341E+02 -0.44345722917E+03 -0.86232253239E+02  0.45413710353E+03  0.10566000000E+00 0.  1.
         13    1    1    2    0    0  0.33971658546E+02  0.49355252150E+03  0.20537635054E+03  0.53565625319E+03  0.10566000000E+00 0. -1.
         -4    1    1    2    0  502 -0.80341713887E+02 -0.50095292322E+02 -0.10871550753E+03  0.14416445776E+03  0.00000000000E+00 0. -1.
</event>
<event>
 5    1  0.8445827E-005  0.1233220E+02  0.7818608E-02  0.1667421E+00
         21   -1    0    0  501  502  0.00000000000E+00  0.00000000000E+00  0.11360749924E+03  0.11360749924E+03  0.00000000000E+00 0.  1.
          4   -1    0    0  502    0 -0.00000000000E+00 -0.00000000000E+00 -0.15451999490E+02  0.15451999490E+02  0.00000000000E+00 0.  1.
        -13    1    1    2    0    0 -0.21521253942E+02 -0.36764250300E+01 -0.36936683743E+01  0.22143505195E+02  0.10566000000E+00 0.  1.
         13    1    1    2    0    0  0.95715861339E+01  0.53451548664E+01  0.11975618327E+02  0.16236149175E+02  0.10566000000E+00 0. -1.
          4    1    1    2  501    0  0.11949667808E+02 -0.16687298364E+01  0.89873549794E+02  0.90679844356E+02  0.00000000000E+00 0.  1.
</event>
<event>
 5    1  0.8445827E-005  0.1175894E+03  0.7818608E-02  0.1150891E+00
         -4   -1    0    0    0  501 -0.00000000000E+00  0.00000000000E+00  0.61121979303E+03  0.61121979303E+03  0.00000000000E+00 0. -1.
         21   -1    0    0  501  502  0.00000000000E+00 -0.00000000000E+00 -0.40394254483E+03  0.40394254483E+03  0.00000000000E+00 0.  1.
        -13    1    1    2    0    0 -0.17007458455E+03 -0.61764956405E+01 -0.17027378015E+03  0.24074194645E+03  0.10566000000E+00 0.  1.
         13    1    1    2    0    0  0.56159080169E+02  0.83309318332E+02  0.54700339663E+03  0.55615376641E+03  0.10566000000E+00 0. -1.
         -4    1    1    2    0  502  0.11391550438E+03 -0.77132822691E+02 -0.16945236828E+03  0.21826662500E+03  0.00000000000E+00 0. -1.
</event>
<event>
 5    1  0.8445827E-005  0.5334585E+02  0.7818608E-02  0.1280725E+00
         21   -1    0    0  501  502  0.00000000000E+00  0.00000000000E+00  0.13271230830E+03  0.13271230830E+03  0.00000000000E+00 0.  1.
         -4   -1    0    0    0  501 -0.00000000000E+00 -0.00000000000E+00 -0.79452759696E+02  0.79452759696E+02  0.00000000000E+00 0. -1.
        -13    1    1    2    0    0  0.51330276196E+02  0.18072398279E+02  0.35841690141E+02  0.65161696955E+02  0.10566000000E+00 0.  1.
         13    1    1    2    0    0 -0.14589449056E+02  0.29773169842E+02 -0.47793876394E+02  0.58168371569E+02  0.10566000000E+00 0. -1.
         -4    1    1    2    0  502 -0.36740827140E+02 -0.47845568121E+02  0.65211734855E+02  0.88834999468E+02  0.00000000000E+00 0. -1.
</event>
<event>
 5    1  0.8445827E-005  0.3694940E+03  0.7818608E-02  0.9821535E-01
         -4   -1    0    0    0  501 -0.00000000000E+00  0.00000000000E+00  0.77136171851E+03  0.77136171851E+03  0.00000000000E+00 0. -1.
         21   -1    0    0  501  502  0.00000000000E+00 -0.00000000000E+00 -0.10169556956E+04  0.10169556956E+04  0.00000000000E+00 0. -1.
        -13    1    1    2    0    0 -0.42044630828E+03  0.57306558724E+02  0.35354797322E+03  0.55231813328E+03  0.10566000000E+00 0.  1.
         13    1    1    2    0    0  0.28019570687E+03  0.26567432822E+03  0.14523903630E+03  0.41253711548E+03  0.10566000000E+00 0. -1.
         -4    1    1    2    0  502  0.14025060141E+03 -0.32298088694E+03 -0.74438098660E+03  0.82346216534E+03  0.00000000000E+00 0. -1.
</event>
<event>
 5    1  0.8445827E-005  0.1011657E+03  0.7818608E-02  0.1186418E+00
         21   -1    0    0  501  502  0.00000000000E+00  0.00000000000E+00  0.38630701538E+02  0.38630701538E+02  0.00000000000E+00 0. -1.
         -4   -1    0    0    0  501 -0.00000000000E+00 -0.00000000000E+00 -0.67588832688E+03  0.67588832688E+03  0.00000000000E+00 0. -1.
        -13    1    1    2    0    0 -0.46098252642E+02  0.34354113450E+02 -0.60104489247E+02  0.83173401994E+02  0.10566000000E+00 0.  1.
         13    1    1    2    0    0  0.41425789462E+02 -0.12826448019E+03 -0.46924153348E+03  0.48821665357E+03  0.10566000000E+00 0. -1.
         -4    1    1    2    0  502  0.46724631804E+01  0.93910366736E+02 -0.10791160261E+03  0.14312897285E+03  0.00000000000E+00 0. -1.
</event>
<event>
 5    1  0.8445827E-005  0.3030977E+03  0.7818608E-02  0.1006035E+00
          4   -1    0    0  502    0 -0.00000000000E+00  0.00000000000E+00  0.26013624705E+04  0.26013624705E+04  0.00000000000E+00 0.  1.
         21   -1    0    0  501  502  0.00000000000E+00 -0.00000000000E+00 -0.43410564555E+02  0.43410564555E+02  0.00000000000E+00 0. -1.
        -13    1    1    2    0    0 -0.31604679537E+03 -0.41274055830E+02  0.94671235670E+03  0.99892613443E+03  0.10566000000E+00 0.  1.
         13    1    1    2    0    0  0.29449102727E+03  0.16691141813E+02  0.15318276836E+04  0.15599678275E+04  0.10566000000E+00 0. -1.
          4    1    1    2  501    0  0.21555768101E+02  0.24582914017E+02  0.79411865608E+02  0.85879073116E+02  0.00000000000E+00 0.  1.
</event>
<event>
 5    1  0.8445827E-005  0.4709690E+02  0.7818608E-02  0.1304082E+00
         21   -1    0    0  501  502  0.00000000000E+00  0.00000000000E+00  0.55440898021E+03  0.55440898021E+03  0.00000000000E+00 0.  1.
         -4   -1    0    0    0  501 -0.00000000000E+00 -0.00000000000E+00 -0.10374873529E+02  0.10374873529E+02  0.00000000000E+00 0. -1.
        -13    1    1    2    0    0 -0.22085412801E+01  0.46718500071E+02  0.21577422630E+03  0.22078501716E+03  0.10566000000E+00 0.  1.
         13    1    1    2    0    0  0.15600551898E+02 -0.45068104161E+02  0.66191490691E+02  0.81583306112E+02  0.10566000000E+00 0. -1.
         -4    1    1    2    0  502 -0.13392010618E+02 -0.16503959104E+01  0.26206838969E+03  0.26241553047E+03  0.00000000000E+00 0. -1.
</event>
<event>
 5    1  0.8445827E-005  0.4331202E+03  0.7818608E-02  0.9637998E-01
         -4   -1    0    0    0  501 -0.00000000000E+00  0.00000000000E+00  0.54956133079E+03  0.54956133079E+03  0.00000000000E+00 0. -1.
         21   -1    0    0  501  502  0.00000000000E+00 -0.00000000000E+00 -0.51725309899E+03  0.51725309899E+03  0.00000000000E+00 0.  1.
        -13    1    1    2    0    0 -0.43605109959E+03  0.32535208781E+02 -0.85091373038E+02  0.44546565995E+03  0.10566000000E+00 0.  1.
         13    1    1    2    0    0  0.43053809756E+03 -0.23540990341E+02  0.24324567454E+03  0.49506131037E+03  0.10566000000E+00 0. -1.
         -4    1    1    2    0  502  0.55130020286E+01 -0.89942184403E+01 -0.12584606970E+03  0.12628745946E+03  0.00000000000E+00 0. -1.
</event>
<event>
 5    1  0.8445827E-005  0.4451706E+03  0.7818608E-02  0.1003255E+00
         21   -1    0    0  501  502  0.00000000000E+00  0.00000000000E+00  0.66655544296E+03  0.66655544296E+03  0.00000000000E+00 0.  1.
          4   -1    0    0  502    0 -0.00000000000E+00 -0.00000000000E+00 -0.63388706021E+03  0.63388706021E+03  0.00000000000E+00 0.  1.
        -13    1    1    2    0    0 -0.11296791304E+03  0.35762477735E+03 -0.10115837111E+03  0.38844595244E+03  0.10566000000E+00 0.  1.
         13    1    1    2    0    0 -0.55830608161E+01  0.10455060917E+03 -0.26829952266E+03  0.28800459279E+03  0.10566000000E+00 0. -1.
          4    1    1    2  501    0  0.11855097386E+03 -0.46217538652E+03  0.40212627652E+03  0.62399195795E+03  0.00000000000E+00 0.  1.
</event>
<event>
 5    1  0.8445827E-005  0.2167027E+03  0.7818608E-02  0.1060128E+00
          4   -1    0    0  502    0 -0.00000000000E+00  0.00000000000E+00  0.58115442905E+03  0.58115442905E+03  0.00000000000E+00 0.  1.
         21   -1    0    0  501  502  0.00000000000E+00 -0.00000000000E+00 -0.60111670540E+03  0.60111670540E+03  0.00000000000E+00 0.  1.
        -13    1    1    2    0    0 -0.21453312977E+03  0.79047752521E+01 -0.46867922437E+03  0.51550671748E+03  0.10566000000E+00 0.  1.
         13    1    1    2    0    0 -0.33237999148E+02  0.15370890707E+03  0.40076275331E+02  0.16228774356E+03  0.10566000000E+00 0. -1.
          4    1    1    2  501    0  0.24777112892E+03 -0.16161368233E+03  0.40864067269E+03  0.50447667341E+03  0.00000000000E+00 0.  1.
</event>
<event>
 5    1  0.8445827E-005  0.4041551E+03  0.7818608E-02  0.9963246E-01
         21   -1    0    0  501  502  0.00000000000E+00  0.00000000000E+00  0.96890410189E+03  0.96890410189E+03  0.00000000000E+00 0. -1.
         -4   -1    0    0    0  501 -0.00000000000E+00 -0.00000000000E+00 -0.47891808625E+03  0.47891808625E+03  0.00000000000E+00 0. -1.
        -13    1    1    2    0    0 -0.12449309477E+03  0.12386901047E+03 -0.15554251054E+03  0.23459656039E+03  0.10566000000E+00 0.  1.
         13    1    1    2    0    0  0.57923134087E+02 -0.50119671008E+03  0.52594877115E+02  0.50726665958E+03  0.10566000000E+00 0. -1.
         -4    1    1    2    0  502  0.66569960684E+02  0.37732769961E+03  0.59293364905E+03  0.70595896817E+03  0.00000000000E+00 0. -1.
</event>
<event>
 5    1  0.8445827E-005  0.6021380E+02  0.7818608E-02  0.1255017E+00
         -4   -1    0    0    0  501 -0.00000000000E+00  0.00000000000E+00  0.13802813588E+03  0.13802813588E+03  0.00000000000E+00 0. -1.
         21   -1    0    0  501  502  0.00000000000E+00 -0.00000000000E+00 -0.10842656224E+03  0.10842656224E+03  0.00000000000E+00 0. -1.
        -13    1    1    2    0    0  0.80674075262E+02 -0.44514505282E+01 -0.37189179078E+02  0.88944747095E+02  0.10566000000E+00 0.  1.
         13    1    1    2    0    0 -0.50113627660E+02  0.30236943343E+02  0.92867663031E+02  0.10977277632E+03  0.10566000000E+00 0. -1.
         -4    1    1    2    0  502 -0.30560447602E+02 -0.25785492815E+02 -0.26076910312E+02  0.47737174705E+02  0.00000000000E+00 0. -1.
</event>
<event>
 5    1  0.8445827E-005  0.9446917E+02  0.7818608E-02  0.1174045E+00
         21   -1    0    0  501  502  0.00000000000E+00  0.00000000000E+00  0.20493813994E+03  0.20493813994E+03  0.00000000000E+00 0.  1.
          4   -1    0    0  502    0 -0.00000000000E+00 -0.00000000000E+00 -0.20112276367E+03  0.20112276367E+03  0.00000000000E+00 0.  1.
        -13    1    1    2    0    0 -0.92880978740E+02 -0.27463043529E+02 -0.16210963851E+03  0.18884025269E+03  0.10566000000E+00 0.  1.
         13    1    1    2    0    0  0.79469111897E+02  0.21962911032E+02  0.42146390011E+02  0.92596104463E+02  0.10566000000E+00 0. -1.
          4    1    1    2  501    0  0.13411866843E+02  0.55001324963E+01  0.12377862477E+03  0.12462454646E+03  0.00000000000E+00 0.  1.
</event>
<event>
 5    1  0.8445827E-005  0.4646268E+03  0.7818608E-02  0.9878070E-01
         -4   -1    0    0    0  501 -0.00000000000E+00  0.00000000000E+00  0.39548310629E+04  0.39548310629E+04  0.00000000000E+00 0. -1.
         21   -1    0    0  501  502  0.00000000000E+00 -0.00000000000E+00 -0.82472684233E+02  0.82472684233E+02  0.00000000000E+00 0. -1.
        -13    1    1    2    0    0 -0.15273719458E+03 -0.15369099505E+02  0.30723692705E+03  0.34345218057E+03  0.10566000000E+00 0.  1.
         13    1    1    2    0    0  0.38711296915E+03 -0.35089115483E+03  0.21979686076E+04  0.22592138156E+04  0.10566000000E+00 0. -1.
         -4    1    1    2    0  502 -0.23437577457E+03  0.36626025434E+03  0.13671528441E+04  0.14346377511E+04  0.00000000000E+00 0. -1.
</event>
<event>
 5    1  0.8445827E-005  0.2512590E+03  0.7818608E-02  0.1029742E+00
         -4   -1    0    0    0  501 -0.00000000000E+00  0.00000000000E+00  0.16152091530E+04  0.16152091530E+04  0.00000000000E+00 0. -1.
         21   -1    0    0  501  502  0.00000000000E+00 -0.00000000000E+00 -0.77975013033E+02  0.77975013033E+02  0.00000000000E+00 0.  1.
        -13    1    1    2    0    0 -0.23898735116E+03  0.86049599766E+02  0.78727300398E+03  0.82723532420E+03  0.10566000000E+00 0.  1.
         13    1    1    2    0    0  0.24083364861E+03 -0.63566164283E+02  0.78539351611E+03  0.82394447013E+03  0.10566000000E+00 0. -1.
         -4    1    1    2    0  502 -0.18462974505E+01 -0.22483435483E+02 -0.35432380097E+02  0.42004371733E+02  0.00000000000E+00 0. -1.
</event>
<event>
 5    1  0.8445827E-005  0.4875520E+03  0.7818608E-02  0.9508240E-01
         21   -1    0    0  501  502  0.00000000000E+00  0.00000000000E+00  0.41921103305E+03  0.41921103305E+03  0.00000000000E+00 0.  1.
          4   -1    0    0  502    0 -0.00000000000E+00 -0.00000000000E+00 -0.15668105684E+04  0.15668105684E+04  0.00000000000E+00 0.  1.
        -13    1    1    2    0    0 -0.39053895166E+03 -0.23128662847E+03 -0.23931509730E+03  0.51311392909E+03  0.10566000000E+00 0.  1.
         13    1    1    2    0    0 -0.23044198153E+03  0.43222775433E+03 -0.51573551271E+03  0.71127172635E+03  0.10566000000E+00 0. -1.
          4    1    1    2  501    0  0.62098093319E+03 -0.20094112586E+03 -0.39254892532E+03  0.76163594599E+03  0.00000000000E+00 0.  1.
</event>
<event>
 5    1  0.8445827E-005  0.7627596E+02  0.7818608E-02  0.1211162E+00
         21   -1    0    0  501  502  0.00000000000E+00  0.00000000000E+00  0.65532197564E+03  0.65532197564E+03  0.00000000000E+00 0. -1.
          4   -1    0    0  502    0 -0.00000000000E+00 -0.00000000000E+00 -0.53074492517E+02  0.53074492517E+02  0.00000000000E+00 0.  1.
        -13    1    1    2    0    0  0.36430333635E+02  0.65189894863E+02 -0.15430386838E+02  0.76256144690E+02  0.10566000000E+00 0.  1.
         13    1    1    2    0    0 -0.60773742645E+02 -0.74072176918E+02  0.33959012441E+03  0.35284784108E+03  0.10566000000E+00 0. -1.
          4    1    1    2  501    0  0.24343409010E+02  0.88822820555E+01  0.27808774555E+03  0.27929248239E+03  0.00000000000E+00 0.  1.
</event>
<event>
 5    1  0.8445827E-005  0.9784205E+02  0.7818608E-02  0.1168176E+00
          4   -1    0    0  502    0 -0.00000000000E+00  0.00000000000E+00  0.21360312075E+03  0.21360312075E+03  0.00000000000E+00 0.  1.
         21   -1    0    0  501  502  0.00000000000E+00 -0.00000000000E+00 -0.43042246355E+03  0.43042246355E+03  0.00000000000E+00 0. -1.
        -13    1    1    2    0    0 -0.62073156642E+02  0.72938429924E+02  0.17286994105E+03  0.19762874036E+03  0.10566000000E+00 0.  1.
         13    1    1    2    0    0  0.67799485271E+02 -0.99214340866E+02 -0.10248119605E+03  0.15793246134E+03  0.10566000000E+00 0. -1.
          4    1    1    2  501    0 -0.57263286283E+01  0.26275910942E+02 -0.28720808779E+03  0.28846438260E+03  0.00000000000E+00 0.  1.
</event>
<event>
 5    1  0.8445827E-005  0.3201249E+03  0.7818608E-02  0.1003569E+00
         21   -1    0    0  501  502  0.00000000000E+00  0.00000000000E+00  0.11840691623E+03  0.11840691623E+03  0.00000000000E+00 0. -1.
         -4   -1    0    0    0  501 -0.00000000000E+00 -0.00000000000E+00 -0.22653294743E+04  0.22653294743E+04  0.00000000000E+00 0. -1.
        -13    1    1    2    0    0  0.60148623434E+02 -0.27213114061E+03 -0.70897548427E+03  0.76178701948E+03  0.10566000000E+00 0.  1.
         13    1    1    2    0    0 -0.33040720986E+03  0.15325915729E+03 -0.39182436351E+03  0.53496134124E+03  0.10566000000E+00 0. -1.
         -4    1    1    2    0  502  0.27025858643E+03  0.11887198332E+03 -0.10461227103E+04  0.10869880298E+04  0.00000000000E+00 0. -1.
</event>
<event>
 5    1  0.8445827E-005  0.1998866E+03  0.7818608E-02  0.1060214E+00
         -4   -1    0    0    0  501 -0.00000000000E+00  0.00000000000E+00  0.52118629707E+03  0.52118629707E+03  0.00000000000E+00 0. -1.
         21   -1    0    0  501  502  0.00000000000E+00 -0.00000000000E+00 -0.15121497399E+03  0.15121497399E+03  0.00000000000E+00 0.  1.
        -13    1    1    2    0    0  0.19505385038E+03  0.32667733985E+02  0.34828228941E+03  0.40051685317E+03  0.10566000000E+00 0.  1.
         13    1    1    2    0    0 -0.20415423938E+03 -0.26449905445E+02  0.73747819320E+02  0.21867167849E+03  0.10566000000E+00 0. -1.
         -4    1    1    2    0  502  0.91003889916E+01 -0.62178285408E+01 -0.52058785646E+02  0.53212739400E+02  0.00000000000E+00 0. -1.
</event>
<event>
 5    1  0.8445827E-005  0.5234923E+03  0.7818608E-02  0.9503969E-01
          4   -1    0    0  502    0 -0.00000000000E+00  0.00000000000E+00  0.29914784118E+04  0.29914784118E+04  0.00000000000E+00 0.  1.
         21   -1    0    0  501  502  0.00000000000E+00 -0.00000000000E+00 -0.34225075497E+03  0.34225075497E+03  0.00000000000E+00 0. -1.
        -13    1    1    2    0    0 -0.24149104744E+03 -0.20810443079E+02  0.75788394823E+03  0.79570037745E+03  0.10566000000E+00 0.  1.
         13    1    1    2    0    0  0.15306528370E+02  0.60144977426E+03  0.18127131653E+04  0.19099489919E+04  0.10566000000E+00 0. -1.
          4    1    1    2  501    0  0.22618451907E+03 -0.58063933118E+03  0.78630543276E+02  0.62807979742E+03  0.00000000000E+00 0.  1.
</event>
<event>
 5    1  0.8445827E-005  0.4626077E+03  0.7818608E-02  0.1003010E+00
          4   -1    0    0  502    0 -0.00000000000E+00  0.00000000000E+00  0.26319799894E+03  0.26319799894E+03  0.00000000000E+00 0.  1.
         21   -1    0    0  501  502  0.00000000000E+00 -0.00000000000E+00 -0.11354365889E+04  0.11354365889E+04  0.00000000000E+00 0.  1.
        -13    1    1    2    0    0 -0.26066061374E+03 -0.36695507620E+03 -0.56647376214E+03  0.72352782798E+03  0.10566000000E+00 0.  1.
         13    1    1    2    0    0  0.49566773630E+02 -0.79929055978E+02 -0.10685155079E+03  0.14234740640E+03  0.10566000000E+00 0. -1.
          4    1    1    2  501    0  0.21109384011E+03  0.44688413217E+03 -0.19891327704E+03  0.53275935347E+03  0.00000000000E+00 0.  1.
</event>
<event>
 5    1  0.8445827E-005  0.3406177E+03  0.7818608E-02  0.9918235E-01
         21   -1    0    0  501  502  0.00000000000E+00  0.00000000000E+00  0.35787825989E+02  0.35787825989E+02  0.00000000000E+00 0.  1.
         -4   -1    0    0    0  501 -0.00000000000E+00 -0.00000000000E+00 -0.34958501816E+04  0.34958501816E+04  0.00000000000E+00 0. -1.
        -13    1    1    2    0    0 -0.28511733358E+03 -0.18497638471E+03 -0.15680745371E+04  0.16044830700E+04  0.10566000000E+00 0.  1.
         13    1    1    2    0    0  0.29920328731E+03  0.16507036053E+03 -0.17423978316E+04  0.17755903373E+04  0.10566000000E+00 0. -1.
         -4    1    1    2    0  502 -0.14085953724E+02  0.19906024186E+02 -0.14958998688E+03  0.15156460030E+03  0.00000000000E+00 0. -1.
</event>
<event>
 5    1  0.8445827E-005  0.4424389E+02  0.7818608E-02  0.1317182E+00
         21   -1    0    0  501  502  0.00000000000E+00  0.00000000000E+00  0.20383410991E+03  0.20383410991E+03  0.00000000000E+00 0.  1.
         -4   -1    0    0    0  501 -0.00000000000E+00 -0.00000000000E+00 -0.60500887635E+02  0.60500887635E+02  0.00000000000E+00 0. -1.
        -13    1    1    2    0    0 -0.85207385192E+01  0.55569756248E+02  0.11802102513E+03  0.13072709869E+03  0.10566000000E+00 0.  1.
         13    1    1    2    0    0  0.30505248669E+01 -0.43300964898E+02 -0.44705836200E+02  0.62312937802E+02  0.10566000000E+00 0. -1.
         -4    1    1    2    0  502  0.54702136523E+01 -0.12268791350E+02  0.70018033347E+02  0.71294961059E+02  0.00000000000E+00 0. -1.
</event>
<event>
 5    1  0.1232560E-004  0.5190379E+03  0.7818608E-02  0.9437194E-01
         21   -1    0    0  501  502  0.00000000000E+00  0.00000000000E+00  0.56327076555E+03  0.56327076555E+03  0.00000000000E+00 0.  1.
         -4   -1    0    0    0  501 -0.00000000000E+00 -0.00000000000E+00 -0.13691053855E+04  0.13691053855E+04  0.00000000000E+00 0. -1.
        -13    1    1    2    0    0  0.18515091100E+03  0.55357233420E+03 -0.16014701151E+03  0.60528527612E+03  0.10566000000E+00 0.  1.
         13    1    1    2    0    0 -0.32960766847E+02 -0.50304205531E+03 -0.89701214109E+03  0.10289647778E+04  0.10566000000E+00 0. -1.
         -4    1    1    2    0  502 -0.15219014415E+03 -0.50530278885E+02  0.25132453265E+03  0.29812609710E+03  0.00000000000E+00 0. -1.
</event>
<event>
 5    1  0.8445827E-005  0.5114716E+03  0.7818608E-02  0.9576145E-01
         -4   -1    0    0    0  501 -0.00000000000E+00  0.00000000000E+00  0.48642618197E+03  0.48642618197E+03  0.00000000000E+00 0. -1.
         21   -1    0    0  501  502  0.00000000000E+00 -0.00000000000E+00 -0.10629286065E+04  0.10629286065E+04  0.00000000000E+00 0. -1.
        -13    1    1    2    0    0 -0.17497515623E+03  0.27699439531E+03 -0.28554778010E+01  0.32764365589E+03  0.10566000000E+00 0.  1.
         13    1    1    2    0    0  0.57961884563E+03 -0.31797980515E+03 -0.43771339486E+03  0.79288220430E+03  0.10566000000E+00 0. -1.
         -4    1    1    2    0  502 -0.40464368940E+03  0.40985409844E+02 -0.13593355184E+03  0.42882892825E+03  0.00000000000E+00 0. -1.
</event>
<event>
 5    1  0.8445827E-005  0.1347468E+03  0.7818608E-02  0.1132190E+00
         21   -1    0    0  501  502  0.00000000000E+00  0.00000000000E+00  0.40456824361E+02  0.40456824361E+02  0.00000000000E+00 0.  1.
          4   -1    0    0  502    0 -0.00000000000E+00 -0.00000000000E+00 -0.12046693049E+04  0.12046693049E+04  0.00000000000E+00 0.  1.
        -13    1    1    2    0    0  0.18747698358E+03  0.66015212691E+02 -0.68661582566E+03  0.71480551963E+03  0.10566000000E+00 0.  1.
         13    1    1    2    0    0 -0.67694075648E+02 -0.61400081168E+02 -0.31705253612E+03  0.32996178516E+03  0.10566000000E+00 0. -1.
          4    1    1    2  501    0 -0.11978290793E+03 -0.46151315233E+01 -0.16054411873E+03  0.20035882444E+03  0.00000000000E+00 0.  1.
</event>
<event>
 5    1  0.8445827E-005  0.7490181E+02  0.7818608E-02  0.1214424E+00
         -4   -1    0    0    0  501 -0.00000000000E+00  0.00000000000E+00  0.16711966207E+03  0.16711966207E+03  0.00000000000E+00 0. -1.
         21   -1    0    0  501  502  0.00000000000E+00 -0.00000000000E+00 -0.71792325391E+02  0.71792325391E+02  0.00000000000E+00 0.  1.
        -13    1    1    2    0    0 -0.40047430668E+02 -0.51067623369E+02  0.46466257250E+01  0.65063823699E+02  0.10566000000E+00 0.  1.
         13    1    1    2    0    0  0.41145280126E+02  0.67453114061E+02  0.11797795545E+03  0.14199178078E+03  0.10566000000E+00 0. -1.
         -4    1    1    2    0  502 -0.10978494581E+01 -0.16385490692E+02 -0.27297244504E+02  0.31856382974E+02  0.00000000000E+00 0. -1.
</event>
<event>
 5    1  0.8445827E-005  0.9459101E+02  0.7818608E-02  0.1173829E+00
          4   -1    0    0  502    0 -0.00000000000E+00  0.00000000000E+00  0.65547319907E+02  0.65547319907E+02  0.00000000000E+00 0.  1.
         21   -1    0    0  501  502  0.00000000000E+00 -0.00000000000E+00 -0.28172519414E+03  0.28172519414E+03  0.00000000000E+00 0. -1.
        -13    1    1    2    0    0  0.66797087061E+02  0.68322465869E+02  0.10286227057E+02  0.96102173823E+02  0.10566000000E+00 0.  1.
         13    1    1    2    0    0 -0.52356574670E+02 -0.74919127888E+02 -0.17676928579E+03  0.19900120150E+03  0.10566000000E+00 0. -1.
          4    1    1    2  501    0 -0.14440512392E+02  0.65966620186E+01 -0.49694815494E+02  0.52169138721E+02  0.00000000000E+00 0.  1.
</event>
<event>
 5    1  0.8445827E-005  0.1717626E+03  0.7818608E-02  0.1081430E+00
         -4   -1    0    0    0  501 -0.00000000000E+00  0.00000000000E+00  0.13897921580E+03  0.13897921580E+03  0.00000000000E+00 0. -1.
         21   -1    0    0  501  502  0.00000000000E+00 -0.00000000000E+00 -0.10348988591E+04  0.10348988591E+04  0.00000000000E+00 0. -1.
        -13    1    1    2    0    0  0.16273324830E+03  0.63710629871E+01 -0.43890383409E+03  0.46814451539E+03  0.10566000000E+00 0.  1.
         13    1    1    2    0    0 -0.16998301759E+03 -0.33100380872E+02  0.63522800555E+02  0.18445871852E+03  0.10566000000E+00 0. -1.
         -4    1    1    2    0  502  0.72497692894E+01  0.26729317885E+02 -0.52053860976E+03  0.52127484098E+03  0.00000000000E+00 0. -1.
</event>
<event>
 5    1  0.8445827E-005  0.4364791E+03  0.7818608E-02  0.1063160E+00
         21   -1    0    0  501  502  0.00000000000E+00  0.00000000000E+00  0.22329585573E+03  0.22329585573E+03  0.00000000000E+00 0. -1.
         -4   -1    0    0    0  501 -0.00000000000E+00 -0.00000000000E+00 -0.24331398615E+04  0.24331398615E+04  0.00000000000E+00 0. -1.
        -13    1    1    2    0    0  0.61347184638E+01 -0.16518029736E+02 -0.11803180724E+02  0.21208637774E+02  0.10566000000E+00 0.  1.
         13    1    1    2    0    0  0.18358202843E+03 -0.37852578036E+03 -0.21540953509E+04  0.21947917714E+04  0.10566000000E+00 0. -1.
         -4    1    1    2    0  502 -0.18971674690E+03  0.39504381009E+03 -0.43945474132E+02  0.44043530812E+03  0.00000000000E+00 0. -1.
</event>
<event>
 5    1  0.8445827E-005  0.2344954E+03  0.7818608E-02  0.1038756E+00
         21   -1    0    0  501  502  0.00000000000E+00  0.00000000000E+00  0.62485226828E+03  0.62485226828E+03  0.00000000000E+00 0. -1.
          4   -1    0    0  502    0 -0.00000000000E+00 -0.00000000000E+00 -0.37908587243E+03  0.37908587243E+03  0.00000000000E+00 0.  1.
        -13    1    1    2    0    0 -0.23218887863E+03  0.44186744213E+02 -0.31105903218E+03  0.39066849936E+03  0.10566000000E+00 0.  1.
         13    1    1    2    0    0  0.21251152335E+03 -0.75285911093E+01  0.49507372492E+03  0.53880964311E+03  0.10566000000E+00 0. -1.
          4    1    1    2  501    0  0.19677355280E+02 -0.36658153103E+02  0.61751703112E+02  0.74459998234E+02  0.00000000000E+00 0.  1.
</event>
<event>
 5    1  0.8445827E-005  0.4933112E+03  0.7818608E-02  0.9673054E-01
         -4   -1    0    0    0  501 -0.00000000000E+00  0.00000000000E+00  0.26431542906E+03  0.26431542906E+03  0.00000000000E+00 0. -1.
         21   -1    0    0  501  502  0.00000000000E+00 -0.00000000000E+00 -0.23479049364E+04  0.23479049364E+04  0.00000000000E+00 0. -1.
        -13    1    1    2    0    0 -0.68143150415E+02 -0.25002905347E+03  0.28848523697E+02  0.26074942955E+03  0.10566000000E+00 0.  1.
         13    1    1    2    0    0 -0.12137722613E+03  0.57466737030E+03 -0.16734350015E+04  0.17735162060E+04  0.10566000000E+00 0. -1.
         -4    1    1    2    0  502  0.18952037654E+03 -0.32463831683E+03 -0.43900302948E+03  0.57795472987E+03  0.00000000000E+00 0. -1.
</event>
<event>
 5    1  0.8445827E-005  0.5751710E+03  0.7818608E-02  0.9550202E-01
         21   -1    0    0  501  502  0.00000000000E+00  0.00000000000E+00  0.36823065047E+03  0.36823065047E+03  0.00000000000E+00 0.  1.
         -4   -1    0    0    0  501 -0.00000000000E+00 -0.00000000000E+00 -0.38077359693E+04  0.38077359693E+04  0.00000000000E+00 0. -1.
        -13    1    1    2    0    0 -0.50318248363E+03 -0.79649538145E+03 -0.16134182494E+04  0.18683457826E+04  0.10566000000E+00 0.  1.
         13    1    1    2    0    0 -0.19914932702E+03  0.28729629131E+03 -0.11667647511E+04  0.12180064076E+04  0.10566000000E+00 0. -1.
         -4    1    1    2    0  502  0.70233181066E+03  0.50919909014E+03 -0.65932231823E+03  0.10896144295E+04  0.00000000000E+00 0. -1.
</event>
<event>
 5    1  0.8445827E-005  0.1402566E+03  0.7818608E-02  0.1111139E+00
          4   -1    0    0  502    0 -0.00000000000E+00  0.00000000000E+00  0.34950045450E+03  0.34950045450E+03  0.00000000000E+00 0.  1.
         21   -1    0    0  501  502  0.00000000000E+00 -0.00000000000E+00 -0.17624630044E+03  0.17624630044E+03  0.00000000000E+00 0. -1.
        -13    1    1    2    0    0  0.50071697523E+02  0.12923468731E+03  0.28650956426E+03  0.31827114364E+03  0.10566000000E+00 0.  1.
         13    1    1    2    0    0 -0.47978134184E+02 -0.14745892090E+03 -0.96578810775E+02  0.18268418806E+03  0.10566000000E+00 0. -1.
          4    1    1    2  501    0 -0.20935633390E+01  0.18224233590E+02 -0.16676599424E+02  0.24791423229E+02  0.00000000000E+00 0.  1.
</event>
<event>
 5    1  0.8445827E-005  0.4979446E+03  0.7818608E-02  0.1021087E+00
         21   -1    0    0  501  502  0.00000000000E+00  0.00000000000E+00  0.88888227654E+03  0.88888227654E+03  0.00000000000E+00 0.  1.
          4   -1    0    0  502    0 -0.00000000000E+00 -0.00000000000E+00 -0.33868462811E+03  0.33868462811E+03  0.00000000000E+00 0.  1.
        -13    1    1    2    0    0 -0.11488280391E+03  0.50527162196E+03  0.26907757839E+03  0.58386661572E+03  0.10566000000E+00 0.  1.
         13    1    1    2    0    0  0.28344971691E+02 -0.31373545021E+02 -0.45164274467E+02  0.61867274059E+02  0.10566000000E+00 0. -1.
          4    1    1    2  501    0  0.86537832216E+02 -0.47389807694E+03  0.32628434451E+03  0.58183301488E+03  0.00000000000E+00 0.  1.
</event>
<event>
 5    1  0.8445827E-005  0.3212968E+03  0.7818608E-02  0.9988826E-01
          4   -1    0    0  502    0 -0.00000000000E+00  0.00000000000E+00  0.23258648317E+04  0.23258648317E+04  0.00000000000E+00 0.  1.
         21   -1    0    0  501  502  0.00000000000E+00 -0.00000000000E+00 -0.10503807307E+03  0.10503807307E+03  0.00000000000E+00 0.  1.
        -13    1    1    2    0    0 -0.14678531892E+03  0.29002934212E+03  0.72896572720E+03  0.79815662105E+03  0.10566000000E+00 0.  1.
         13    1    1    2    0    0  0.16441773000E+03 -0.27427406636E+03  0.15433268744E+04  0.15761082786E+04  0.10566000000E+00 0. -1.
          4    1    1    2  501    0 -0.17632411083E+02 -0.15755275755E+02 -0.51465842961E+02  0.56638005141E+02  0.00000000000E+00 0.  1.
</event>
<event>
 5    1  0.8445828E-005  0.4496064E+03  0.7818608E-02  0.9889199E-01
         21   -1    0    0  501  502  0.00000000000E+00  0.00000000000E+00  0.25964219422E+03  0.25964219422E+03  0.00000000000E+00 0.  1.
          4   -1    0    0  502    0 -0.00000000000E+00 -0.00000000000E+00 -0.13352722925E+04  0.13352722925E+04  0.00000000000E+00 0.  1.
        -13    1    1    2    0    0 -0.27181408039E+03  0.23303515060E+03 -0.80113444105E+03  0.87749910514E+03  0.10566000000E+00 0.  1.
         13    1    1    2    0    0 -0.14621619957E+02  0.16254532873E+03 -0.12834245122E+03  0.20762122149E+03  0.10566000000E+00 0. -1.
          4    1    1    2  501    0  0.28643570034E+03 -0.39558047934E+03 -0.14615320603E+03  0.50979416012E+03  0.00000000000E+00 0.  1.
</event>
<event>
 5    1  0.8445827E-005  0.3355225E+03  0.7818608E-02  0.9936356E-01
         -4   -1    0    0    0  501 -0.00000000000E+00  0.00000000000E+00  0.16519388213E+04  0.16519388213E+04  0.00000000000E+00 0. -1.
         21   -1    0    0  501  502  0.00000000000E+00 -0.00000000000E+00 -0.15377847026E+03  0.15377847026E+03  0.00000000000E+00 0. -1.
        -13    1    1    2    0    0  0.26955275547E+03  0.17734650295E+03  0.62697231359E+03  0.70512748015E+03  0.10566000000E+00 0.  1.
         13    1    1    2    0    0 -0.27996053946E+03 -0.20274308796E+03  0.95328881880E+03  0.10140228038E+04  0.10566000000E+00 0. -1.
         -4    1    1    2    0  502  0.10407783990E+02  0.25396585007E+02 -0.82100781394E+02  0.86567007590E+02  0.00000000000E+00 0. -1.
</event>
<event>
 5    1  0.8445827E-005  0.3153564E+03  0.7818608E-02  0.1001160E+00
          4   -1    0    0  502    0 -0.00000000000E+00  0.00000000000E+00  0.61460778559E+03  0.61460778559E+03  0.00000000000E+00 0.  1.
         21   -1    0    0  501  502  0.00000000000E+00 -0.00000000000E+00 -0.37179671017E+03  0.37179671017E+03  0.00000000000E+00 0.  1.
        -13    1    1    2    0    0  0.22944455684E+03  0.23568996990E+03  0.46126364771E+03  0.56653219718E+03  0.10566000000E+00 0.  1.
         13    1    1    2    0    0 -0.18003638314E+03 -0.16418607285E+03 -0.22638640652E+03  0.33259732710E+03  0.10566000000E+00 0. -1.
          4    1    1    2  501    0 -0.49408173698E+02 -0.71503897056E+02  0.79338342345E+01  0.87274971487E+02  0.00000000000E+00 0.  1.
</event>
<event>
 5    1  0.8445827E-005  0.4125183E+02  0.7818608E-02  0.1379353E+00
         21   -1    0    0  501  502  0.00000000000E+00  0.00000000000E+00  0.73313992158E+02  0.73313992158E+02  0.00000000000E+00 0.  1.
          4   -1    0    0  502    0 -0.00000000000E+00 -0.00000000000E+00 -0.70664845073E+02  0.70664845073E+02  0.00000000000E+00 0.  1.
        -13    1    1    2    0    0  0.43811804058E+02  0.34575865545E+02 -0.38228347641E+02  0.67648964371E+02  0.10566000000E+00 0.  1.
         13    1    1    2    0    0 -0.99796766618E+01 -0.14713429852E+02 -0.23734021898E+01  0.17936643116E+02  0.10566000000E+00 0. -1.
          4    1    1    2  501    0 -0.33832127396E+02 -0.19862435693E+02  0.43250896916E+02  0.58393229744E+02  0.00000000000E+00 0.  1.
</event>
<event>
 5    1  0.8445827E-005  0.2021767E+02  0.7818608E-02  0.1508863E+00
         21   -1    0    0  501  502  0.00000000000E+00  0.00000000000E+00  0.74482737114E+02  0.74482737114E+02  0.00000000000E+00 0.  1.
          4   -1    0    0  502    0 -0.00000000000E+00 -0.00000000000E+00 -0.15973818619E+03  0.15973818619E+03  0.00000000000E+00 0.  1.
        -13    1    1    2    0    0 -0.36994542343E+02 -0.90283409217E+01 -0.14908726428E+03  0.15387374902E+03  0.10566000000E+00 0.  1.
         13    1    1    2    0    0  0.16984049567E+02  0.98609428673E+01  0.83129133187E+01  0.21326317680E+02  0.10566000000E+00 0. -1.
          4    1    1    2  501    0  0.20010492776E+02 -0.83260194564E+00  0.55518901887E+02  0.59020856601E+02  0.00000000000E+00 0.  1.
</event>
<event>
 5    1  0.8445827E-005  0.4897573E+03  0.7818608E-02  0.9558991E-01
          4   -1    0    0  502    0 -0.00000000000E+00  0.00000000000E+00  0.21084773482E+04  0.21084773482E+04  0.00000000000E+00 0.  1.
         21   -1    0    0  501  502  0.00000000000E+00 -0.00000000000E+00 -0.25754880522E+03  0.25754880522E+03  0.00000000000E+00 0.  1.
        -13    1    1    2    0    0 -0.23028438758E+03  0.23060742430E+03  0.92183516864E+03  0.97774780624E+03  0.10566000000E+00 0.  1.
         13    1    1    2    0    0  0.10360209304E+03  0.38305514589E+03  0.44668994998E+03  0.59749189204E+03  0.10566000000E+00 0. -1.
          4    1    1    2  501    0  0.12668229454E+03 -0.61366257019E+03  0.48240342436E+03  0.79078645514E+03  0.00000000000E+00 0.  1.
</event>
<event>
 5    1  0.8445827E-005  0.6419726E+03  0.7818608E-02  0.9345210E-01
         21   -1    0    0  501  502  0.00000000000E+00  0.00000000000E+00  0.46745284658E+03  0.46745284658E+03  0.00000000000E+00 0.  1.
          4   -1    0    0  502    0 -0.00000000000E+00 -0.00000000000E+00 -0.24306599670E+04  0.24306599670E+04  0.00000000000E+00 0.  1.
        -13    1    1    2    0    0  0.21878722920E+03 -0.51529844022E+02 -0.67708004731E+03  0.71341473080E+03  0.10566000000E+00 0.  1.
         13    1    1    2    0    0  0.27873954097E+03  0.77945890799E+03 -0.89802304572E+03  0.12213506142E+04  0.10566000000E+00 0. -1.
          4    1    1    2  501    0 -0.49752677018E+03 -0.72792906397E+03 -0.38810402743E+03  0.96334746863E+03  0.00000000000E+00 0.  1.
</event>
<event>
 5    1  0.8445827E-005  0.5500957E+03  0.7818608E-02  0.9374450E-01
          4   -1    0    0  502    0 -0.00000000000E+00  0.00000000000E+00  0.28395880243E+04  0.28395880243E+04  0.00000000000E+00 0.  1.
         21   -1    0    0  501  502  0.00000000000E+00 -0.00000000000E+00 -0.27554304394E+03  0.27554304394E+03  0.00000000000E+00 0.  1.
        -13    1    1    2    0    0  0.17262793795E+03 -0.60013059679E+03  0.87965104353E+03  0.10787692560E+04  0.10566000000E+00 0.  1.
         13    1    1    2    0    0 -0.55122364151E+03  0.23072092689E+03  0.10707108707E+04  0.12261734906E+04  0.10566000000E+00 0. -1.
          4    1    1    2  501    0  0.37859570356E+03  0.36940966990E+03  0.61368306612E+03  0.81018832170E+03  0.00000000000E+00 0.  1.
</event>
<event>
 5    1  0.8445827E-005  0.1118819E+04  0.7818608E-02  0.8670337E-01
         21   -1    0    0  501  502  0.00000000000E+00  0.00000000000E+00  0.49844238167E+03  0.49844238167E+03  0.00000000000E+00 0.  1.
         -4   -1    0    0    0  501 -0.00000000000E+00 -0.00000000000E+00 -0.41885131798E+04  0.41885131798E+04  0.00000000000E+00 0. -1.
        -13    1    1    2    0    0  0.89510738057E+03  0.67799944139E+03 -0.11290202966E+04  0.15923527582E+04  0.10566000000E+00 0.  1.
         13    1    1    2    0    0 -0.87353669178E+03 -0.69612341040E+03 -0.27162070252E+04  0.29369090503E+04  0.10566000000E+00 0. -1.
         -4    1    1    2    0  502 -0.21570688788E+02  0.18123969017E+02  0.15515652373E+03  0.15769375297E+03  0.00000000000E+00 0. -1.
</event>
<event>
 5    1  0.8445827E-005  0.5017141E+03  0.7818608E-02  0.9585527E-01
         21   -1    0    0  501  502  0.00000000000E+00  0.00000000000E+00  0.38694324477E+03  0.38694324477E+03  0.00000000000E+00 0.  1.
          4   -1    0    0  502    0 -0.00000000000E+00 -0.00000000000E+00 -0.27526318623E+04  0.27526318623E+04  0.00000000000E+00 0.  1.
        -13    1    1    2    0    0  0.19051279659E+03  0.56076082078E+03 -0.13107494435E+03  0.60657108074E+03  0.10566000000E+00 0.  1.
         13    1    1    2    0    0 -0.31233396088E+03 -0.12300042446E+03 -0.19877229305E+04  0.20158680679E+04  0.10566000000E+00 0. -1.
          4    1    1    2  501    0  0.12182116429E+03 -0.43776039632E+03 -0.24689074262E+03  0.51713595838E+03  0.00000000000E+00 0.  1.
</event>
<event>
 5    1  0.8445827E-005  0.1913675E+03  0.7818608E-02  0.1066220E+00
         21   -1    0    0  501  502  0.00000000000E+00  0.00000000000E+00  0.13141119658E+04  0.13141119658E+04  0.00000000000E+00 0. -1.
         -4   -1    0    0    0  501 -0.00000000000E+00 -0.00000000000E+00 -0.61447431237E+02  0.61447431237E+02  0.00000000000E+00 0. -1.
        -13    1    1    2    0    0 -0.65800489599E+02 -0.94373063168E+02  0.66247026890E+03  0.67238593667E+03  0.10566000000E+00 0.  1.
         13    1    1    2    0    0  0.11187361665E+03  0.18830590882E+03  0.19137531778E+03  0.29085966517E+03  0.10566000000E+00 0. -1.
         -4    1    1    2    0  502 -0.46073127051E+02 -0.93932845656E+02  0.39881894787E+03  0.41231379520E+03  0.00000000000E+00 0. -1.
</event>
<event>
 5    1  0.8445827E-005  0.5815257E+02  0.7818608E-02  0.1261747E+00
         -4   -1    0    0    0  501 -0.00000000000E+00  0.00000000000E+00  0.14077069370E+02  0.14077069370E+02  0.00000000000E+00 0. -1.
         21   -1    0    0  501  502  0.00000000000E+00 -0.00000000000E+00 -0.37533220958E+03  0.37533220958E+03  0.00000000000E+00 0.  1.
        -13    1    1    2    0    0  0.18887356988E+02 -0.51619576861E+02 -0.20458636552E+03  0.21184169818E+03  0.10566000000E+00 0.  1.
         13    1    1    2    0    0 -0.63837139410E+01  0.59756851870E+02 -0.83408576000E+02  0.10280386599E+03  0.10566000000E+00 0. -1.
         -4    1    1    2    0  502 -0.12503643047E+02 -0.81372750091E+01 -0.73260198689E+02  0.74763714768E+02  0.00000000000E+00 0. -1.
</event>
<event>
 5    1  0.8445827E-005  0.3279077E+03  0.7818608E-02  0.1049480E+00
         -4   -1    0    0    0  501 -0.00000000000E+00  0.00000000000E+00  0.16523404065E+04  0.16523404065E+04  0.00000000000E+00 0. -1.
         21   -1    0    0  501  502  0.00000000000E+00 -0.00000000000E+00 -0.15799171917E+03  0.15799171917E+03  0.00000000000E+00 0. -1.
        -13    1    1    2    0    0 -0.37176989408E+02  0.49769442397E+02  0.22537866503E+03  0.23378340350E+03  0.10566000000E+00 0.  1.
         13    1    1    2    0    0  0.27437329125E+03  0.17806411068E+03  0.11956494763E+04  0.12395826764E+04  0.10566000000E+00 0. -1.
         -4    1    1    2    0  502 -0.23719630184E+03 -0.22783355307E+03  0.73320546055E+02  0.33696604575E+03  0.00000000000E+00 0. -1.
</event>
<event>
 5    1  0.8445827E-005  0.4006414E+03  0.7818608E-02  0.9727195E-01
         21   -1    0    0  501  502  0.00000000000E+00  0.00000000000E+00  0.65993006719E+03  0.65993006719E+03  0.00000000000E+00 0. -1.
         -4   -1    0    0    0  501 -0.00000000000E+00 -0.00000000000E+00 -0.86338825867E+03  0.86338825867E+03  0.00000000000E+00 0. -1.
        -13    1    1    2    0    0  0.66805256119E+02 -0.34537486402E+03 -0.29817202240E+03  0.46114347555E+03  0.10566000000E+00 0.  1.
         13    1    1    2    0    0 -0.17814450727E+03  0.65560919667E+03  0.21299318236E+03  0.71198665094E+03  0.10566000000E+00 0. -1.
         -4    1    1    2    0  502  0.11133925115E+03 -0.31023433265E+03 -0.11827935144E+03  0.35018819937E+03  0.00000000000E+00 0. -1.
</event>
<event>
 5    1  0.8445827E-005  0.7938056E+02  0.7818608E-02  0.1228509E+00
         21   -1    0    0  501  502  0.00000000000E+00  0.00000000000E+00  0.68894601544E+02  0.68894601544E+02  0.00000000000E+00 0. -1.
         -4   -1    0    0    0  501 -0.00000000000E+00 -0.00000000000E+00 -0.60701634137E+03  0.60701634137E+03  0.00000000000E+00 0. -1.
        -13    1    1    2    0    0 -0.20172323822E+02 -0.41537041803E+02 -0.89872863116E+02  0.10104153195E+03  0.10566000000E+00 0.  1.
         13    1    1    2    0    0  0.59282675944E+02  0.10784023657E+03 -0.47705930009E+03  0.49267589677E+03  0.10566000000E+00 0. -1.
         -4    1    1    2    0  502 -0.39110352122E+02 -0.66303194767E+02  0.28810423384E+02  0.82193514191E+02  0.00000000000E+00 0. -1.
</event>
<event>
 5    1  0.8445827E-005  0.2431289E+03  0.7818608E-02  0.1034016E+00
          4   -1    0    0  502    0 -0.00000000000E+00  0.00000000000E+00  0.25806797669E+03  0.25806797669E+03  0.00000000000E+00 0.  1.
         21   -1    0    0  501  502  0.00000000000E+00 -0.00000000000E+00 -0.38854041648E+03  0.38854041648E+03  0.00000000000E+00 0. -1.
        -13    1    1    2    0    0 -0.14672503896E+03 -0.19815733587E+03  0.11392666321E+03  0.27161344328E+03  0.10566000000E+00 0.  1.
         13    1    1    2    0    0  0.14550414672E+03  0.18327089868E+03 -0.14676277240E+03  0.27622273900E+03  0.10566000000E+00 0. -1.
          4    1    1    2  501    0  0.12208922365E+01  0.14886437186E+02 -0.97636330603E+02  0.98772210887E+02  0.00000000000E+00 0.  1.
</event>
<event>
 5    1  0.8445827E-005  0.4907196E+03  0.7818608E-02  0.9581216E-01
         -4   -1    0    0    0  501 -0.00000000000E+00  0.00000000000E+00  0.96564090392E+03  0.96564090392E+03  0.00000000000E+00 0. -1.
         21   -1    0    0  501  502  0.00000000000E+00 -0.00000000000E+00 -0.53410587468E+03  0.53410587468E+03  0.00000000000E+00 0. -1.
        -13    1    1    2    0    0 -0.16278240462E+03 -0.32592716056E+03  0.48140160027E+02  0.36748348454E+03  0.10566000000E+00 0.  1.
         13    1    1    2    0    0  0.31256642213E+03 -0.29309547199E+03  0.15315198113E+03  0.45503655285E+03  0.10566000000E+00 0. -1.
         -4    1    1    2    0  502 -0.14978401752E+03  0.61902263254E+03  0.23024288808E+03  0.67722674121E+03  0.00000000000E+00 0. -1.
</event>
<event>
 5    1  0.8445827E-005  0.5023140E+03  0.7818608E-02  0.9472915E-01
         -4   -1    0    0    0  501 -0.00000000000E+00  0.00000000000E+00  0.75229392597E+03  0.75229392597E+03  0.00000000000E+00 0. -1.
         21   -1    0    0  501  502  0.00000000000E+00 -0.00000000000E+00 -0.90971015552E+03  0.90971015552E+03  0.00000000000E+00 0.  1.
        -13    1    1    2    0    0  0.41905598490E+03 -0.22148520725E+02  0.17475340724E+03  0.45457369035E+03  0.10566000000E+00 0.  1.
         13    1    1    2    0    0 -0.76943342516E+03 -0.82379923716E+02 -0.11546110616E+03  0.78239729408E+03  0.10566000000E+00 0. -1.
         -4    1    1    2    0  502  0.35037744026E+03  0.10452844444E+03 -0.21670853063E+03  0.42503309706E+03  0.00000000000E+00 0. -1.
</event>
<event>
 5    1  0.8445827E-005  0.2984539E+03  0.7818608E-02  0.1047090E+00
         21   -1    0    0  501  502  0.00000000000E+00  0.00000000000E+00  0.22906821388E+03  0.22906821388E+03  0.00000000000E+00 0.  1.
          4   -1    0    0  502    0 -0.00000000000E+00 -0.00000000000E+00 -0.13657787935E+04  0.13657787935E+04  0.00000000000E+00 0.  1.
        -13    1    1    2    0    0  0.28916243927E+03 -0.79011330951E+02  0.29255015826E+02  0.30118694165E+03  0.10566000000E+00 0.  1.
         13    1    1    2    0    0  0.94766386266E+01  0.87969763239E+02  0.15798425994E+01  0.88492897967E+02  0.10566000000E+00 0. -1.
          4    1    1    2  501    0 -0.29863907790E+03 -0.89584322879E+01 -0.11675454380E+04  0.12051671677E+04  0.00000000000E+00 0.  1.
</event>
<event>
 5    1  0.8445827E-005  0.4396525E+03  0.7818608E-02  0.9925748E-01
         -4   -1    0    0    0  501 -0.00000000000E+00  0.00000000000E+00  0.79952496539E+03  0.79952496539E+03  0.00000000000E+00 0. -1.
         21   -1    0    0  501  502  0.00000000000E+00 -0.00000000000E+00 -0.48238375314E+03  0.48238375314E+03  0.00000000000E+00 0. -1.
        -13    1    1    2    0    0  0.15320285925E+03  0.19827091842E+02  0.23470393475E+03  0.28098074276E+03  0.10566000000E+00 0.  1.
         13    1    1    2    0    0  0.13350093524E+03  0.35087768629E+03  0.30351469118E+03  0.48276166932E+03  0.10566000000E+00 0. -1.
         -4    1    1    2    0  502 -0.28670379449E+03 -0.37070477813E+03 -0.22107741368E+03  0.51816630645E+03  0.00000000000E+00 0. -1.
</event>
<event>
 5    1  0.8445827E-005  0.1446797E+03  0.7818608E-02  0.1106480E+00
         -4   -1    0    0    0  501 -0.00000000000E+00  0.00000000000E+00  0.20273330722E+03  0.20273330722E+03  0.00000000000E+00 0. -1.
         21   -1    0    0  501  502  0.00000000000E+00 -0.00000000000E+00 -0.35745882891E+03  0.35745882891E+03  0.00000000000E+00 0. -1.
        -13    1    1    2    0    0  0.90745483786E+02 -0.84891202673E+02  0.37254419471E+02  0.12972726025E+03  0.10566000000E+00 0.  1.
         13    1    1    2    0    0 -0.93164090771E+02  0.15273774905E+03  0.44560513575E+02  0.18437466835E+03  0.10566000000E+00 0. -1.
         -4    1    1    2    0  502  0.24186069848E+01 -0.67846546375E+02 -0.23654045474E+03  0.24609020753E+03  0.00000000000E+00 0. -1.
</event>
<event>
 5    1  0.8445827E-005  0.3405088E+03  0.7818608E-02  0.9918618E-01
         -4   -1    0    0    0  501 -0.00000000000E+00  0.00000000000E+00  0.13199263110E+04  0.13199263110E+04  0.00000000000E+00 0. -1.
         21   -1    0    0  501  502  0.00000000000E+00 -0.00000000000E+00 -0.12353002961E+03  0.12353002961E+03  0.00000000000E+00 0. -1.
        -13    1    1    2    0    0  0.12608457694E+01  0.33593823809E+03  0.66170496870E+03  0.74209808402E+03  0.10566000000E+00 0.  1.
         13    1    1    2    0    0 -0.51685217287E+02 -0.34443022842E+03  0.54727207314E+03  0.64869891100E+03  0.10566000000E+00 0. -1.
         -4    1    1    2    0  502  0.50424371518E+02  0.84919903288E+01 -0.12580760468E+02  0.52659345578E+02  0.00000000000E+00 0. -1.
</event>
<event>
 5    1  0.8445827E-005  0.6486880E+02  0.7818608E-02  0.1240870E+00
          4   -1    0    0  502    0 -0.00000000000E+00  0.00000000000E+00  0.46182489239E+03  0.46182489239E+03  0.00000000000E+00 0.  1.
         21   -1    0    0  501  502  0.00000000000E+00 -0.00000000000E+00 -0.25109612414E+02  0.25109612414E+02  0.00000000000E+00 0. -1.
        -13    1    1    2    0    0  0.67257862519E+02 -0.97359147886E+01  0.38648994489E+03  0.39241928695E+03  0.10566000000E+00 0.  1.
         13    1    1    2    0    0 -0.46682606696E+02 -0.47182666474E+01  0.11444733709E+02  0.48296178957E+02  0.10566000000E+00 0. -1.
          4    1    1    2  501    0 -0.20575255823E+02  0.14454181436E+02  0.38780601378E+02  0.46219038895E+02  0.00000000000E+00 0.  1.
</event>
<event>
 5    1  0.8445827E-005  0.4512591E+03  0.7818608E-02  0.9597562E-01
         21   -1    0    0  501  502  0.00000000000E+00  0.00000000000E+00  0.11816346134E+04  0.11816346134E+04  0.00000000000E+00 0. -1.
         -4   -1    0    0    0  501 -0.00000000000E+00 -0.00000000000E+00 -0.11940588340E+04  0.11940588340E+04  0.00000000000E+00 0. -1.
        -13    1    1    2    0    0  0.70354390883E+02  0.43633299664E+03 -0.87785856017E+03  0.98283868824E+03  0.10566000000E+00 0.  1.
         13    1    1    2    0    0 -0.50141586467E+03 -0.30636706459E+03  0.27079728039E+03  0.64700063820E+03  0.10566000000E+00 0. -1.
         -4    1    1    2    0  502  0.43106147378E+03 -0.12996593205E+03  0.59463705916E+03  0.74585412099E+03  0.00000000000E+00 0. -1.
</event>
<event>
 5    1  0.8445827E-005  0.3150379E+03  0.7818608E-02  0.1001284E+00
         -4   -1    0    0    0  501 -0.00000000000E+00  0.00000000000E+00  0.33301358467E+04  0.33301358467E+04  0.00000000000E+00 0. -1.
         21   -1    0    0  501  502  0.00000000000E+00 -0.00000000000E+00 -0.11756268472E+03  0.11756268472E+03  0.00000000000E+00 0. -1.
        -13    1    1    2    0    0  0.33746035246E+03 -0.10026572232E+03  0.16851282751E+04  0.17215080654E+04  0.10566000000E+00 0.  1.
         13    1    1    2    0    0 -0.23948986294E+03  0.17207775083E+03  0.15700189312E+04  0.15974747579E+04  0.10566000000E+00 0. -1.
         -4    1    1    2    0  502 -0.97970489525E+02 -0.71812028518E+02 -0.42574044310E+02  0.12871570808E+03  0.00000000000E+00 0. -1.
</event>
<event>
 5    1  0.8445827E-005  0.1148669E+03  0.7818608E-02  0.1151187E+00
         21   -1    0    0  501  502  0.00000000000E+00  0.00000000000E+00  0.75203675488E+02  0.75203675488E+02  0.00000000000E+00 0. -1.
          4   -1    0    0  502    0 -0.00000000000E+00 -0.00000000000E+00 -0.56028656470E+03  0.56028656470E+03  0.00000000000E+00 0.  1.
        -13    1    1    2    0    0  0.14569143002E+03 -0.11135478592E+03 -0.36817831715E+03  0.41131638129E+03  0.10566000000E+00 0.  1.
         13    1    1    2    0    0 -0.85542749842E+02  0.32449506416E+02 -0.47452912143E+02  0.10306465229E+03  0.10566000000E+00 0. -1.
          4    1    1    2  501    0 -0.60148680182E+02  0.78905279502E+02 -0.69451659920E+02  0.12110920661E+03  0.00000000000E+00 0.  1.
</event>
<event>
 5    1  0.8445827E-005  0.3151307E+03  0.7818608E-02  0.1001248E+00
         -4   -1    0    0    0  501 -0.00000000000E+00  0.00000000000E+00  0.41894077706E+03  0.41894077706E+03  0.00000000000E+00 0. -1.
         21   -1    0    0  501  502  0.00000000000E+00 -0.00000000000E+00 -0.62193433302E+03  0.62193433302E+03  0.00000000000E+00 0. -1.
        -13    1    1    2    0    0  0.87602871077E+02  0.30723594479E+03  0.25434325916E+03  0.40836098423E+03  0.10566000000E+00 0.  1.
         13    1    1    2    0    0  0.29037871304E+02 -0.31164316223E+03 -0.27851955140E+03  0.41897232631E+03  0.10566000000E+00 0. -1.
         -4    1    1    2    0  502 -0.11664074238E+03  0.44072174368E+01 -0.17881726372E+03  0.21354179954E+03  0.00000000000E+00 0. -1.
</event>
<event>
 5    1  0.8445827E-005  0.4644439E+03  0.7818608E-02  0.1002654E+00
          4   -1    0    0  502    0 -0.00000000000E+00  0.00000000000E+00  0.26587586853E+03  0.26587586853E+03  0.00000000000E+00 0.  1.
         21   -1    0    0  501  502  0.00000000000E+00 -0.00000000000E+00 -0.13025640097E+04  0.13025640097E+04  0.00000000000E+00 0.  1.
        -13    1    1    2    0    0 -0.49149271803E+03 -0.47698173956E+01 -0.86549764694E+03  0.99532609282E+03  0.10566000000E+00 0.  1.
         13    1    1    2    0    0  0.79655015688E+02  0.49951926606E+02  0.46723802509E+02  0.10499162529E+03  0.10566000000E+00 0. -1.
          4    1    1    2  501    0  0.41183770234E+03 -0.45182109210E+02 -0.21791429671E+03  0.46812216009E+03  0.00000000000E+00 0.  1.
</event>
<event>
 5    1  0.8445827E-005  0.5881266E+03  0.7818608E-02  0.9303288E-01
         -4   -1    0    0    0  501 -0.00000000000E+00  0.00000000000E+00  0.13804062519E+04  0.13804062519E+04  0.00000000000E+00 0. -1.
         21   -1    0    0  501  502  0.00000000000E+00 -0.00000000000E+00 -0.44548923842E+03  0.44548923842E+03  0.00000000000E+00 0. -1.
        -13    1    1    2    0    0 -0.52429630956E+03 -0.25316549425E+03  0.52992457011E+03  0.78727342700E+03  0.10566000000E+00 0.  1.
         13    1    1    2    0    0  0.52525231202E+03  0.27722980365E+03  0.59876078113E+03  0.84336281605E+03  0.10566000000E+00 0. -1.
         -4    1    1    2    0  502 -0.95600246167E+00 -0.24064309403E+02 -0.19376833776E+03  0.19525924727E+03  0.00000000000E+00 0. -1.
</event>
<event>
 5    1  0.8445827E-005  0.4700866E+03  0.7818608E-02  0.9737073E-01
         21   -1    0    0  501  502  0.00000000000E+00  0.00000000000E+00  0.56087257242E+03  0.56087257242E+03  0.00000000000E+00 0. -1.
         -4   -1    0    0    0  501 -0.00000000000E+00 -0.00000000000E+00 -0.77846423842E+03  0.77846423842E+03  0.00000000000E+00 0. -1.
        -13    1    1    2    0    0  0.22562734634E+03  0.80885260037E+02 -0.22387806625E+03  0.32798098179E+03  0.10566000000E+00 0.  1.
         13    1    1    2    0    0 -0.61447731177E+03 -0.18801677368E+02 -0.32842978722E+02  0.61564156956E+03  0.10566000000E+00 0. -1.
         -4    1    1    2    0  502  0.38884996543E+03 -0.62083582669E+02  0.39129378969E+02  0.39571425948E+03  0.00000000000E+00 0. -1.
</event>
<event>
 5    1  0.8445827E-005  0.1568876E+03  0.7818608E-02  0.1094511E+00
         -4   -1    0    0    0  501 -0.00000000000E+00  0.00000000000E+00  0.85212332390E+03  0.85212332390E+03  0.00000000000E+00 0. -1.
         21   -1    0    0  501  502  0.00000000000E+00 -0.00000000000E+00 -0.96171387022E+02  0.96171387022E+02  0.00000000000E+00 0. -1.
        -13    1    1    2    0    0  0.43517687062E+02 -0.10971662962E+03  0.22134301463E+03  0.25084710322E+03  0.10566000000E+00 0.  1.
         13    1    1    2    0    0 -0.36569348209E+02  0.20420701272E+03  0.56179806368E+03  0.59887803165E+03  0.10566000000E+00 0. -1.
         -4    1    1    2    0  502 -0.69483388528E+01 -0.94490383101E+02 -0.27189141434E+02  0.98569576053E+02  0.00000000000E+00 0. -1.
</event>
<event>
 5    1  0.8445827E-005  0.4470561E+03  0.7818608E-02  0.9764590E-01
         -4   -1    0    0    0  501 -0.00000000000E+00  0.00000000000E+00  0.46340161697E+03  0.46340161697E+03  0.00000000000E+00 0. -1.
         21   -1    0    0  501  502  0.00000000000E+00 -0.00000000000E+00 -0.17725605550E+04  0.17725605550E+04  0.00000000000E+00 0. -1.
        -13    1    1    2    0    0 -0.43099736826E+02  0.44602052460E+03  0.80825107598E+02  0.45532911708E+03  0.10566000000E+00 0.  1.
         13    1    1    2    0    0  0.24455577451E+03 -0.46928258930E+02  0.65954887627E+02  0.25760405024E+03  0.10566000000E+00 0. -1.
         -4    1    1    2    0  502 -0.20145603768E+03 -0.39909226567E+03 -0.14559389332E+04  0.15230290046E+04  0.00000000000E+00 0. -1.
</event>
<event>
 5    1  0.8445827E-005  0.1377307E+02  0.7818608E-02  0.1630980E+00
         21   -1    0    0  501  502  0.00000000000E+00  0.00000000000E+00  0.21195184593E+03  0.21195184593E+03  0.00000000000E+00 0. -1.
         -4   -1    0    0    0  501 -0.00000000000E+00 -0.00000000000E+00 -0.25015961799E+02  0.25015961799E+02  0.00000000000E+00 0. -1.
        -13    1    1    2    0    0 -0.34466877436E+01 -0.11713653208E+02  0.73005583996E+02  0.74019698638E+02  0.10566000000E+00 0.  1.
         13    1    1    2    0    0 -0.10092485206E+02  0.87685186171E+01 -0.22307613206E+02  0.26007421005E+02  0.10566000000E+00 0. -1.
         -4    1    1    2    0  502  0.13539172950E+02  0.29451345905E+01  0.13623791334E+03  0.13694068809E+03  0.00000000000E+00 0. -1.
</event>
<event>
 5    1  0.8445827E-005  0.1289846E+03  0.7818608E-02  0.1123907E+00
         21   -1    0    0  501  502  0.00000000000E+00  0.00000000000E+00  0.16842477752E+03  0.16842477752E+03  0.00000000000E+00 0.  1.
          4   -1    0    0  502    0 -0.00000000000E+00 -0.00000000000E+00 -0.38484514153E+03  0.38484514153E+03  0.00000000000E+00 0.  1.
        -13    1    1    2    0    0  0.12943696681E+03  0.11761874482E+02 -0.31184879722E+03  0.33784901000E+03  0.10566000000E+00 0.  1.
         13    1    1    2    0    0 -0.12153286862E+03 -0.29754516709E+02  0.75259438188E+01  0.12534839614E+03  0.10566000000E+00 0. -1.
          4    1    1    2  501    0 -0.79040981874E+01  0.17992642227E+02  0.87902489384E+02  0.90072512912E+02  0.00000000000E+00 0.  1.
</event>
<event>
 5    1  0.8445827E-005  0.4923656E+03  0.7818608E-02  0.9845374E-01
         21   -1    0    0  501  502  0.00000000000E+00  0.00000000000E+00  0.19518788526E+03  0.19518788526E+03  0.00000000000E+00 0. -1.
         -4   -1    0    0    0  501 -0.00000000000E+00 -0.00000000000E+00 -0.21817390525E+04  0.21817390525E+04  0.00000000000E+00 0. -1.
        -13    1    1    2    0    0 -0.12459228893E+03  0.72263418118E+02 -0.86316691573E+03  0.87510135164E+03  0.10566000000E+00 0.  1.
         13    1    1    2    0    0  0.50884347603E+03  0.17660427778E+03 -0.58838220320E+03  0.79768689486E+03  0.10566000000E+00 0. -1.
         -4    1    1    2    0  502 -0.38425118710E+03 -0.24886769590E+03 -0.53500204832E+03  0.70413869128E+03  0.00000000000E+00 0. -1.
</event>
<event>
 5    1  0.8445827E-005  0.5055527E+03  0.7818608E-02  0.1024389E+00
         21   -1    0    0  501  502  0.00000000000E+00  0.00000000000E+00  0.32243406499E+03  0.32243406499E+03  0.00000000000E+00 0. -1.
         -4   -1    0    0    0  501 -0.00000000000E+00 -0.00000000000E+00 -0.95231960085E+03  0.95231960085E+03  0.00000000000E+00 0. -1.
        -13    1    1    2    0    0  0.23107085972E+02 -0.28162094418E+02 -0.15013429559E+03  0.15449064328E+03  0.10566000000E+00 0.  1.
         13    1    1    2    0    0  0.45493688013E+03  0.20847944511E+03 -0.26210316805E+03  0.56491532622E+03  0.10566000000E+00 0. -1.
         -4    1    1    2    0  502 -0.47804396610E+03 -0.18031735069E+03 -0.21764807222E+03  0.55534769634E+03  0.00000000000E+00 0. -1.
</event>
<event>
 5    1  0.8445827E-005  0.1299449E+04  0.7818608E-02  0.8535216E-01
          4   -1    0    0  502    0 -0.00000000000E+00  0.00000000000E+00  0.44771777964E+04  0.44771777964E+04  0.00000000000E+00 0.  1.
         21   -1    0    0  501  502  0.00000000000E+00 -0.00000000000E+00 -0.50817614622E+03  0.50817614622E+03  0.00000000000E+00 0. -1.
        -13    1    1    2    0    0 -0.79686179459E+03  0.10056368159E+04  0.19612758284E+04  0.23436930284E+04  0.10566000000E+00 0.  1.
         13    1    1    2    0    0  0.83836873107E+03 -0.10138036176E+04  0.21348754343E+04  0.25076588754E+04  0.10566000000E+00 0. -1.
          4    1    1    2  501    0 -0.41506936487E+02  0.81668016677E+01 -0.12714961254E+03  0.13400203877E+03  0.00000000000E+00 0.  1.
</event>
<event>
 5    1  0.8445827E-005  0.4799278E+03  0.7818608E-02  0.9923731E-01
         21   -1    0    0  501  502  0.00000000000E+00  0.00000000000E+00  0.29978944604E+04  0.29978944604E+04  0.00000000000E+00 0.  1.
          4   -1    0    0  502    0 -0.00000000000E+00 -0.00000000000E+00 -0.24524972005E+03  0.24524972005E+03  0.00000000000E+00 0.  1.
        -13    1    1    2    0    0  0.36505850545E+03  0.23703020196E+03  0.14788702271E+04  0.15415927442E+04  0.10566000000E+00 0.  1.
         13    1    1    2    0    0  0.10336540371E+03  0.60086724488E+02 -0.13925657557E+03  0.18354080240E+03  0.10566000000E+00 0. -1.
          4    1    1    2  501    0 -0.46842390917E+03 -0.29711692645E+03  0.14130310888E+04  0.15180106339E+04  0.00000000000E+00 0.  1.
</event>
<event>
 5    1  0.8445827E-005  0.7602039E+02  0.7818608E-02  0.1211763E+00
         21   -1    0    0  501  502  0.00000000000E+00  0.00000000000E+00  0.61824805514E+02  0.61824805514E+02  0.00000000000E+00 0. -1.
          4   -1    0    0  502    0 -0.00000000000E+00 -0.00000000000E+00 -0.25093155933E+03  0.25093155933E+03  0.00000000000E+00 0.  1.
        -13    1    1    2    0    0  0.71266000615E+02  0.33832184280E+02 -0.19453341014E+03  0.20992074305E+03  0.10566000000E+00 0.  1.
         13    1    1    2    0    0 -0.68814238590E+02 -0.61977498327E+00 -0.14405380632E+01  0.68832186277E+02  0.10566000000E+00 0. -1.
          4    1    1    2  501    0 -0.24517620255E+01 -0.33212409296E+02  0.68671943884E+01  0.34003435519E+02  0.00000000000E+00 0.  1.
</event>
<event>
 5    1  0.8445827E-005  0.7952219E+02  0.7818608E-02  0.1203749E+00
         -4   -1    0    0    0  501 -0.00000000000E+00  0.00000000000E+00  0.46423222915E+03  0.46423222915E+03  0.00000000000E+00 0. -1.
         21   -1    0    0  501  502  0.00000000000E+00 -0.00000000000E+00 -0.77217187238E+02  0.77217187238E+02  0.00000000000E+00 0. -1.
        -13    1    1    2    0    0  0.71271612165E+02  0.18925615767E+02 -0.32096496800E+01  0.73811480461E+02  0.10566000000E+00 0.  1.
         13    1    1    2    0    0 -0.66764287582E+02 -0.44909399577E+02  0.42012992256E+03  0.42776569201E+03  0.10566000000E+00 0. -1.
         -4    1    1    2    0  502 -0.45073245833E+01  0.25983783810E+02 -0.29905230966E+02  0.39872243918E+02  0.00000000000E+00 0. -1.
</event>
<event>
 5    1  0.2095017E-004  0.2975636E+03  0.7818608E-02  0.1048868E+00
          4   -1    0    0  502    0 -0.00000000000E+00  0.00000000000E+00  0.14957177635E+04  0.14957177635E+04  0.00000000000E+00 0.  1.
         21   -1    0    0  501  502  0.00000000000E+00 -0.00000000000E+00 -0.25215767762E+03  0.25215767762E+03  0.00000000000E+00 0.  1.
        -13    1    1    2    0    0 -0.11333226406E+03  0.20640636341E+03  0.91264427587E+03  0.94253242617E+03  0.10566000000E+00 0.  1.
         13    1    1    2    0    0  0.17687901326E+02  0.82792536734E+02  0.46491994752E+03  0.47256537617E+03  0.10566000000E+00 0. -1.
          4    1    1    2  501    0  0.95644362734E+02 -0.28919890015E+03 -0.13400413754E+03  0.33277763874E+03  0.00000000000E+00 0.  1.
</event>
<event>
 5    1  0.8445827E-005  0.3602222E+02  0.7818608E-02  0.1362191E+00
         21   -1    0    0  501  502  0.00000000000E+00  0.00000000000E+00  0.15205792104E+03  0.15205792104E+03  0.00000000000E+00 0. -1.
          4   -1    0    0  502    0 -0.00000000000E+00 -0.00000000000E+00 -0.69880065484E+02  0.69880065484E+02  0.00000000000E+00 0.  1.
        -13    1    1    2    0    0 -0.36406363318E+02 -0.73976715715E+00 -0.62202057877E+02  0.72076887514E+02  0.10566000000E+00 0.  1.
         13    1    1    2    0    0  0.25881275139E+02  0.47798047106E+00  0.12641766902E+03  0.12904071866E+03  0.10566000000E+00 0. -1.
          4    1    1    2  501    0  0.10525088179E+02  0.26178668609E+00  0.17962244407E+02  0.20820380341E+02  0.00000000000E+00 0.  1.
</event>
<event>
 5    1  0.8445827E-005  0.5029655E+03  0.7818608E-02  0.9510884E-01
         -4   -1    0    0    0  501 -0.00000000000E+00  0.00000000000E+00  0.65973030416E+03  0.65973030416E+03  0.00000000000E+00 0. -1.
         21   -1    0    0  501  502  0.00000000000E+00 -0.00000000000E+00 -0.11606575238E+04  0.11606575238E+04  0.00000000000E+00 0.  1.
        -13    1    1    2    0    0 -0.13646916493E+03 -0.52282720230E+03  0.30310829828E+02  0.54119393383E+03  0.10566000000E+00 0.  1.
         13    1    1    2    0    0  0.47127091646E+03  0.89716645540E+02  0.48088901772E+02  0.48213888749E+03  0.10566000000E+00 0. -1.
         -4    1    1    2    0  502 -0.33480175153E+03  0.43311055676E+03 -0.57932695126E+03  0.79705500667E+03  0.00000000000E+00 0. -1.
</event>
<event>
 5    1  0.8445827E-005  0.4575930E+03  0.7818608E-02  0.1014647E+00
         -4   -1    0    0    0  501 -0.00000000000E+00  0.00000000000E+00  0.16403125711E+03  0.16403125711E+03  0.00000000000E+00 0. -1.
         21   -1    0    0  501  502  0.00000000000E+00 -0.00000000000E+00 -0.17760918936E+04  0.17760918936E+04  0.00000000000E+00 0. -1.
        -13    1    1    2    0    0  0.99830313325E-01 -0.66799789826E+02 -0.69585948158E+02  0.96459510843E+02  0.10566000000E+00 0.  1.
         13    1    1    2    0    0 -0.11572344221E+03  0.49011443390E+03 -0.48678286989E+03  0.70040106152E+03  0.10566000000E+00 0. -1.
         -4    1    1    2    0  502  0.11562361190E+03 -0.42331464407E+03 -0.10556918184E+04  0.11432625783E+04  0.00000000000E+00 0. -1.
</event>
<event>
 5    1  0.8445827E-005  0.7460058E+02  0.7818608E-02  0.1215149E+00
         21   -1    0    0  501  502  0.00000000000E+00  0.00000000000E+00  0.97239722588E+02  0.97239722588E+02  0.00000000000E+00 0. -1.
         -4   -1    0    0    0  501 -0.00000000000E+00 -0.00000000000E+00 -0.47835110607E+03  0.47835110607E+03  0.00000000000E+00 0. -1.
        -13    1    1    2    0    0 -0.61319770864E+02  0.15206079579E+02 -0.31677481040E+02  0.70673991851E+02  0.10566000000E+00 0.  1.
         13    1    1    2    0    0  0.76965920124E+02  0.16212401641E+01 -0.42191507829E+03  0.42888078266E+03  0.10566000000E+00 0. -1.
         -4    1    1    2    0  502 -0.15646149260E+02 -0.16827319743E+02  0.72481175855E+02  0.76036054143E+02  0.00000000000E+00 0. -1.
</event>
<event>
 5    1  0.8445827E-005  0.1971446E+03  0.7818608E-02  0.1062111E+00
          4   -1    0    0  502    0 -0.00000000000E+00  0.00000000000E+00  0.21151748727E+04  0.21151748727E+04  0.00000000000E+00 0.  1.
         21   -1    0    0  501  502  0.00000000000E+00 -0.00000000000E+00 -0.95156740471E+02  0.95156740471E+02  0.00000000000E+00 0.  1.
        -13    1    1    2    0    0  0.15033731038E+03 -0.15401408606E+03  0.12482344040E+04  0.12666533796E+04  0.10566000000E+00 0.  1.
         13    1    1    2    0    0 -0.12588819513E+03  0.12692574342E+03  0.84402225417E+03  0.86274652054E+03  0.10566000000E+00 0. -1.
          4    1    1    2  501    0 -0.24449115247E+02  0.27088342644E+02 -0.72238525932E+02  0.80931713020E+02  0.00000000000E+00 0.  1.
</event>
<event>
 5    1  0.8445827E-005  0.4325769E+03  0.7818608E-02  0.1001623E+00
         21   -1    0    0  501  502  0.00000000000E+00  0.00000000000E+00  0.22996193246E+03  0.22996193246E+03  0.00000000000E+00 0.  1.
          4   -1    0    0  502    0 -0.00000000000E+00 -0.00000000000E+00 -0.15181032774E+04  0.15181032774E+04  0.00000000000E+00 0.  1.
        -13    1    1    2    0    0  0.24574586332E+03 -0.46124114814E+03 -0.79030611560E+03  0.94747991725E+03  0.10566000000E+00 0.  1.
         13    1    1    2    0    0 -0.47049623190E+02  0.11077318753E+03 -0.35220100342E+03  0.37219608286E+03  0.10566000000E+00 0. -1.
          4    1    1    2  501    0 -0.19869624013E+03  0.35046796061E+03 -0.14563422590E+03  0.42838920973E+03  0.00000000000E+00 0.  1.
</event>
<event>
 5    1  0.8445827E-005  0.4599045E+03  0.7818608E-02  0.9662248E-01
         -4   -1    0    0    0  501 -0.00000000000E+00  0.00000000000E+00  0.17754364234E+04  0.17754364234E+04  0.00000000000E+00 0. -1.
         21   -1    0    0  501  502  0.00000000000E+00 -0.00000000000E+00 -0.27063632787E+03  0.27063632787E+03  0.00000000000E+00 0. -1.
        -13    1    1    2    0    0 -0.25137571796E+03  0.21713842655E+03  0.38237317497E+03  0.50650577881E+03  0.10566000000E+00 0.  1.
         13    1    1    2    0    0 -0.44780441362E+02 -0.55516087643E+03  0.84299061609E+03  0.10103672979E+04  0.10566000000E+00 0. -1.
         -4    1    1    2    0  502  0.29615615932E+03  0.33802244988E+03  0.27943630446E+03  0.52919967458E+03  0.00000000000E+00 0. -1.
</event>
<event>
 5    1  0.8445827E-005  0.2137331E+03  0.7818608E-02  0.1096588E+00
          4   -1    0    0  502    0 -0.00000000000E+00  0.00000000000E+00  0.69591638538E+03  0.69591638538E+03  0.00000000000E+00 0.  1.
         21   -1    0    0  501  502  0.00000000000E+00 -0.00000000000E+00 -0.18745629289E+03  0.18745629289E+03  0.00000000000E+00 0.  1.
        -13    1    1    2    0    0 -0.16841804240E+03 -0.12302945867E+03 -0.58453574002E+02  0.21660497728E+03  0.10566000000E+00 0.  1.
         13    1    1    2    0    0 -0.50577712535E+02  0.29647247188E+02  0.31400813995E+03  0.31943416754E+03  0.10566000000E+00 0. -1.
          4    1    1    2  501    0  0.21899575493E+03  0.93382211480E+02  0.25290552655E+03  0.34733353345E+03  0.00000000000E+00 0.  1.
</event>
<event>
 5    1  0.8445827E-005  0.3138540E+03  0.7818608E-02  0.1001745E+00
         21   -1    0    0  501  502  0.00000000000E+00  0.00000000000E+00  0.87775752876E+03  0.87775752876E+03  0.00000000000E+00 0. -1.
         -4   -1    0    0    0  501 -0.00000000000E+00 -0.00000000000E+00 -0.68264785609E+03  0.68264785609E+03  0.00000000000E+00 0. -1.
        -13    1    1    2    0    0 -0.23644633567E+03 -0.34690903284E+03 -0.10811920346E+03  0.43352337889E+03  0.10566000000E+00 0.  1.
         13    1    1    2    0    0  0.19773637467E+03  0.20232821309E+03 -0.35381065449E+03  0.45301034213E+03  0.10566000000E+00 0. -1.
         -4    1    1    2    0  502  0.38709960999E+02  0.14458081975E+03  0.65703953062E+03  0.67387166383E+03  0.00000000000E+00 0. -1.
</event>
<event>
 5    1  0.8445827E-005  0.5182376E+03  0.7818608E-02  0.9585693E-01
         21   -1    0    0  501  502  0.00000000000E+00  0.00000000000E+00  0.39559766514E+03  0.39559766514E+03  0.00000000000E+00 0. -1.
         -4   -1    0    0    0  501 -0.00000000000E+00 -0.00000000000E+00 -0.16644008431E+04  0.16644008431E+04  0.00000000000E+00 0. -1.
        -13    1    1    2    0    0  0.85270546698E+02  0.29221833356E+03 -0.84747821009E+03  0.90048983800E+03  0.10566000000E+00 0.  1.
         13    1    1    2    0    0 -0.37820086826E+03 -0.54072777755E+03 -0.11864242069E+03  0.67044646417E+03  0.10566000000E+00 0. -1.
         -4    1    1    2    0  502  0.29293032156E+03  0.24850944398E+03 -0.30268254715E+03  0.48906220605E+03  0.00000000000E+00 0. -1.
</event>
<event>
 5    1  0.8445827E-005  0.3014513E+02  0.7818608E-02  0.1403747E+00
         21   -1    0    0  501  502  0.00000000000E+00  0.00000000000E+00  0.14088504174E+03  0.14088504174E+03  0.00000000000E+00 0. -1.
         -4   -1    0    0    0  501 -0.00000000000E+00 -0.00000000000E+00 -0.26471539653E+02  0.26471539653E+02  0.00000000000E+00 0. -1.
        -13    1    1    2    0    0 -0.19375638194E+02  0.12499781161E+02  0.14568136680E+02  0.27274560580E+02  0.10566000000E+00 0.  1.
         13    1    1    2    0    0  0.29418434264E+02 -0.20011286245E+02 -0.37077434176E+01  0.35772257086E+02  0.10566000000E+00 0. -1.
         -4    1    1    2    0  502 -0.10042796070E+02  0.75115050842E+01  0.10355310883E+03  0.10430976373E+03  0.00000000000E+00 0. -1.
</event>
<event>
 5    1  0.8445827E-005  0.4601631E+03  0.7818608E-02  0.9709530E-01
         21   -1    0    0  501  502  0.00000000000E+00  0.00000000000E+00  0.14275897647E+03  0.14275897647E+03  0.00000000000E+00 0. -1.
         -4   -1    0    0    0  501 -0.00000000000E+00 -0.00000000000E+00 -0.34807830597E+04  0.34807830597E+04  0.00000000000E+00 0. -1.
        -13    1    1    2    0    0  0.28034417939E+03  0.21016609981E+02 -0.12637562402E+04  0.12946483703E+04  0.10566000000E+00 0.  1.
         13    1    1    2    0    0  0.25781410663E+02  0.44199166924E+03 -0.54599276350E+03  0.70294340154E+03  0.10566000000E+00 0. -1.
         -4    1    1    2    0  502 -0.30612559005E+03 -0.46300827922E+03 -0.15282750795E+04  0.16259502644E+04  0.00000000000E+00 0. -1.
</event>
<event>
 5    1  0.8445827E-005  0.4763382E+03  0.7818608E-02  0.9586337E-01
          4   -1    0    0  502    0 -0.00000000000E+00  0.00000000000E+00  0.15099070535E+04  0.15099070535E+04  0.00000000000E+00 0.  1.
         21   -1    0    0  501  502  0.00000000000E+00 -0.00000000000E+00 -0.41161458705E+03  0.41161458705E+03  0.00000000000E+00 0. -1.
        -13    1    1    2    0    0 -0.13750312966E+03  0.33187043892E+03  0.14931604594E+03  0.38902492418E+03  0.10566000000E+00 0.  1.
         13    1    1    2    0    0 -0.37805185960E+00  0.39110547685E+03  0.60420333378E+03  0.71973975620E+03  0.10566000000E+00 0. -1.
          4    1    1    2  501    0  0.13788118152E+03 -0.72297591576E+03  0.34477308676E+03  0.81275696020E+03  0.00000000000E+00 0.  1.
</event>
<event>
 5    1  0.8445827E-005  0.4481278E+03  0.7818608E-02  0.9955381E-01
         -4   -1    0    0    0  501 -0.00000000000E+00  0.00000000000E+00  0.22773398359E+04  0.22773398359E+04  0.00000000000E+00 0. -1.
         21   -1    0    0  501  502  0.00000000000E+00 -0.00000000000E+00 -0.13176354446E+03  0.13176354446E+03  0.00000000000E+00 0. -1.
        -13    1    1    2    0    0 -0.87968355459E+02  0.98710432203E+02  0.27154532285E+03  0.30202492366E+03  0.10566000000E+00 0.  1.
         13    1    1    2    0    0 -0.37052586297E+03 -0.19382964163E+03  0.13038465024E+04  0.13692607707E+04  0.10566000000E+00 0. -1.
         -4    1    1    2    0  502  0.45849421843E+03  0.95119209429E+02  0.57018446617E+03  0.73781768602E+03  0.00000000000E+00 0. -1.
</event>
<event>
 5    1  0.8445827E-005  0.4773676E+03  0.7818608E-02  0.9615285E-01
         21   -1    0    0  501  502  0.00000000000E+00  0.00000000000E+00  0.32402815243E+03  0.32402815243E+03  0.00000000000E+00 0. -1.
          4   -1    0    0  502    0 -0.00000000000E+00 -0.00000000000E+00 -0.16088881386E+04  0.16088881386E+04  0.00000000000E+00 0.  1.
        -13    1    1    2    0    0 -0.23458694286E+03 -0.65256153664E+03 -0.55916941465E+03  0.89080752035E+03  0.10566000000E+00 0.  1.
         13    1    1    2    0    0  0.21806669036E+03  0.27448473979E+03 -0.46599614966E+03  0.58313581307E+03  0.10566000000E+00 0. -1.
          4    1    1    2  501    0  0.16520252497E+02  0.37807679685E+03 -0.25969442182E+03  0.45897295758E+03  0.00000000000E+00 0.  1.
</event>
<event>
 5    1  0.8445827E-005  0.4823364E+03  0.7818608E-02  0.9976482E-01
          4   -1    0    0  502    0 -0.00000000000E+00  0.00000000000E+00  0.20090475739E+04  0.20090475739E+04  0.00000000000E+00 0.  1.
         21   -1    0    0  501  502  0.00000000000E+00 -0.00000000000E+00 -0.15071291104E+03  0.15071291104E+03  0.00000000000E+00 0.  1.
        -13    1    1    2    0    0  0.42399781122E+03  0.30187204538E+03  0.66065742975E+03  0.84105239216E+03  0.10566000000E+00 0.  1.
         13    1    1    2    0    0 -0.98601518564E+02 -0.77126103895E+01  0.35733429540E+03  0.37076886824E+03  0.10566000000E+00 0. -1.
          4    1    1    2  501    0 -0.32539629266E+03 -0.29415943499E+03  0.84034293775E+03  0.94793922458E+03  0.00000000000E+00 0.  1.
</event>
<event>
 5    1  0.8445827E-005  0.2675550E+03  0.7818608E-02  0.1021677E+00
         21   -1    0    0  501  502  0.00000000000E+00  0.00000000000E+00  0.30883038003E+03  0.30883038003E+03  0.00000000000E+00 0. -1.
         -4   -1    0    0    0  501 -0.00000000000E+00 -0.00000000000E+00 -0.19740599879E+04  0.19740599879E+04  0.00000000000E+00 0. -1.
        -13    1    1    2    0    0  0.22671130681E+03  0.13072148541E+03 -0.10732786329E+04  0.11047231139E+04  0.10566000000E+00 0.  1.
         13    1    1    2    0    0 -0.41082759361E+03 -0.23272146269E+02  0.12511315185E+03  0.43008628948E+03  0.10566000000E+00 0. -1.
         -4    1    1    2    0  502  0.18411628680E+03 -0.10744933914E+03 -0.71706412680E+03  0.74808096453E+03  0.00000000000E+00 0. -1.
</event>
<event>
 5    1  0.8445827E-005  0.3385962E+03  0.7818608E-02  0.9925384E-01
         -4   -1    0    0    0  501 -0.00000000000E+00  0.00000000000E+00  0.12503583218E+04  0.12503583218E+04  0.00000000000E+00 0. -1.
         21   -1    0    0  501  502  0.00000000000E+00 -0.00000000000E+00 -0.37120396442E+03  0.37120396442E+03  0.00000000000E+00 0. -1.
        -13    1    1    2    0    0  0.30338747445E+03 -0.47120031790E+02  0.17468510384E+03  0.35324092871E+03  0.10566000000E+00 0.  1.
         13    1    1    2    0    0 -0.41893606335E+03  0.13309095717E+03 -0.10021697162E+03  0.45084817912E+03  0.10566000000E+00 0. -1.
         -4    1    1    2    0  502  0.11554858890E+03 -0.85970925376E+02  0.80468622520E+03  0.81747317842E+03  0.00000000000E+00 0. -1.
</event>
<event>
 5    1  0.8445827E-005  0.3881987E+02  0.7818608E-02  0.1383569E+00
         21   -1    0    0  501  502  0.00000000000E+00  0.00000000000E+00  0.16137522742E+03  0.16137522742E+03  0.00000000000E+00 0. -1.
          4   -1    0    0  502    0 -0.00000000000E+00 -0.00000000000E+00 -0.16784641708E+02  0.16784641708E+02  0.00000000000E+00 0.  1.
        -13    1    1    2    0    0 -0.46558178942E+02 -0.76909697503E+01  0.68623851872E+02  0.83283006981E+02  0.10566000000E+00 0.  1.
         13    1    1    2    0    0  0.18867972539E+02 -0.61437254644E+01  0.52220801102E+02  0.55863843245E+02  0.10566000000E+00 0. -1.
          4    1    1    2  501    0  0.27690206402E+02  0.13834695215E+02  0.23745932742E+02  0.39013018905E+02  0.00000000000E+00 0.  1.
</event>
<event>
 5    1  0.8445827E-005  0.4426125E+03  0.7818608E-02  0.9714131E-01
         21   -1    0    0  501  502  0.00000000000E+00  0.00000000000E+00  0.10622381185E+04  0.10622381185E+04  0.00000000000E+00 0. -1.
          4   -1    0    0  502    0 -0.00000000000E+00 -0.00000000000E+00 -0.61914707479E+03  0.61914707479E+03  0.00000000000E+00 0.  1.
        -13    1    1    2    0    0 -0.58303924661E+03  0.18866367202E+03 -0.25321963279E+03  0.66306028219E+03  0.10566000000E+00 0.  1.
         13    1    1    2    0    0  0.16656676979E+03 -0.26252393461E+03  0.21741891044E+03  0.37938674044E+03  0.10566000000E+00 0. -1.
          4    1    1    2  501    0  0.41647247682E+03  0.73860262594E+02  0.47889176607E+03  0.63893817068E+03  0.00000000000E+00 0.  1.
</event>
<event>
 5    1  0.8445827E-005  0.3928928E+02  0.7818608E-02  0.1342812E+00
         21   -1    0    0  501  502  0.00000000000E+00  0.00000000000E+00  0.11993660458E+02  0.11993660458E+02  0.00000000000E+00 0.  1.
         -4   -1    0    0    0  501 -0.00000000000E+00 -0.00000000000E+00 -0.30209629939E+03  0.30209629939E+03  0.00000000000E+00 0. -1.
        -13    1    1    2    0    0  0.36492056760E+02  0.42471892915E+01 -0.18746212902E+03  0.19102819113E+03  0.10566000000E+00 0.  1.
         13    1    1    2    0    0 -0.51527652563E+02  0.55253494926E+00 -0.71309523423E+02  0.87979904344E+02  0.10566000000E+00 0. -1.
         -4    1    1    2    0  502  0.15035595803E+02 -0.47997242408E+01 -0.31330986487E+02  0.35081864377E+02  0.00000000000E+00 0. -1.
</event>
<event>
 5    1  0.8445827E-005  0.3986396E+03  0.7818608E-02  0.9750777E-01
          4   -1    0    0  502    0 -0.00000000000E+00  0.00000000000E+00  0.15737968475E+04  0.15737968475E+04  0.00000000000E+00 0.  1.
         21   -1    0    0  501  502  0.00000000000E+00 -0.00000000000E+00 -0.36798063265E+03  0.36798063265E+03  0.00000000000E+00 0.  1.
        -13    1    1    2    0    0 -0.34543741558E+03  0.87000279179E+02  0.47512950397E+01  0.35625642819E+03  0.10566000000E+00 0.  1.
         13    1    1    2    0    0 -0.29076401235E+02  0.41004991680E+03  0.52150035407E+03  0.66403990982E+03  0.10566000000E+00 0. -1.
          4    1    1    2  501    0  0.37451381681E+03 -0.49705019598E+03  0.67956456574E+03  0.92148114214E+03  0.00000000000E+00 0.  1.
</event>
<event>
 5    1  0.8445827E-005  0.8866070E+02  0.7818608E-02  0.1184816E+00
          4   -1    0    0  502    0 -0.00000000000E+00  0.00000000000E+00  0.18620500034E+02  0.18620500034E+02  0.00000000000E+00 0.  1.
         21   -1    0    0  501  502  0.00000000000E+00 -0.00000000000E+00 -0.70055490453E+03  0.70055490453E+03  0.00000000000E+00 0. -1.
        -13    1    1    2    0    0 -0.18452181874E+02  0.86234114310E+02 -0.13746830143E+03  0.16332284148E+03  0.10566000000E+00 0.  1.
         13    1    1    2    0    0  0.28827874005E+02 -0.85505362442E+02 -0.36151817996E+03  0.37260920403E+03  0.10566000000E+00 0. -1.
          4    1    1    2  501    0 -0.10375692132E+02 -0.72875186803E+00 -0.18294792311E+03  0.18324335906E+03  0.00000000000E+00 0.  1.
</event>
<event>
 5    1  0.8445827E-005  0.1728741E+03  0.7818608E-02  0.1083880E+00
          4   -1    0    0  502    0 -0.00000000000E+00  0.00000000000E+00  0.98649709734E+03  0.98649709734E+03  0.00000000000E+00 0.  1.
         21   -1    0    0  501  502  0.00000000000E+00 -0.00000000000E+00 -0.18581566904E+03  0.18581566904E+03  0.00000000000E+00 0.  1.
        -13    1    1    2    0    0  0.15034991452E+03 -0.12447892045E+03  0.55167435796E+03  0.58518775348E+03  0.10566000000E+00 0.  1.
         13    1    1    2    0    0 -0.14843200371E+03 -0.52121274293E+02  0.34996275820E+03  0.38369601282E+03  0.10566000000E+00 0. -1.
          4    1    1    2  501    0 -0.19179108049E+01  0.17660019475E+03 -0.10095568785E+03  0.20342900009E+03  0.00000000000E+00 0.  1.
</event>
<event>
 5    1  0.8445827E-005  0.1087132E+03  0.7818608E-02  0.1150892E+00
         -4   -1    0    0    0  501 -0.00000000000E+00  0.00000000000E+00  0.40830568953E+03  0.40830568953E+03  0.00000000000E+00 0. -1.
         21   -1    0    0  501  502  0.00000000000E+00 -0.00000000000E+00 -0.14235561526E+03  0.14235561526E+03  0.00000000000E+00 0.  1.
        -13    1    1    2    0    0 -0.20553146567E+02  0.12129090254E+03 -0.58429337558E+02  0.13619072481E+03  0.10566000000E+00 0.  1.
         13    1    1    2    0    0  0.17053614407E+02 -0.10619681089E+03  0.35994765869E+03  0.37567394981E+03  0.10566000000E+00 0. -1.
         -4    1    1    2    0  502  0.34995321598E+01 -0.15094091641E+02 -0.35568246862E+02  0.38796630172E+02  0.00000000000E+00 0. -1.
</event>
<event>
 5    1  0.8445827E-005  0.4296761E+03  0.7818608E-02  0.9647057E-01
          4   -1    0    0  502    0 -0.00000000000E+00  0.00000000000E+00  0.22543760544E+04  0.22543760544E+04  0.00000000000E+00 0.  1.
         21   -1    0    0  501  502  0.00000000000E+00 -0.00000000000E+00 -0.41346552817E+03  0.41346552817E+03  0.00000000000E+00 0.  1.
        -13    1    1    2    0    0 -0.66437962988E+03 -0.45617425187E+01  0.40030174199E+03  0.77566912913E+03  0.10566000000E+00 0.  1.
         13    1    1    2    0    0  0.35500056605E+03  0.19486303584E+03  0.14728628394E+04  0.15275215087E+04  0.10566000000E+00 0. -1.
          4    1    1    2  501    0  0.30937906382E+03 -0.19030129332E+03 -0.32254055238E+02  0.36465094467E+03  0.00000000000E+00 0.  1.
</event>
<event>
 5    1  0.8445827E-005  0.4657510E+03  0.7818608E-02  0.9738812E-01
         21   -1    0    0  501  502  0.00000000000E+00  0.00000000000E+00  0.48204560962E+03  0.48204560962E+03  0.00000000000E+00 0.  1.
          4   -1    0    0  502    0 -0.00000000000E+00 -0.00000000000E+00 -0.87486056397E+03  0.87486056397E+03  0.00000000000E+00 0.  1.
        -13    1    1    2    0    0 -0.26997528863E+03  0.33490851175E+03  0.29672384027E+02  0.43119697269E+03  0.10566000000E+00 0.  1.
         13    1    1    2    0    0 -0.23804174339E+03 -0.57832059641E+02 -0.12123551935E+03  0.27332486355E+03  0.10566000000E+00 0. -1.
          4    1    1    2  501    0  0.50801703203E+03 -0.27707645211E+03 -0.30125181903E+03  0.65238433734E+03  0.00000000000E+00 0.  1.
</event>
<event>
 5    1  0.8445827E-005  0.2117522E+03  0.7818608E-02  0.1052365E+00
         21   -1    0    0  501  502  0.00000000000E+00  0.00000000000E+00  0.17048623699E+03  0.17048623699E+03  0.00000000000E+00 0.  1.
         -4   -1    0    0    0  501 -0.00000000000E+00 -0.00000000000E+00 -0.12005806329E+04  0.12005806329E+04  0.00000000000E+00 0. -1.
        -13    1    1    2    0    0 -0.18943978348E+03 -0.14483416397E+03 -0.15629958056E+03  0.28512091587E+03  0.10566000000E+00 0.  1.
         13    1    1    2    0    0  0.16933943539E+03  0.11943538504E+03 -0.96612549248E+03  0.98809874707E+03  0.10566000000E+00 0. -1.
         -4    1    1    2    0  502  0.20100348099E+02  0.25398778933E+02  0.92330677136E+02  0.97847206938E+02  0.00000000000E+00 0. -1.
</event>
<event>
 5    1  0.8445827E-005  0.1387754E+03  0.7818608E-02  0.1112742E+00
         -4   -1    0    0    0  501 -0.00000000000E+00  0.00000000000E+00  0.22234547871E+02  0.22234547871E+02  0.00000000000E+00 0. -1.
         21   -1    0    0  501  502  0.00000000000E+00 -0.00000000000E+00 -0.18164447146E+04  0.18164447146E+04  0.00000000000E+00 0. -1.
        -13    1    1    2    0    0 -0.13703422742E+03  0.67244957093E+02 -0.57393621651E+03  0.59388808334E+03  0.10566000000E+00 0.  1.
         13    1    1    2    0    0  0.10198711360E+03 -0.83044983898E+02 -0.35364151302E+03  0.37730646904E+03  0.10566000000E+00 0. -1.
         -4    1    1    2    0  502  0.35047113825E+02  0.15800026805E+02 -0.86663243715E+03  0.86748471004E+03  0.00000000000E+00 0. -1.
</event>
<event>
 5    1  0.8445827E-005  0.3002504E+03  0.7818608E-02  0.1020213E+00
         -4   -1    0    0    0  501 -0.00000000000E+00  0.00000000000E+00  0.23992836346E+04  0.23992836346E+04  0.00000000000E+00 0. -1.
         21   -1    0    0  501  502  0.00000000000E+00 -0.00000000000E+00 -0.17957915696E+03  0.17957915696E+03  0.00000000000E+00 0. -1.
        -13    1    1    2    0    0  0.18571682681E+03 -0.69345676383E+02  0.76792517857E+03  0.79310065795E+03  0.10566000000E+00 0.  1.
         13    1    1    2    0    0  0.13264036942E+03 -0.25322641133E+03  0.22955791242E+02  0.28678225627E+03  0.10566000000E+00 0. -1.
         -4    1    1    2    0  502 -0.31835719623E+03  0.32257208772E+03  0.14288235079E+04  0.14989798774E+04  0.00000000000E+00 0. -1.
</event>
<event>
 5    1  0.1189421E-004  0.3189565E+03  0.7818608E-02  0.1004628E+00
          4   -1    0    0  502    0 -0.00000000000E+00  0.00000000000E+00  0.19022305222E+04  0.19022305222E+04  0.00000000000E+00 0.  1.
         21   -1    0    0  501  502  0.00000000000E+00 -0.00000000000E+00 -0.26505242521E+03  0.26505242521E+03  0.00000000000E+00 0. -1.
        -13    1    1    2    0    0  0.28650255432E+03 -0.14969576816E+02  0.90788838073E+01  0.28703699963E+03  0.10566000000E+00 0.  1.
         13    1    1    2    0    0  0.80072218232E+02  0.33582634334E+03  0.27267986239E+03  0.43993773597E+03  0.10566000000E+00 0. -1.
          4    1    1    2  501    0 -0.36657477255E+03 -0.32085676653E+03  0.13554193508E+04  0.14403082118E+04  0.00000000000E+00 0.  1.
</event>
<event>
 5    1  0.8445827E-005  0.4636121E+03  0.7818608E-02  0.9561504E-01
          4   -1    0    0  502    0 -0.00000000000E+00  0.00000000000E+00  0.19466340787E+04  0.19466340787E+04  0.00000000000E+00 0.  1.
         21   -1    0    0  501  502  0.00000000000E+00 -0.00000000000E+00 -0.26040602118E+03  0.26040602118E+03  0.00000000000E+00 0.  1.
        -13    1    1    2    0    0  0.66315772625E+03  0.63193669919E+02  0.63623996542E+03  0.92118017487E+03  0.10566000000E+00 0.  1.
         13    1    1    2    0    0 -0.33358757923E+03 -0.97272634585E+02  0.27539187871E+03  0.44337719436E+03  0.10566000000E+00 0. -1.
          4    1    1    2  501    0 -0.32957014702E+03  0.34078964666E+02  0.77459621340E+03  0.84248273066E+03  0.00000000000E+00 0.  1.
</event>
<event>
 5    1  0.8445827E-005  0.3000191E+03  0.7818608E-02  0.1065826E+00
         -4   -1    0    0    0  501 -0.00000000000E+00  0.00000000000E+00  0.26641506466E+03  0.26641506466E+03  0.00000000000E+00 0. -1.
         21   -1    0    0  501  502  0.00000000000E+00 -0.00000000000E+00 -0.69001618460E+03  0.69001618460E+03  0.00000000000E+00 0. -1.
        -13    1    1    2    0    0 -0.28445056179E+02  0.41400378149E+02  0.21174990777E+02  0.54511502734E+02  0.10566000000E+00 0.  1.
         13    1    1    2    0    0  0.25069536791E+03  0.16178144144E+03  0.69147667246E+02  0.30627244952E+03  0.10566000000E+00 0. -1.
         -4    1    1    2    0  502 -0.22225031173E+03 -0.20318181959E+03 -0.51392377797E+03  0.59564729701E+03  0.00000000000E+00 0. -1.
</event>
<event>
 5    1  0.8445827E-005  0.4889554E+03  0.7818608E-02  0.9720916E-01
         21   -1    0    0  501  502  0.00000000000E+00  0.00000000000E+00  0.17706162645E+03  0.17706162645E+03  0.00000000000E+00 0. -1.
         -4   -1    0    0    0  501 -0.00000000000E+00 -0.00000000000E+00 -0.23174579920E+04  0.23174579920E+04  0.00000000000E+00 0. -1.
        -13    1    1    2    0    0 -0.22321623457E+03  0.30210097536E+02 -0.56772653052E+03  0.61077947084E+03  0.10566000000E+00 0.  1.
         13    1    1    2    0    0 -0.29208393102E+03  0.30267130996E+03 -0.57227276066E+03  0.71022466051E+03  0.10566000000E+00 0. -1.
         -4    1    1    2    0  502  0.51530016559E+03 -0.33288140749E+03 -0.10003970744E+04  0.11735154871E+04  0.00000000000E+00 0. -1.
</event>
<event>
 5    1  0.8445827E-005  0.1638516E+03  0.7818608E-02  0.1088200E+00
          4   -1    0    0  502    0 -0.00000000000E+00  0.00000000000E+00  0.81254515798E+03  0.81254515798E+03  0.00000000000E+00 0.  1.
         21   -1    0    0  501  502  0.00000000000E+00 -0.00000000000E+00 -0.42744884236E+02  0.42744884236E+02  0.00000000000E+00 0. -1.
        -13    1    1    2    0    0  0.10574537425E+03  0.12712215726E+03  0.45330071283E+03  0.48251805609E+03  0.10566000000E+00 0.  1.
         13    1    1    2    0    0 -0.11068863077E+03 -0.11833294114E+03  0.32258596902E+03  0.36099359622E+03  0.10566000000E+00 0. -1.
          4    1    1    2  501    0  0.49432565198E+01 -0.87892161226E+01 -0.60864081009E+01  0.11778389900E+02  0.00000000000E+00 0.  1.
</event>
<event>
 5    1  0.8445827E-005  0.3244186E+03  0.7818608E-02  0.1043484E+00
         -4   -1    0    0    0  501 -0.00000000000E+00  0.00000000000E+00  0.64921225438E+03  0.64921225438E+03  0.00000000000E+00 0. -1.
         21   -1    0    0  501  502  0.00000000000E+00 -0.00000000000E+00 -0.83306049885E+03  0.83306049885E+03  0.00000000000E+00 0.  1.
        -13    1    1    2    0    0  0.38272642783E+03  0.98747911616E+02  0.31701117497E+02  0.39652949527E+03  0.10566000000E+00 0.  1.
         13    1    1    2    0    0 -0.70219869851E+02 -0.11643938669E+02  0.39124579327E+03  0.39766781783E+03  0.10566000000E+00 0. -1.
         -4    1    1    2    0  502 -0.31250655798E+03 -0.87103972947E+02 -0.60679515524E+03  0.68807544012E+03  0.00000000000E+00 0. -1.
</event>
<event>
 5    1  0.8445827E-005  0.2787715E+02  0.7818608E-02  0.1422809E+00
         -4   -1    0    0    0  501 -0.00000000000E+00  0.00000000000E+00  0.10641803691E+03  0.10641803691E+03  0.00000000000E+00 0. -1.
         21   -1    0    0  501  502  0.00000000000E+00 -0.00000000000E+00 -0.73475113339E+02  0.73475113339E+02  0.00000000000E+00 0. -1.
        -13    1    1    2    0    0 -0.35242367917E+02 -0.19037430505E+02 -0.26056306792E+02  0.47784835924E+02  0.10566000000E+00 0.  1.
         13    1    1    2    0    0  0.22117263123E+02  0.15907434001E+02  0.92268681651E+02  0.96206759441E+02  0.10566000000E+00 0. -1.
         -4    1    1    2    0  502  0.13125104794E+02  0.31299965046E+01 -0.33269451289E+02  0.35901554883E+02  0.00000000000E+00 0. -1.
</event>
<event>
 5    1  0.8445827E-005  0.4609598E+03  0.7818608E-02  0.9567907E-01
         -4   -1    0    0    0  501 -0.00000000000E+00  0.00000000000E+00  0.21550430188E+04  0.21550430188E+04  0.00000000000E+00 0. -1.
         21   -1    0    0  501  502  0.00000000000E+00 -0.00000000000E+00 -0.22718301561E+03  0.22718301561E+03  0.00000000000E+00 0. -1.
        -13    1    1    2    0    0 -0.11641438014E+03  0.31951212728E+03  0.50019171620E+03  0.60484053394E+03  0.10566000000E+00 0.  1.
         13    1    1    2    0    0  0.32280386486E+03 -0.54995300635E+03  0.12895338427E+04  0.14385924326E+04  0.10566000000E+00 0. -1.
         -4    1    1    2    0  502 -0.20638948472E+03  0.23044087908E+03  0.13813444423E+03  0.33879306787E+03  0.00000000000E+00 0. -1.
</event>
<event>
 5    1  0.8445827E-005  0.2578932E+03  0.7818608E-02  0.1026382E+00
         -4   -1    0    0    0  501 -0.00000000000E+00  0.00000000000E+00  0.10903506788E+03  0.10903506788E+03  0.00000000000E+00 0. -1.
         21   -1    0    0  501  502  0.00000000000E+00 -0.00000000000E+00 -0.76910427956E+03  0.76910427956E+03  0.00000000000E+00 0.  1.
        -13    1    1    2    0    0 -0.17973545384E+02 -0.25131181300E+03 -0.48996320312E+03  0.55094884269E+03  0.10566000000E+00 0.  1.
         13    1    1    2    0    0  0.83929931225E+01  0.26032887098E+03 -0.14318444045E+03  0.29722610678E+03  0.10566000000E+00 0. -1.
         -4    1    1    2    0  502  0.95805522611E+01 -0.90170579773E+01 -0.26921568109E+02  0.29964397969E+02  0.00000000000E+00 0. -1.
</event>
<event>
 5    1  0.8445827E-005  0.1306112E+03  0.7818608E-02  0.1141322E+00
         -4   -1    0    0    0  501 -0.00000000000E+00  0.00000000000E+00  0.77955633532E+03  0.77955633532E+03  0.00000000000E+00 0. -1.
         21   -1    0    0  501  502  0.00000000000E+00 -0.00000000000E+00 -0.56150498912E+03  0.56150498912E+03  0.00000000000E+00 0. -1.
        -13    1    1    2    0    0 -0.77291652520E+02  0.19018917800E+02  0.32873533659E+03  0.33823461010E+03  0.10566000000E+00 0.  1.
         13    1    1    2    0    0 -0.99934318550E+02  0.82120116508E+02 -0.52515408554E+03  0.54084878319E+03  0.10566000000E+00 0. -1.
         -4    1    1    2    0  502  0.17722597107E+03 -0.10113903431E+03  0.41447009515E+03  0.46197793113E+03  0.00000000000E+00 0. -1.
</event>
<event>
 5    1  0.8445827E-005  0.1983263E+03  0.7818608E-02  0.1061289E+00
         21   -1    0    0  501  502  0.00000000000E+00  0.00000000000E+00  0.30881735946E+03  0.30881735946E+03  0.00000000000E+00 0. -1.
          4   -1    0    0  502    0 -0.00000000000E+00 -0.00000000000E+00 -0.34202300649E+03  0.34202300649E+03  0.00000000000E+00 0.  1.
        -13    1    1    2    0    0  0.26181592793E+02  0.19476497382E+03 -0.20649304880E+03  0.28505834700E+03  0.10566000000E+00 0.  1.
         13    1    1    2    0    0 -0.63247765568E+02 -0.19596605863E+03  0.18653288040E+02  0.20676298581E+03  0.10566000000E+00 0. -1.
          4    1    1    2  501    0  0.37066172775E+02  0.12010848100E+01  0.15463411373E+03  0.15901903313E+03  0.00000000000E+00 0.  1.
</event>
<event>
 5    1  0.8445827E-005  0.5561265E+03  0.7818608E-02  0.9575157E-01
         21   -1    0    0  501  502  0.00000000000E+00  0.00000000000E+00  0.25034410524E+03  0.25034410524E+03  0.00000000000E+00 0. -1.
         -4   -1    0    0    0  501 -0.00000000000E+00 -0.00000000000E+00 -0.20176248988E+04  0.20176248988E+04  0.00000000000E+00 0. -1.
        -13    1    1    2    0    0 -0.74490055731E+02 -0.24469070053E+03 -0.41309716908E+03  0.48587198890E+03  0.10566000000E+00 0.  1.
         13    1    1    2    0    0 -0.51231228495E+03  0.13971907731E+03 -0.84557856975E+03  0.99849307793E+03  0.10566000000E+00 0. -1.
         -4    1    1    2    0  502  0.58680234069E+03  0.10497162322E+03 -0.50860505469E+03  0.78360393719E+03  0.00000000000E+00 0. -1.
</event>
<event>
 5    1  0.8445827E-005  0.5426358E+03  0.7818608E-02  0.9553269E-01
         -4   -1    0    0    0  501 -0.00000000000E+00  0.00000000000E+00  0.23789551659E+04  0.23789551659E+04  0.00000000000E+00 0. -1.
         21   -1    0    0  501  502  0.00000000000E+00 -0.00000000000E+00 -0.28010621092E+03  0.28010621092E+03  0.00000000000E+00 0. -1.
        -13    1    1    2    0    0  0.15685073463E+03  0.25315061651E+03  0.24094974268E+03  0.38307202620E+03  0.10566000000E+00 0.  1.
         13    1    1    2    0    0  0.31211927009E+03 -0.52190637962E+03  0.15235192416E+04  0.16404010481E+04  0.10566000000E+00 0. -1.
         -4    1    1    2    0  502 -0.46897000472E+03  0.26875576311E+03  0.33437997073E+03  0.63558830257E+03  0.00000000000E+00 0. -1.
</event>
<event>
 5    1  0.8445827E-005  0.4076902E+03  0.7818608E-02  0.9912651E-01
         21   -1    0    0  501  502  0.00000000000E+00  0.00000000000E+00  0.12468877150E+04  0.12468877150E+04  0.00000000000E+00 0. -1.
         -4   -1    0    0    0  501 -0.00000000000E+00 -0.00000000000E+00 -0.29999064585E+03  0.29999064585E+03  0.00000000000E+00 0. -1.
        -13    1    1    2    0    0  0.10054954305E+03 -0.17563294543E+03 -0.35723834543E+01  0.20241026460E+03  0.10566000000E+00 0.  1.
         13    1    1    2    0    0 -0.45596011355E+03 -0.13629698748E+02  0.21127169562E+03  0.50271376983E+03  0.10566000000E+00 0. -1.
         -4    1    1    2    0  502  0.35541057050E+03  0.18926264418E+03  0.73919775698E+03  0.84175432641E+03  0.00000000000E+00 0. -1.
</event>
<event>
 5    1  0.8445827E-005  0.5562587E+03  0.7818608E-02  0.9362513E-01
         21   -1    0    0  501  502  0.00000000000E+00  0.00000000000E+00  0.29599424686E+03  0.29599424686E+03  0.00000000000E+00 0.  1.
         -4   -1    0    0    0  501 -0.00000000000E+00 -0.00000000000E+00 -0.17987154325E+04  0.17987154325E+04  0.00000000000E+00 0. -1.
        -13    1    1    2    0    0  0.44053317992E+03 -0.26235629738E+03 -0.68095666813E+03  0.85240970455E+03  0.10566000000E+00 0.  1.
         13    1    1    2    0    0 -0.52222848986E+03  0.29850648081E+03 -0.92649910918E+03  0.11046399075E+04  0.10566000000E+00 0. -1.
         -4    1    1    2    0  502  0.81695309943E+02 -0.36150183434E+02  0.10473459171E+03  0.13766006730E+03  0.00000000000E+00 0. -1.
</event>
<event>
 5    1  0.8445827E-005  0.4479237E+03  0.7818608E-02  0.9735357E-01
         -4   -1    0    0    0  501 -0.00000000000E+00  0.00000000000E+00  0.22719818705E+04  0.22719818705E+04  0.00000000000E+00 0. -1.
         21   -1    0    0  501  502  0.00000000000E+00 -0.00000000000E+00 -0.22750889873E+03  0.22750889873E+03  0.00000000000E+00 0. -1.
        -13    1    1    2    0    0 -0.27638585695E+03 -0.35874484797E+02  0.98418527426E+03  0.10228864970E+04  0.10566000000E+00 0.  1.
         13    1    1    2    0    0  0.36378120869E+02  0.45616509903E+03  0.22197595339E+03  0.50860918227E+03  0.10566000000E+00 0. -1.
         -4    1    1    2    0  502  0.24000773608E+03 -0.42029061423E+03  0.83831174410E+03  0.96799508990E+03  0.00000000000E+00 0. -1.
</event>
<event>
 5    1  0.8445827E-005  0.1288060E+03  0.7818608E-02  0.1124121E+00
          4   -1    0    0  502    0 -0.00000000000E+00  0.00000000000E+00  0.18525643931E+04  0.18525643931E+04  0.00000000000E+00 0.  1.
         21   -1    0    0  501  502  0.00000000000E+00 -0.00000000000E+00 -0.23631834619E+03  0.23631834619E+03  0.00000000000E+00 0.  1.
        -13    1    1    2    0    0  0.85259595896E+02 -0.14288229110E+03 -0.19772893447E+03  0.25842076251E+03  0.10566000000E+00 0.  1.
         13    1    1    2    0    0  0.98503410152E+00  0.12838672694E+03  0.61268473650E+03  0.62599258737E+03  0.10566000000E+00 0. -1.
          4    1    1    2  501    0 -0.86244629998E+02  0.14495564167E+02  0.12012902449E+04  0.12044693895E+04  0.00000000000E+00 0.  1.
</event>
<event>
 5    1  0.8445827E-005  0.3167790E+03  0.7818608E-02  0.1000610E+00
          4   -1    0    0  502    0 -0.00000000000E+00  0.00000000000E+00  0.90467370478E+03  0.90467370478E+03  0.00000000000E+00 0.  1.
         21   -1    0    0  501  502  0.00000000000E+00 -0.00000000000E+00 -0.26212925779E+03  0.26212925779E+03  0.00000000000E+00 0. -1.
        -13    1    1    2    0    0  0.30516632813E+03 -0.91163956008E+02  0.75683491173E+03  0.82111902272E+03  0.10566000000E+00 0.  1.
         13    1    1    2    0    0 -0.29370940348E+03  0.85331868140E+02 -0.91040131252E+02  0.31911605737E+03  0.10566000000E+00 0. -1.
          4    1    1    2  501    0 -0.11456924653E+02  0.58320878682E+01 -0.23250333492E+02  0.26567882469E+02  0.00000000000E+00 0.  1.
</event>
<event>
 5    1  0.8445827E-005  0.5037410E+03  0.7818608E-02  0.9828708E-01
         21   -1    0    0  501  502  0.00000000000E+00  0.00000000000E+00  0.16070994275E+04  0.16070994275E+04  0.00000000000E+00 0. -1.
         -4   -1    0    0    0  501 -0.00000000000E+00 -0.00000000000E+00 -0.21475301924E+03  0.21475301924E+03  0.00000000000E+00 0. -1.
        -13    1    1    2    0    0 -0.13490527040E+03 -0.45296809738E+02  0.27775996681E+03  0.31209268380E+03  0.10566000000E+00 0.  1.
         13    1    1    2    0    0 -0.22399180888E+03 -0.38524144842E+03  0.37927894131E+03  0.58518016927E+03  0.10566000000E+00 0. -1.
         -4    1    1    2    0  502  0.35889707928E+03  0.43053825816E+03  0.73530750011E+03  0.92457959364E+03  0.00000000000E+00 0. -1.
</event>
<event>
 5    1  0.8445827E-005  0.3546594E+03  0.7818608E-02  0.1002230E+00
          4   -1    0    0  502    0 -0.00000000000E+00  0.00000000000E+00  0.19004658354E+04  0.19004658354E+04  0.00000000000E+00 0.  1.
         21   -1    0    0  501  502  0.00000000000E+00 -0.00000000000E+00 -0.25810266975E+03  0.25810266975E+03  0.00000000000E+00 0.  1.
        -13    1    1    2    0    0 -0.24594323024E+03 -0.28165562711E+03 -0.64632841064E+02  0.37946723191E+03  0.10566000000E+00 0.  1.
         13    1    1    2    0    0 -0.31341995897E+02  0.21178698809E+03  0.79528938676E+03  0.82360261588E+03  0.10566000000E+00 0. -1.
          4    1    1    2  501    0  0.27728522614E+03  0.69868639016E+02  0.91170661999E+03  0.95549865740E+03  0.00000000000E+00 0.  1.
</event>
<event>
 5    1  0.8445827E-005  0.6923433E+02  0.7818608E-02  0.1228751E+00
         -4   -1    0    0    0  501 -0.00000000000E+00  0.00000000000E+00  0.19497161611E+02  0.19497161611E+02  0.00000000000E+00 0. -1.
         21   -1    0    0  501  502  0.00000000000E+00 -0.00000000000E+00 -0.51566311015E+03  0.51566311015E+03  0.00000000000E+00 0.  1.
        -13    1    1    2    0    0  0.66362432885E+02 -0.33456705147E+02 -0.18719822198E+03  0.20141129336E+03  0.10566000000E+00 0.  1.
         13    1    1    2    0    0 -0.68404694242E+02  0.44741669963E+01 -0.91403816764E+02  0.11425361810E+03  0.10566000000E+00 0. -1.
         -4    1    1    2    0  502  0.20422613572E+01  0.28982538151E+02 -0.21756390980E+03  0.21949536031E+03  0.00000000000E+00 0. -1.
</event>
<event>
 5    1  0.8445827E-005  0.1540239E+02  0.7818608E-02  0.1586184E+00
          4   -1    0    0  502    0 -0.00000000000E+00  0.00000000000E+00  0.18789401986E+02  0.18789401986E+02  0.00000000000E+00 0.  1.
         21   -1    0    0  501  502  0.00000000000E+00 -0.00000000000E+00 -0.50998431371E+02  0.50998431371E+02  0.00000000000E+00 0. -1.
        -13    1    1    2    0    0 -0.10084779606E+02 -0.12022974146E+02  0.10447614494E+02  0.18852546239E+02  0.10566000000E+00 0.  1.
         13    1    1    2    0    0  0.17882777696E+00  0.16818631725E+02 -0.25119723521E+02  0.30230944846E+02  0.10566000000E+00 0. -1.
          4    1    1    2  501    0  0.99059518290E+01 -0.47956575787E+01 -0.17536920358E+02  0.20704342271E+02  0.00000000000E+00 0.  1.
</event>
<event>
 5    1  0.8445827E-005  0.2676909E+03  0.7818608E-02  0.1021612E+00
          4   -1    0    0  502    0 -0.00000000000E+00  0.00000000000E+00  0.68439828072E+03  0.68439828072E+03  0.00000000000E+00 0.  1.
         21   -1    0    0  501  502  0.00000000000E+00 -0.00000000000E+00 -0.51540731328E+03  0.51540731328E+03  0.00000000000E+00 0.  1.
        -13    1    1    2    0    0 -0.14195586611E+03  0.22072067297E+03  0.12528738995E+03  0.29080238074E+03  0.10566000000E+00 0.  1.
         13    1    1    2    0    0  0.15218347976E+03 -0.22321483799E+03  0.43797362967E+03  0.51459264167E+03  0.10566000000E+00 0. -1.
          4    1    1    2  501    0 -0.10227613657E+02  0.24941650295E+01 -0.39427005218E+03  0.39441057160E+03  0.00000000000E+00 0.  1.
</event>
<event>
 5    1  0.8445827E-005  0.5053128E+03  0.7818608E-02  0.9722920E-01
          4   -1    0    0  502    0 -0.00000000000E+00  0.00000000000E+00  0.16569845645E+04  0.16569845645E+04  0.00000000000E+00 0.  1.
         21   -1    0    0  501  502  0.00000000000E+00 -0.00000000000E+00 -0.30549687041E+03  0.30549687041E+03  0.00000000000E+00 0.  1.
        -13    1    1    2    0    0  0.32445364033E+03 -0.45366902264E+03  0.23389901674E+03  0.60480948076E+03  0.10566000000E+00 0.  1.
         13    1    1    2    0    0  0.55640283879E+02  0.19487633978E+03  0.72580880473E+03  0.75357220037E+03  0.10566000000E+00 0. -1.
          4    1    1    2  501    0 -0.38009392421E+03  0.25879268286E+03  0.39177987267E+03  0.60409975381E+03  0.00000000000E+00 0.  1.
</event>
<event>
 5    1  0.8445827E-005  0.1057778E+03  0.7818608E-02  0.1155334E+00
         21   -1    0    0  501  502  0.00000000000E+00  0.00000000000E+00  0.22212997637E+03  0.22212997637E+03  0.00000000000E+00 0.  1.
         -4   -1    0    0    0  501 -0.00000000000E+00 -0.00000000000E+00 -0.14281596564E+03  0.14281596564E+03  0.00000000000E+00 0. -1.
        -13    1    1    2    0    0 -0.48624004256E+02 -0.80908392991E+02  0.82790425294E+02  0.12555766616E+03  0.10566000000E+00 0.  1.
         13    1    1    2    0    0  0.55686447466E+02  0.93043037011E+02 -0.96593817283E+02  0.14521833172E+03  0.10566000000E+00 0. -1.
         -4    1    1    2    0  502 -0.70624432095E+01 -0.12134644020E+02  0.93117402716E+02  0.94169944134E+02  0.00000000000E+00 0. -1.
</event>
<event>
 5    1  0.8445827E-005  0.4373497E+02  0.7818608E-02  0.1319637E+00
         21   -1    0    0  501  502  0.00000000000E+00  0.00000000000E+00  0.15517529564E+02  0.15517529564E+02  0.00000000000E+00 0.  1.
          4   -1    0    0  502    0 -0.00000000000E+00 -0.00000000000E+00 -0.28091244343E+03  0.28091244343E+03  0.00000000000E+00 0.  1.
        -13    1    1    2    0    0  0.11793994263E+01  0.61215358329E+02 -0.16709232656E+03  0.17795664595E+03  0.10566000000E+00 0.  1.
         13    1    1    2    0    0  0.50032221476E+01 -0.32182963434E+02 -0.71124746623E+02  0.78227336101E+02  0.10566000000E+00 0. -1.
          4    1    1    2  501    0 -0.61826215739E+01 -0.29032394895E+02 -0.27177840684E+02  0.40245990945E+02  0.00000000000E+00 0.  1.
</event>
<event>
 5    1  0.8445827E-005  0.4292484E+03  0.7818608E-02  0.9959138E-01
         21   -1    0    0  501  502  0.00000000000E+00  0.00000000000E+00  0.15949802054E+03  0.15949802054E+03  0.00000000000E+00 0.  1.
          4   -1    0    0  502    0 -0.00000000000E+00 -0.00000000000E+00 -0.17995259880E+04  0.17995259880E+04  0.00000000000E+00 0.  1.
        -13    1    1    2    0    0 -0.44339911579E+03 -0.19710896638E+03 -0.48897040800E+03  0.68887356720E+03  0.10566000000E+00 0.  1.
         13    1    1    2    0    0  0.82297636859E+02  0.12371502972E+03 -0.50488442968E+03  0.52629517204E+03  0.10566000000E+00 0. -1.
          4    1    1    2  501    0  0.36110147894E+03  0.73393936653E+02 -0.64617312978E+03  0.74385526930E+03  0.00000000000E+00 0.  1.
</event>
<event>
 5    1  0.8445827E-005  0.4776991E+03  0.7818608E-02  0.9653631E-01
         21   -1    0    0  501  502  0.00000000000E+00  0.00000000000E+00  0.15704642386E+04  0.15704642386E+04  0.00000000000E+00 0.  1.
          4   -1    0    0  502    0 -0.00000000000E+00 -0.00000000000E+00 -0.56076322464E+03  0.56076322464E+03  0.00000000000E+00 0.  1.
        -13    1    1    2    0    0 -0.34667017790E+03  0.28181103777E+03  0.73392364615E+03  0.85920987121E+03  0.10566000000E+00 0.  1.
         13    1    1    2    0    0  0.14394360400E+03  0.26949747845E+03 -0.31505926730E+03  0.43887470319E+03  0.10566000000E+00 0. -1.
          4    1    1    2  501    0  0.20272657389E+03 -0.55130851622E+03  0.59083663511E+03  0.83314288883E+03  0.00000000000E+00 0.  1.
</event>
<event>
 5    1  0.8445827E-005  0.7367706E+03  0.7818608E-02  0.9071278E-01
         -4   -1    0    0    0  501 -0.00000000000E+00  0.00000000000E+00  0.25510104743E+04  0.25510104743E+04  0.00000000000E+00 0. -1.
         21   -1    0    0  501  502  0.00000000000E+00 -0.00000000000E+00 -0.36403983597E+03  0.36403983597E+03  0.00000000000E+00 0.  1.
        -13    1    1    2    0    0  0.44530731563E+03 -0.32792103999E+03  0.12285109139E+03  0.56650085229E+03  0.10566000000E+00 0.  1.
         13    1    1    2    0    0 -0.58814370087E+03  0.58247069771E+03  0.14899120444E+04  0.17044128132E+04  0.10566000000E+00 0. -1.
         -4    1    1    2    0  502  0.14283638524E+03 -0.25454965772E+03  0.57420750258E+03  0.64413664483E+03  0.00000000000E+00 0. -1.
</event>
<event>
 5    1  0.8445827E-005  0.4025877E+03  0.7818608E-02  0.9779870E-01
         21   -1    0    0  501  502  0.00000000000E+00  0.00000000000E+00  0.19298023095E+03  0.19298023095E+03  0.00000000000E+00 0.  1.
          4   -1    0    0  502    0 -0.00000000000E+00 -0.00000000000E+00 -0.25238217440E+04  0.25238217440E+04  0.00000000000E+00 0.  1.
        -13    1    1    2    0    0 -0.36103871108E+03  0.44661146519E+03 -0.15550968223E+04  0.16577505511E+04  0.10566000000E+00 0.  1.
         13    1    1    2    0    0  0.32141955882E+03 -0.71687777081E+02 -0.46870819363E+03  0.57283248172E+03  0.10566000000E+00 0. -1.
          4    1    1    2  501    0  0.39619152253E+02 -0.37492368810E+03 -0.30703649712E+03  0.48621894213E+03  0.00000000000E+00 0.  1.
</event>
<event>
 5    1  0.8445827E-005  0.4219590E+03  0.7818608E-02  0.1003106E+00
         21   -1    0    0  501  502  0.00000000000E+00  0.00000000000E+00  0.39640980212E+03  0.39640980212E+03  0.00000000000E+00 0.  1.
          4   -1    0    0  502    0 -0.00000000000E+00 -0.00000000000E+00 -0.94344425051E+03  0.94344425051E+03  0.00000000000E+00 0.  1.
        -13    1    1    2    0    0 -0.44349582096E+03 -0.13895312148E+02  0.17507806495E+03  0.47700520217E+03  0.10566000000E+00 0.  1.
         13    1    1    2    0    0  0.10092997933E+03  0.71249091247E+02 -0.21987931142E+03  0.25221065895E+03  0.10566000000E+00 0. -1.
          4    1    1    2  501    0  0.34256584162E+03 -0.57353779099E+02 -0.50223320192E+03  0.61063819152E+03  0.00000000000E+00 0.  1.
</event>
<event>
 5    1  0.8445827E-005  0.7312012E+02  0.7818608E-02  0.1218771E+00
          4   -1    0    0  502    0 -0.00000000000E+00  0.00000000000E+00  0.53061454191E+03  0.53061454191E+03  0.00000000000E+00 0.  1.
         21   -1    0    0  501  502  0.00000000000E+00 -0.00000000000E+00 -0.19583470721E+02  0.19583470721E+02  0.00000000000E+00 0. -1.
        -13    1    1    2    0    0 -0.75717960639E+02 -0.63430266384E+00  0.39761090851E+03  0.40475678825E+03  0.10566000000E+00 0.  1.
         13    1    1    2    0    0  0.66302085231E+02  0.92219206307E+01  0.11452067275E+03  0.13264993772E+03  0.10566000000E+00 0. -1.
          4    1    1    2  501    0  0.94158754075E+01 -0.85876179668E+01 -0.11005100726E+01  0.12791286661E+02  0.00000000000E+00 0.  1.
</event>
<event>
 5    1  0.8445827E-005  0.4974230E+03  0.7818608E-02  0.9668289E-01
         -4   -1    0    0    0  501 -0.00000000000E+00  0.00000000000E+00  0.21799350618E+04  0.21799350618E+04  0.00000000000E+00 0. -1.
         21   -1    0    0  501  502  0.00000000000E+00 -0.00000000000E+00 -0.19492204882E+03  0.19492204882E+03  0.00000000000E+00 0. -1.
        -13    1    1    2    0    0  0.12917281705E+03  0.22221521200E+03  0.56963480489E+03  0.62493922842E+03  0.10566000000E+00 0.  1.
         13    1    1    2    0    0 -0.45237109431E+03  0.19864671682E+03  0.76276266254E+03  0.90879426473E+03  0.10566000000E+00 0. -1.
         -4    1    1    2    0  502  0.32319827726E+03 -0.42086192882E+03  0.65261554551E+03  0.84112361743E+03  0.00000000000E+00 0. -1.
</event>
<event>
 5    1  0.8445827E-005  0.4412040E+03  0.7818608E-02  0.9814009E-01
         21   -1    0    0  501  502  0.00000000000E+00  0.00000000000E+00  0.33153691610E+03  0.33153691610E+03  0.00000000000E+00 0. -1.
         -4   -1    0    0    0  501 -0.00000000000E+00 -0.00000000000E+00 -0.13568524388E+04  0.13568524388E+04  0.00000000000E+00 0. -1.
        -13    1    1    2    0    0 -0.36787210063E+02 -0.21959364374E+03 -0.45717474319E+03  0.50851098727E+03  0.10566000000E+00 0.  1.
         13    1    1    2    0    0  0.44694659814E+03  0.11348045605E+03  0.12270004836E+02  0.46129127422E+03  0.10566000000E+00 0. -1.
         -4    1    1    2    0  502 -0.41015938808E+03  0.10611318769E+03 -0.58041078438E+03  0.71858709344E+03  0.00000000000E+00 0. -1.
</event>
<event>
 5    1  0.8445827E-005  0.1544308E+03  0.7818608E-02  0.1096822E+00
         21   -1    0    0  501  502  0.00000000000E+00  0.00000000000E+00  0.52338879717E+03  0.52338879717E+03  0.00000000000E+00 0.  1.
         -4   -1    0    0    0  501 -0.00000000000E+00 -0.00000000000E+00 -0.14164410173E+03  0.14164410173E+03  0.00000000000E+00 0. -1.
        -13    1    1    2    0    0  0.14957933968E+03  0.60222752513E+02  0.34907603337E+03  0.38451898135E+03  0.10566000000E+00 0.  1.
         13    1    1    2    0    0 -0.15514036290E+03  0.10339241799E+02 -0.57594106280E+02  0.16580869809E+03  0.10566000000E+00 0. -1.
         -4    1    1    2    0  502  0.55610232139E+01 -0.70561994312E+02  0.90262768350E+02  0.11470521946E+03  0.00000000000E+00 0. -1.
</event>
<event>
 5    1  0.8445827E-005  0.2090591E+02  0.7818608E-02  0.1497631E+00
          4   -1    0    0  502    0 -0.00000000000E+00  0.00000000000E+00  0.33425765345E+02  0.33425765345E+02  0.00000000000E+00 0.  1.
         21   -1    0    0  501  502  0.00000000000E+00 -0.00000000000E+00 -0.20760773379E+03  0.20760773379E+03  0.00000000000E+00 0.  1.
        -13    1    1    2    0    0 -0.57319408670E+01 -0.19874953782E+02  0.27212221212E+02  0.34181648311E+02  0.10566000000E+00 0.  1.
         13    1    1    2    0    0  0.19483355665E+02  0.25636565682E+02 -0.14353831403E+03  0.14710572187E+03  0.10566000000E+00 0. -1.
          4    1    1    2  501    0 -0.13751414798E+02 -0.57616119003E+01 -0.57855875626E+02  0.59746128955E+02  0.00000000000E+00 0.  1.
</event>
<event>
 5    1  0.8445827E-005  0.4831591E+03  0.7818608E-02  0.9713850E-01
         -4   -1    0    0    0  501 -0.00000000000E+00  0.00000000000E+00  0.11888581218E+04  0.11888581218E+04  0.00000000000E+00 0. -1.
         21   -1    0    0  501  502  0.00000000000E+00 -0.00000000000E+00 -0.38179618986E+03  0.38179618986E+03  0.00000000000E+00 0. -1.
        -13    1    1    2    0    0  0.14511545268E+03  0.19021790252E+03  0.38825892439E+03  0.45605520343E+03  0.10566000000E+00 0.  1.
         13    1    1    2    0    0  0.31246135375E+03  0.14241292940E+03  0.42812287536E+03  0.54881941258E+03  0.10566000000E+00 0. -1.
         -4    1    1    2    0  502 -0.45757680643E+03 -0.33263083192E+03 -0.93198677739E+01  0.56577969569E+03  0.00000000000E+00 0. -1.
</event>
<event>
 5    1  0.8445827E-005  0.7936862E+02  0.7818608E-02  0.1204091E+00
          4   -1    0    0  502    0 -0.00000000000E+00  0.00000000000E+00  0.42891708373E+02  0.42891708373E+02  0.00000000000E+00 0.  1.
         21   -1    0    0  501  502  0.00000000000E+00 -0.00000000000E+00 -0.76878792735E+03  0.76878792735E+03  0.00000000000E+00 0.  1.
        -13    1    1    2    0    0 -0.16991424499E+02  0.77624213691E+02 -0.11589586901E+02  0.80302906213E+02  0.10566000000E+00 0.  1.
         13    1    1    2    0    0  0.30777397699E+02 -0.73859089805E+02 -0.18122196874E+03  0.19810054638E+03  0.10566000000E+00 0. -1.
          4    1    1    2  501    0 -0.13785973200E+02 -0.37651238864E+01 -0.53308466333E+03  0.53327618313E+03  0.00000000000E+00 0.  1.
</event>
<event>
 5    1  0.8445827E-005  0.8442938E+02  0.7818608E-02  0.1193254E+00
          4   -1    0    0  502    0 -0.00000000000E+00  0.00000000000E+00  0.28046249602E+02  0.28046249602E+02  0.00000000000E+00 0.  1.
         21   -1    0    0  501  502  0.00000000000E+00 -0.00000000000E+00 -0.82974312888E+03  0.82974312888E+03  0.00000000000E+00 0.  1.
        -13    1    1    2    0    0 -0.83078451355E+02 -0.22183387517E+02 -0.49537257714E+02  0.99237507159E+02  0.10566000000E+00 0.  1.
         13    1    1    2    0    0  0.71306134674E+02  0.23103554801E+02 -0.45300774424E+03  0.45916703561E+03  0.10566000000E+00 0. -1.
          4    1    1    2  501    0  0.11772316681E+02 -0.92016728362E+00 -0.29915187732E+03  0.29938483571E+03  0.00000000000E+00 0.  1.
</event>
<event>
 5    1  0.8445827E-005  0.5161680E+03  0.7818608E-02  0.9443222E-01
          4   -1    0    0  502    0 -0.00000000000E+00  0.00000000000E+00  0.13631939151E+04  0.13631939151E+04  0.00000000000E+00 0.  1.
         21   -1    0    0  501  502  0.00000000000E+00 -0.00000000000E+00 -0.60990116175E+03  0.60990116175E+03  0.00000000000E+00 0. -1.
        -13    1    1    2    0    0 -0.51880717750E+03  0.59900142867E+02  0.90696176069E+03  0.10465794576E+04  0.10566000000E+00 0.  1.
         13    1    1    2    0    0  0.42928054895E+03 -0.37998297131E+03 -0.37841735812E+02  0.57454404212E+03  0.10566000000E+00 0. -1.
          4    1    1    2  501    0  0.89526628550E+02  0.32008282845E+03 -0.11582727153E+03  0.35197157714E+03  0.00000000000E+00 0.  1.
</event>
<event>
 5    1  0.8445827E-005  0.4183924E+03  0.7818608E-02  0.9677380E-01
          4   -1    0    0  502    0 -0.00000000000E+00  0.00000000000E+00  0.51500576931E+03  0.51500576931E+03  0.00000000000E+00 0.  1.
         21   -1    0    0  501  502  0.00000000000E+00 -0.00000000000E+00 -0.96132405169E+03  0.96132405169E+03  0.00000000000E+00 0.  1.
        -13    1    1    2    0    0 -0.24315053732E+03  0.45512675013E+03  0.13214280636E+03  0.53265774652E+03  0.10566000000E+00 0.  1.
         13    1    1    2    0    0  0.30376394103E+03 -0.17224401510E+03 -0.66283083291E+02  0.35543493203E+03  0.10566000000E+00 0. -1.
          4    1    1    2  501    0 -0.60613403710E+02 -0.28288273503E+03 -0.51217800546E+03  0.58823714246E+03  0.00000000000E+00 0.  1.
</event>
<event>
 5    1  0.8445827E-005  0.4726719E+03  0.7818608E-02  0.9652248E-01
         21   -1    0    0  501  502  0.00000000000E+00  0.00000000000E+00  0.35659799062E+03  0.35659799062E+03  0.00000000000E+00 0.  1.
          4   -1    0    0  502    0 -0.00000000000E+00 -0.00000000000E+00 -0.16024613428E+04  0.16024613428E+04  0.00000000000E+00 0.  1.
        -13    1    1    2    0    0  0.26451312273E+03  0.62426669222E+03 -0.49862289442E+03  0.84160614133E+03  0.10566000000E+00 0.  1.
         13    1    1    2    0    0 -0.21821503128E+03 -0.22982823550E+03 -0.62693361981E+03  0.70248458525E+03  0.10566000000E+00 0. -1.
          4    1    1    2  501    0 -0.46298091455E+02 -0.39443845672E+03 -0.12030683796E+03  0.41496860685E+03  0.00000000000E+00 0.  1.
</event>
<event>
 5    1  0.8445827E-005  0.3162296E+03  0.7818608E-02  0.1000822E+00
          4   -1    0    0  502    0 -0.00000000000E+00  0.00000000000E+00  0.62036673050E+03  0.62036673050E+03  0.00000000000E+00 0.  1.
         21   -1    0    0  501  502  0.00000000000E+00 -0.00000000000E+00 -0.25499148264E+03  0.25499148264E+03  0.00000000000E+00 0. -1.
        -13    1    1    2    0    0  0.13941450169E+03 -0.24663128682E+03  0.31701575197E+02  0.28507612309E+03  0.10566000000E+00 0.  1.
         13    1    1    2    0    0 -0.19762405715E+03  0.26807617894E+03  0.38550460484E+03  0.50944471457E+03  0.10566000000E+00 0. -1.
          4    1    1    2  501    0  0.58209555460E+02 -0.21444892120E+02 -0.51830932183E+02  0.80837375488E+02  0.00000000000E+00 0.  1.
</event>
<event>
 5    1  0.8445827E-005  0.4976996E+03  0.7818608E-02  0.1000142E+00
         -4   -1    0    0    0  501 -0.00000000000E+00  0.00000000000E+00  0.19105309409E+04  0.19105309409E+04  0.00000000000E+00 0. -1.
         21   -1    0    0  501  502  0.00000000000E+00 -0.00000000000E+00 -0.15383453799E+03  0.15383453799E+03  0.00000000000E+00 0. -1.
        -13    1    1    2    0    0 -0.81235561105E+02 -0.16739288530E+02  0.11205055230E+03  0.13940859946E+03  0.10566000000E+00 0.  1.
         13    1    1    2    0    0  0.73228421353E+02  0.50439821561E+03  0.76724960720E+03  0.92111450565E+03  0.10566000000E+00 0. -1.
         -4    1    1    2    0  502  0.80071397522E+01 -0.48765892708E+03  0.87739624341E+03  0.10038423738E+04  0.00000000000E+00 0. -1.
</event>
<event>
 5    1  0.8445827E-005  0.1383146E+03  0.7818608E-02  0.1113245E+00
         -4   -1    0    0    0  501 -0.00000000000E+00  0.00000000000E+00  0.44986508599E+03  0.44986508599E+03  0.00000000000E+00 0. -1.
         21   -1    0    0  501  502  0.00000000000E+00 -0.00000000000E+00 -0.19066115102E+03  0.19066115102E+03  0.00000000000E+00 0.  1.
        -13    1    1    2    0    0 -0.15096081153E+03 -0.10492152978E+03  0.36184438449E+02  0.18736867075E+03  0.10566000000E+00 0.  1.
         13    1    1    2    0    0  0.98514830806E+02  0.85868592837E+02  0.31754830747E+03  0.34338830188E+03  0.10566000000E+00 0. -1.
         -4    1    1    2    0  502  0.52445980723E+02  0.19052936946E+02 -0.94528810957E+02  0.10976926437E+03  0.00000000000E+00 0. -1.
</event>
<event>
 5    1  0.8445827E-005  0.2863499E+03  0.7818608E-02  0.1013104E+00
         21   -1    0    0  501  502  0.00000000000E+00  0.00000000000E+00  0.11455301451E+04  0.11455301451E+04  0.00000000000E+00 0.  1.
         -4   -1    0    0    0  501 -0.00000000000E+00 -0.00000000000E+00 -0.57155024037E+03  0.57155024037E+03  0.00000000000E+00 0. -1.
        -13    1    1    2    0    0 -0.20104601152E+03 -0.41406921548E+03 -0.38682727521E+02  0.46191901728E+03  0.10566000000E+00 0.  1.
         13    1    1    2    0    0 -0.22358845403E+02  0.25277995928E+03 -0.24596358829E+03  0.35340589088E+03  0.10566000000E+00 0. -1.
         -4    1    1    2    0  502  0.22340485692E+03  0.16128925620E+03  0.85862622058E+03  0.90175547735E+03  0.00000000000E+00 0. -1.
</event>
<event>
 5    1  0.8445827E-005  0.4459947E+03  0.7818608E-02  0.9702006E-01
         21   -1    0    0  501  502  0.00000000000E+00  0.00000000000E+00  0.66743793651E+03  0.66743793651E+03  0.00000000000E+00 0.  1.
          4   -1    0    0  502    0 -0.00000000000E+00 -0.00000000000E+00 -0.12040671132E+04  0.12040671132E+04  0.00000000000E+00 0.  1.
        -13    1    1    2    0    0 -0.30919905256E+03 -0.22506275228E+03  0.27296204330E+03  0.46985698337E+03  0.10566000000E+00 0.  1.
         13    1    1    2    0    0  0.38678024850E+03 -0.36094024711E+03 -0.52599909905E+03  0.74602405188E+03  0.10566000000E+00 0. -1.
          4    1    1    2  501    0 -0.77581195943E+02  0.58600299939E+03 -0.28359212089E+03  0.65562401442E+03  0.00000000000E+00 0.  1.
</event>
<event>
 5    1  0.8445827E-005  0.3703286E+03  0.7818608E-02  0.9899811E-01
         -4   -1    0    0    0  501 -0.00000000000E+00  0.00000000000E+00  0.10957651499E+04  0.10957651499E+04  0.00000000000E+00 0. -1.
         21   -1    0    0  501  502  0.00000000000E+00 -0.00000000000E+00 -0.40938868250E+03  0.40938868250E+03  0.00000000000E+00 0.  1.
        -13    1    1    2    0    0 -0.47908607445E+02 -0.27775341346E+03  0.60875344706E+02  0.28835397017E+03  0.10566000000E+00 0.  1.
         13    1    1    2    0    0  0.14773854754E+03 -0.29784295688E+03 -0.35829961307E+02  0.33439632576E+03  0.10566000000E+00 0. -1.
         -4    1    1    2    0  502 -0.99829940097E+02  0.57559637034E+03  0.66133108400E+03  0.88240353646E+03  0.00000000000E+00 0. -1.
</event>
<event>
 5    1  0.8445827E-005  0.9334461E+02  0.7818608E-02  0.1176063E+00
         -4   -1    0    0    0  501 -0.00000000000E+00  0.00000000000E+00  0.39205428087E+02  0.39205428087E+02  0.00000000000E+00 0. -1.
         21   -1    0    0  501  502  0.00000000000E+00 -0.00000000000E+00 -0.83662617754E+03  0.83662617754E+03  0.00000000000E+00 0. -1.
        -13    1    1    2    0    0  0.17942659253E+02 -0.99580175342E+02 -0.16775409448E+03  0.19590711503E+03  0.10566000000E+00 0.  1.
         13    1    1    2    0    0 -0.19559396380E+02  0.87741359719E+02 -0.55529303557E+02  0.10566281706E+03  0.10566000000E+00 0. -1.
         -4    1    1    2    0  502  0.16167371266E+01  0.11838815623E+02 -0.57413735142E+03  0.57426167354E+03  0.00000000000E+00 0. -1.
</event>
<event>
 5    1  0.8445827E-005  0.5378133E+02  0.7818608E-02  0.1277115E+00
         -4   -1    0    0    0  501 -0.00000000000E+00  0.00000000000E+00  0.25617732877E+03  0.25617732877E+03  0.00000000000E+00 0. -1.
         21   -1    0    0  501  502  0.00000000000E+00 -0.00000000000E+00 -0.85856855208E+02  0.85856855208E+02  0.00000000000E+00 0. -1.
        -13    1    1    2    0    0 -0.20963574728E+02 -0.60137826192E+02  0.64240873477E+02  0.90459552251E+02  0.10566000000E+00 0.  1.
         13    1    1    2    0    0  0.39007870792E+02  0.35214183594E+02  0.17145079294E+03  0.17932383632E+03  0.10566000000E+00 0. -1.
         -4    1    1    2    0  502 -0.18044296064E+02  0.24923642598E+02 -0.65371192857E+02  0.72250795402E+02  0.00000000000E+00 0. -1.
</event>
<event>
 5    1  0.8445827E-005  0.5023567E+03  0.7818608E-02  0.9652734E-01
         21   -1    0    0  501  502  0.00000000000E+00  0.00000000000E+00  0.14745537245E+04  0.14745537245E+04  0.00000000000E+00 0.  1.
          4   -1    0    0  502    0 -0.00000000000E+00 -0.00000000000E+00 -0.45942305051E+03  0.45942305051E+03  0.00000000000E+00 0.  1.
        -13    1    1    2    0    0  0.30953963234E+03  0.26863948610E+03  0.35837313468E+03  0.54443849268E+03  0.10566000000E+00 0.  1.
         13    1    1    2    0    0  0.26052401028E+03 -0.39772193264E+02 -0.20315049276E+03  0.33275324365E+03  0.10566000000E+00 0. -1.
          4    1    1    2  501    0 -0.57006364262E+03 -0.22886729283E+03  0.85990803203E+03  0.10567850386E+04  0.00000000000E+00 0.  1.
</event>
<event>
 5    1  0.8445827E-005  0.6276880E+03  0.7818608E-02  0.9235045E-01
         21   -1    0    0  501  502  0.00000000000E+00  0.00000000000E+00  0.98779273953E+03  0.98779273953E+03  0.00000000000E+00 0.  1.
          4   -1    0    0  502    0 -0.00000000000E+00 -0.00000000000E+00 -0.21181581857E+04  0.21181581857E+04  0.00000000000E+00 0.  1.
        -13    1    1    2    0    0  0.43002348569E+03 -0.58076522854E+03  0.16105866542E+02  0.72281938202E+03  0.10566000000E+00 0.  1.
         13    1    1    2    0    0 -0.49593929898E+03  0.36803178518E+03 -0.16880893112E+04  0.17975118127E+04  0.10566000000E+00 0. -1.
          4    1    1    2  501    0  0.65915813285E+02  0.21273344336E+03  0.54161799852E+03  0.58561973044E+03  0.00000000000E+00 0.  1.
</event>
<event>
 5    1  0.8445827E-005  0.4012021E+03  0.7818608E-02  0.9725581E-01
         21   -1    0    0  501  502  0.00000000000E+00  0.00000000000E+00  0.20630489605E+03  0.20630489605E+03  0.00000000000E+00 0.  1.
         -4   -1    0    0    0  501 -0.00000000000E+00 -0.00000000000E+00 -0.21591613144E+04  0.21591613144E+04  0.00000000000E+00 0. -1.
        -13    1    1    2    0    0  0.25707741987E+03 -0.31386323160E+03 -0.14274646081E+04  0.14839993755E+04  0.10566000000E+00 0.  1.
         13    1    1    2    0    0 -0.24571563788E+03  0.30605038191E+03 -0.64826650775E+03  0.75782088069E+03  0.10566000000E+00 0. -1.
         -4    1    1    2    0  502 -0.11361781987E+02  0.78128496812E+01  0.12287469752E+03  0.12364595424E+03  0.00000000000E+00 0. -1.
</event>
<event>
 5    1  0.8445827E-005  0.1311156E+03  0.7818608E-02  0.1169471E+00
         21   -1    0    0  501  502  0.00000000000E+00  0.00000000000E+00  0.21018756818E+03  0.21018756818E+03  0.00000000000E+00 0. -1.
         -4   -1    0    0    0  501 -0.00000000000E+00 -0.00000000000E+00 -0.16801602123E+04  0.16801602123E+04  0.00000000000E+00 0. -1.
        -13    1    1    2    0    0 -0.39373027611E+02  0.17829618043E+01  0.59626754788E+02  0.71475697315E+02  0.10566000000E+00 0.  1.
         13    1    1    2    0    0  0.92813750939E+02 -0.93352727576E+02  0.11261568521E+03  0.17323806692E+03  0.10566000000E+00 0. -1.
         -4    1    1    2    0  502 -0.53440723327E+02  0.91569765772E+02 -0.16422150841E+04  0.16456340163E+04  0.00000000000E+00 0. -1.
</event>
<event>
 5    1  0.8445827E-005  0.2225792E+02  0.7818608E-02  0.1480674E+00
         21   -1    0    0  501  502  0.00000000000E+00  0.00000000000E+00  0.74570254706E+02  0.74570254706E+02  0.00000000000E+00 0.  1.
         -4   -1    0    0    0  501 -0.00000000000E+00 -0.00000000000E+00 -0.11548355195E+03  0.11548355195E+03  0.00000000000E+00 0. -1.
        -13    1    1    2    0    0  0.22701236176E+02  0.18966909902E+02  0.45063488133E+02  0.53905648331E+02  0.10566000000E+00 0.  1.
         13    1    1    2    0    0 -0.10231183144E+02 -0.19636302401E+02 -0.10831566144E+03  0.11055566543E+03  0.10566000000E+00 0. -1.
         -4    1    1    2    0  502 -0.12470053033E+02  0.66939249947E+00  0.22338876064E+02  0.25592492898E+02  0.00000000000E+00 0. -1.
</event>
<event>
 5    1  0.8445827E-005  0.5010250E+03  0.7818608E-02  0.9541576E-01
         -4   -1    0    0    0  501 -0.00000000000E+00  0.00000000000E+00  0.24900218032E+04  0.24900218032E+04  0.00000000000E+00 0. -1.
         21   -1    0    0  501  502  0.00000000000E+00 -0.00000000000E+00 -0.24165817940E+03  0.24165817940E+03  0.00000000000E+00 0. -1.
        -13    1    1    2    0    0 -0.25285251712E+03  0.30293081553E+03  0.10328360742E+04  0.11056454412E+04  0.10566000000E+00 0.  1.
         13    1    1    2    0    0  0.60121767889E+03  0.23974873405E+02  0.65028946138E+03  0.88595365946E+03  0.10566000000E+00 0. -1.
         -4    1    1    2    0  502 -0.34836516177E+03 -0.32690568894E+03  0.56523808827E+03  0.74008088194E+03  0.00000000000E+00 0. -1.
</event>
<event>
 5    1  0.8445827E-005  0.1724004E+03  0.7818608E-02  0.1099911E+00
          4   -1    0    0  502    0 -0.00000000000E+00  0.00000000000E+00  0.22043828776E+04  0.22043828776E+04  0.00000000000E+00 0.  1.
         21   -1    0    0  501  502  0.00000000000E+00 -0.00000000000E+00 -0.16508783914E+03  0.16508783914E+03  0.00000000000E+00 0.  1.
        -13    1    1    2    0    0  0.15920642108E+03 -0.66460579131E+02 -0.10650696805E+03  0.20274969420E+03  0.10566000000E+00 0.  1.
         13    1    1    2    0    0 -0.43798909746E+02 -0.92185998694E+02  0.61727956263E+03  0.62566018929E+03  0.10566000000E+00 0. -1.
          4    1    1    2  501    0 -0.11540751133E+03  0.15864657782E+03  0.15285224439E+04  0.15410608333E+04  0.00000000000E+00 0.  1.
</event>
<event>
 5    1  0.8445827E-005  0.3839403E+03  0.7818608E-02  0.9828622E-01
          4   -1    0    0  502    0 -0.00000000000E+00  0.00000000000E+00  0.21566088843E+04  0.21566088843E+04  0.00000000000E+00 0.  1.
         21   -1    0    0  501  502  0.00000000000E+00 -0.00000000000E+00 -0.23684533061E+03  0.23684533061E+03  0.00000000000E+00 0.  1.
        -13    1    1    2    0    0  0.53921035365E+03 -0.35962614662E+03  0.10611278340E+04  0.12434110592E+04  0.10566000000E+00 0.  1.
         13    1    1    2    0    0 -0.25173325423E+03  0.19998481491E+03  0.72870259810E+03  0.79647413337E+03  0.10566000000E+00 0. -1.
          4    1    1    2  501    0 -0.28747709943E+03  0.15964133171E+03  0.12993312158E+03  0.35356902235E+03  0.00000000000E+00 0.  1.
</event>
<event>
 5    1  0.8445827E-005  0.3336108E+03  0.7818608E-02  0.9943245E-01
         -4   -1    0    0    0  501 -0.00000000000E+00  0.00000000000E+00  0.11368531005E+04  0.11368531005E+04  0.00000000000E+00 0. -1.
         21   -1    0    0  501  502  0.00000000000E+00 -0.00000000000E+00 -0.46959595768E+03  0.46959595768E+03  0.00000000000E+00 0.  1.
        -13    1    1    2    0    0 -0.87185269831E+02 -0.36467405097E+03  0.95271615281E+02  0.38686577332E+03  0.10566000000E+00 0.  1.
         13    1    1    2    0    0  0.27907948243E+03  0.19726337503E+03  0.80491665491E+03  0.87446499596E+03  0.10566000000E+00 0. -1.
         -4    1    1    2    0  502 -0.19189421260E+03  0.16741067593E+03 -0.23293112736E+03  0.34511828891E+03  0.00000000000E+00 0. -1.
</event>
<event>
 5    1  0.8445827E-005  0.1766619E+03  0.7818608E-02  0.1126123E+00
         21   -1    0    0  501  502  0.00000000000E+00  0.00000000000E+00  0.67755114762E+03  0.67755114762E+03  0.00000000000E+00 0.  1.
          4   -1    0    0  502    0 -0.00000000000E+00 -0.00000000000E+00 -0.11900196330E+03  0.11900196330E+03  0.00000000000E+00 0.  1.
        -13    1    1    2    0    0  0.14187947069E+03 -0.12925014023E+03 -0.37022910162E+01  0.19196119679E+03  0.10566000000E+00 0.  1.
         13    1    1    2    0    0  0.11832745232E+02  0.45900856151E+02  0.12273129040E+03  0.13156702954E+03  0.10566000000E+00 0. -1.
          4    1    1    2  501    0 -0.15371221592E+03  0.83349284075E+02  0.43952018493E+03  0.47302488459E+03  0.00000000000E+00 0.  1.
</event>
<event>
 5    1  0.8445827E-005  0.1700303E+03  0.7818608E-02  0.1082879E+00
          4   -1    0    0  502    0 -0.00000000000E+00  0.00000000000E+00  0.87754136429E+02  0.87754136429E+02  0.00000000000E+00 0.  1.
         21   -1    0    0  501  502  0.00000000000E+00 -0.00000000000E+00 -0.97936730236E+03  0.97936730236E+03  0.00000000000E+00 0.  1.
        -13    1    1    2    0    0 -0.15495916016E+03  0.15251720280E+03 -0.12410117656E+03  0.25034965879E+03  0.10566000000E+00 0.  1.
         13    1    1    2    0    0  0.69630047152E+02 -0.10284163745E+03 -0.16658126181E+03  0.20778371883E+03  0.10566000000E+00 0. -1.
          4    1    1    2  501    0  0.85329113008E+02 -0.49675565348E+02 -0.60093072756E+03  0.60898806117E+03  0.00000000000E+00 0.  1.
</event>
<event>
 5    1  0.8445827E-005  0.2672320E+03  0.7818608E-02  0.1104338E+00
          4   -1    0    0  502    0 -0.00000000000E+00  0.00000000000E+00  0.13285071986E+04  0.13285071986E+04  0.00000000000E+00 0.  1.
         21   -1    0    0  501  502  0.00000000000E+00 -0.00000000000E+00 -0.60047666182E+02  0.60047666182E+02  0.00000000000E+00 0.  1.
        -13    1    1    2    0    0 -0.11509977619E+03  0.23434197828E+03  0.69099206437E+03  0.73867053918E+03  0.10566000000E+00 0.  1.
         13    1    1    2    0    0  0.14957936983E+02  0.19172894968E+02  0.32937944938E+02  0.40942144069E+02  0.10566000000E+00 0. -1.
          4    1    1    2  501    0  0.10014183921E+03 -0.25351487325E+03  0.54452952315E+03  0.60894218157E+03  0.00000000000E+00 0.  1.
</event>
<event>
 5    1  0.8445827E-005  0.5275141E+02  0.7818608E-02  0.1280975E+00
         21   -1    0    0  501  502  0.00000000000E+00  0.00000000000E+00  0.36880646972E+02  0.36880646972E+02  0.00000000000E+00 0.  1.
         -4   -1    0    0    0  501 -0.00000000000E+00 -0.00000000000E+00 -0.26029198467E+03  0.26029198467E+03  0.00000000000E+00 0. -1.
        -13    1    1    2    0    0  0.41716240655E+02 -0.13286197208E+02  0.46621582825E+01  0.44028566346E+02  0.10566000000E+00 0.  1.
         13    1    1    2    0    0 -0.52642737519E+02  0.11572573905E+02 -0.23432181100E+03  0.24044106254E+03  0.10566000000E+00 0. -1.
         -4    1    1    2    0  502  0.10926496864E+02  0.17136233035E+01  0.62483150169E+01  0.12703002759E+02  0.00000000000E+00 0. -1.
</event>
<event>
 5    1  0.8445827E-005  0.4951267E+03  0.7818608E-02  0.9513383E-01
         21   -1    0    0  501  502  0.00000000000E+00  0.00000000000E+00  0.45937544048E+03  0.45937544048E+03  0.00000000000E+00 0. -1.
          4   -1    0    0  502    0 -0.00000000000E+00 -0.00000000000E+00 -0.15165963727E+04  0.15165963727E+04  0.00000000000E+00 0.  1.
        -13    1    1    2    0    0  0.36726141796E+03 -0.37046688014E+03 -0.68483677229E+03  0.86088795685E+03  0.10566000000E+00 0.  1.
         13    1    1    2    0    0 -0.41390134783E+03 -0.18335125568E+03 -0.12316998734E+02  0.45286170993E+03  0.10566000000E+00 0. -1.
          4    1    1    2  501    0  0.46639929871E+02  0.55381813581E+03 -0.36006716118E+03  0.66222214639E+03  0.00000000000E+00 0.  1.
</event>
<event>
 5    1  0.8445827E-005  0.4440874E+03  0.7818608E-02  0.9845975E-01
         21   -1    0    0  501  502  0.00000000000E+00  0.00000000000E+00  0.22167469371E+03  0.22167469371E+03  0.00000000000E+00 0. -1.
         -4   -1    0    0    0  501 -0.00000000000E+00 -0.00000000000E+00 -0.22938418015E+04  0.22938418015E+04  0.00000000000E+00 0. -1.
        -13    1    1    2    0    0 -0.74708411799E+02 -0.18109493528E+03 -0.99243549849E+03  0.10115853657E+04  0.10566000000E+00 0.  1.
         13    1    1    2    0    0  0.31386176729E+03 -0.22549242343E+03 -0.93308861179E+03  0.10099556478E+04  0.10566000000E+00 0. -1.
         -4    1    1    2    0  502 -0.23915335549E+03  0.40658735871E+03 -0.14664299750E+03  0.49397548160E+03  0.00000000000E+00 0. -1.
</event>
<event>
 5    1  0.8445827E-005  0.3635465E+02  0.7818608E-02  0.1360114E+00
          4   -1    0    0  502    0 -0.00000000000E+00  0.00000000000E+00  0.29779537667E+02  0.29779537667E+02  0.00000000000E+00 0.  1.
         21   -1    0    0  501  502  0.00000000000E+00 -0.00000000000E+00 -0.17719592736E+03  0.17719592736E+03  0.00000000000E+00 0. -1.
        -13    1    1    2    0    0  0.34133545780E+02  0.12621257259E+02  0.10804532996E+02  0.37962404819E+02  0.10566000000E+00 0.  1.
         13    1    1    2    0    0 -0.26747073021E+02 -0.30015581501E+02 -0.99075375282E+02  0.10692185090E+03  0.10566000000E+00 0. -1.
          4    1    1    2  501    0 -0.73864727594E+01  0.17394324243E+02 -0.59145547403E+02  0.62091209308E+02  0.00000000000E+00 0.  1.
</event>
<event>
 5    1  0.8445827E-005  0.4222434E+03  0.7818608E-02  0.9730940E-01
         -4   -1    0    0    0  501 -0.00000000000E+00  0.00000000000E+00  0.34337176140E+04  0.34337176140E+04  0.00000000000E+00 0. -1.
         21   -1    0    0  501  502  0.00000000000E+00 -0.00000000000E+00 -0.12998868376E+03  0.12998868376E+03  0.00000000000E+00 0.  1.
        -13    1    1    2    0    0 -0.57496344959E+02 -0.33290545403E+03  0.74964454106E+03  0.82225228495E+03  0.10566000000E+00 0.  1.
         13    1    1    2    0    0  0.38814769857E+03  0.47926242579E+03  0.18475418725E+04  0.19477582218E+04  0.10566000000E+00 0. -1.
         -4    1    1    2    0  502 -0.33065135361E+03 -0.14635697176E+03  0.70654251670E+03  0.79369579105E+03  0.00000000000E+00 0. -1.
</event>
<event>
 5    1  0.8445827E-005  0.4859920E+03  0.7818608E-02  0.9943144E-01
         -4   -1    0    0    0  501 -0.00000000000E+00  0.00000000000E+00  0.12996794486E+04  0.12996794486E+04  0.00000000000E+00 0. -1.
         21   -1    0    0  501  502  0.00000000000E+00 -0.00000000000E+00 -0.24185414842E+03  0.24185414842E+03  0.00000000000E+00 0. -1.
        -13    1    1    2    0    0 -0.11508646268E+02 -0.10733354475E+03  0.16987761663E+03  0.20127432664E+03  0.10566000000E+00 0.  1.
         13    1    1    2    0    0  0.25556936037E+03  0.45755531055E+03  0.27095162533E+03  0.58998928347E+03  0.10566000000E+00 0. -1.
         -4    1    1    2    0  502 -0.24406071410E+03 -0.35022176580E+03  0.61699605823E+03  0.75026998692E+03  0.00000000000E+00 0. -1.
</event>
<event>
 5    1  0.8445827E-005  0.1264511E+03  0.7818608E-02  0.1126973E+00
         -4   -1    0    0    0  501 -0.00000000000E+00  0.00000000000E+00  0.62421353810E+03  0.62421353810E+03  0.00000000000E+00 0. -1.
         21   -1    0    0  501  502  0.00000000000E+00 -0.00000000000E+00 -0.40202989194E+02  0.40202989194E+02  0.00000000000E+00 0.  1.
        -13    1    1    2    0    0 -0.11062557872E+03 -0.77625110852E+02  0.14767523203E+03  0.20017907438E+03  0.10566000000E+00 0.  1.
         13    1    1    2    0    0  0.10074463514E+03  0.71612578911E+02  0.43543229883E+03  0.45263577079E+03  0.10566000000E+00 0. -1.
         -4    1    1    2    0  502  0.98809435805E+01  0.60125319406E+01  0.90301803814E+00  0.11601682118E+02  0.00000000000E+00 0. -1.
</event>
<event>
 5    1  0.8445827E-005  0.7741339E+02  0.7818608E-02  0.1208519E+00
         21   -1    0    0  501  502  0.00000000000E+00  0.00000000000E+00  0.84535347129E+02  0.84535347129E+02  0.00000000000E+00 0.  1.
          4   -1    0    0  502    0 -0.00000000000E+00 -0.00000000000E+00 -0.19120623203E+03  0.19120623203E+03  0.00000000000E+00 0.  1.
        -13    1    1    2    0    0 -0.28328047167E+02  0.55756832122E+02 -0.31247463536E+02  0.69912214426E+02  0.10566000000E+00 0.  1.
         13    1    1    2    0    0  0.69850920816E+02 -0.60442109655E+02 -0.11552498225E+03  0.14791359791E+03  0.10566000000E+00 0. -1.
          4    1    1    2  501    0 -0.41522873650E+02  0.46852775334E+01  0.40101560883E+02  0.57915766825E+02  0.00000000000E+00 0.  1.
</event>
<event>
 5    1  0.8445827E-005  0.5602547E+03  0.7818608E-02  0.9354859E-01
          4   -1    0    0  502    0 -0.00000000000E+00  0.00000000000E+00  0.43299381253E+03  0.43299381253E+03  0.00000000000E+00 0.  1.
         21   -1    0    0  501  502  0.00000000000E+00 -0.00000000000E+00 -0.15383604262E+04  0.15383604262E+04  0.00000000000E+00 0.  1.
        -13    1    1    2    0    0  0.54420105976E+03 -0.30588518157E+03 -0.11433907997E+03  0.63466051880E+03  0.10566000000E+00 0.  1.
         13    1    1    2    0    0 -0.33095820151E+03  0.38438445378E+03 -0.25764804125E+03  0.56891762478E+03  0.10566000000E+00 0. -1.
          4    1    1    2  501    0 -0.21324285825E+03 -0.78499272214E+02 -0.73337949250E+03  0.76777609519E+03  0.00000000000E+00 0.  1.
</event>
<event>
 5    1  0.8445827E-005  0.4651649E+03  0.7818608E-02  0.9688430E-01
          4   -1    0    0  502    0 -0.00000000000E+00  0.00000000000E+00  0.11645754209E+04  0.11645754209E+04  0.00000000000E+00 0.  1.
         21   -1    0    0  501  502  0.00000000000E+00 -0.00000000000E+00 -0.40361156170E+03  0.40361156170E+03  0.00000000000E+00 0.  1.
        -13    1    1    2    0    0 -0.51684783078E+03  0.57141654135E+02 -0.25943136910E+02  0.52064374224E+03  0.10566000000E+00 0.  1.
         13    1    1    2    0    0  0.16410846173E+03 -0.24262720162E+03  0.32995783629E+03  0.44121619538E+03  0.10566000000E+00 0. -1.
          4    1    1    2  501    0  0.35273936905E+03  0.18548554748E+03  0.45694915982E+03  0.60632704497E+03  0.00000000000E+00 0.  1.
</event>
<event>
 5    1  0.8445827E-005  0.4987152E+03  0.7818608E-02  0.1005887E+00
         21   -1    0    0  501  502  0.00000000000E+00  0.00000000000E+00  0.33745723879E+03  0.33745723879E+03  0.00000000000E+00 0. -1.
         -4   -1    0    0    0  501 -0.00000000000E+00 -0.00000000000E+00 -0.87318854612E+03  0.87318854612E+03  0.00000000000E+00 0. -1.
        -13    1    1    2    0    0 -0.51514187590E+02 -0.44950185768E+02 -0.73495823297E+02  0.10037867268E+03  0.10566000000E+00 0.  1.
         13    1    1    2    0    0 -0.39761203623E+03  0.28334927267E+03 -0.31447912163E+03  0.58075749740E+03  0.10566000000E+00 0. -1.
         -4    1    1    2    0  502  0.44912622382E+03 -0.23839908690E+03 -0.14775636241E+03  0.52950961482E+03  0.00000000000E+00 0. -1.
</event>
<event>
 5    1  0.8445827E-005  0.4977428E+03  0.7818608E-02  0.9575730E-01
         21   -1    0    0  501  502  0.00000000000E+00  0.00000000000E+00  0.31326108670E+03  0.31326108670E+03  0.00000000000E+00 0. -1.
         -4   -1    0    0    0  501 -0.00000000000E+00 -0.00000000000E+00 -0.16079955387E+04  0.16079955387E+04  0.00000000000E+00 0. -1.
        -13    1    1    2    0    0 -0.15521348375E+03  0.32040890001E+03 -0.26840069600E+03  0.44586100246E+03  0.10566000000E+00 0.  1.
         13    1    1    2    0    0 -0.37839767257E+03  0.64312281401E+02 -0.51448631643E+03  0.64188554206E+03  0.10566000000E+00 0. -1.
         -4    1    1    2    0  502  0.53361115632E+03 -0.38472118141E+03 -0.51184743961E+03  0.83351008093E+03  0.00000000000E+00 0. -1.
</event>
<event>
 5    1  0.8445827E-005  0.4460534E+03  0.7818608E-02  0.1013822E+00
         -4   -1    0    0    0  501 -0.00000000000E+00  0.00000000000E+00  0.50710874924E+03  0.50710874924E+03  0.00000000000E+00 0. -1.
         21   -1    0    0  501  502  0.00000000000E+00 -0.00000000000E+00 -0.83744748731E+03  0.83744748731E+03  0.00000000000E+00 0. -1.
        -13    1    1    2    0    0  0.22440028118E+02  0.70559133673E+02  0.19726485150E+03  0.21070258425E+03  0.10566000000E+00 0.  1.
         13    1    1    2    0    0  0.38561096822E+03  0.19402310126E+03 -0.47946147041E+03  0.64515431907E+03  0.10566000000E+00 0. -1.
         -4    1    1    2    0  502 -0.40805099634E+03 -0.26458223494E+03 -0.48142119159E+02  0.48869933323E+03  0.00000000000E+00 0. -1.
</event>
<event>
 5    1  0.8445827E-005  0.4817178E+03  0.7818608E-02  0.9843168E-01
         21   -1    0    0  501  502  0.00000000000E+00  0.00000000000E+00  0.36582101142E+03  0.36582101142E+03  0.00000000000E+00 0.  1.
          4   -1    0    0  502    0 -0.00000000000E+00 -0.00000000000E+00 -0.14107494998E+04  0.14107494998E+04  0.00000000000E+00 0.  1.
        -13    1    1    2    0    0 -0.12423218857E+03  0.51141648724E+03 -0.13822718833E+03  0.54413897752E+03  0.10566000000E+00 0.  1.
         13    1    1    2    0    0  0.14138236830E+03 -0.63401891878E+02 -0.73689546669E+03  0.75300977016E+03  0.10566000000E+00 0. -1.
          4    1    1    2  501    0 -0.17150179723E+02 -0.44801459536E+03 -0.16980583337E+03  0.47942176355E+03  0.00000000000E+00 0.  1.
</event>
<event>
 5    1  0.8445827E-005  0.2951289E+03  0.7818608E-02  0.1009337E+00
          4   -1    0    0  502    0 -0.00000000000E+00  0.00000000000E+00  0.11458004334E+04  0.11458004334E+04  0.00000000000E+00 0.  1.
         21   -1    0    0  501  502  0.00000000000E+00 -0.00000000000E+00 -0.38092135417E+03  0.38092135417E+03  0.00000000000E+00 0.  1.
        -13    1    1    2    0    0  0.40227058243E+03 -0.21924440094E+03 -0.13413100832E+03  0.47736869126E+03  0.10566000000E+00 0.  1.
         13    1    1    2    0    0 -0.27064011045E+03  0.25112664863E+02  0.29360671752E+03  0.40010202581E+03  0.10566000000E+00 0. -1.
          4    1    1    2  501    0 -0.13163047198E+03  0.19413173608E+03  0.60540337006E+03  0.64925107053E+03  0.00000000000E+00 0.  1.
</event>
<event>
 5    1  0.8445827E-005  0.9024473E+03  0.7818608E-02  0.8872080E-01
         21   -1    0    0  501  502  0.00000000000E+00  0.00000000000E+00  0.52597443482E+03  0.52597443482E+03  0.00000000000E+00 0. -1.
          4   -1    0    0  502    0 -0.00000000000E+00 -0.00000000000E+00 -0.20317817269E+04  0.20317817269E+04  0.00000000000E+00 0.  1.
        -13    1    1    2    0    0 -0.76355052680E+03 -0.37942908077E+03 -0.82244713346E+03  0.11846497933E+04  0.10566000000E+00 0.  1.
         13    1    1    2    0    0  0.85021236336E+03  0.46155989149E+03 -0.76084886019E+03  0.12307678885E+04  0.10566000000E+00 0. -1.
          4    1    1    2  501    0 -0.86661836568E+02 -0.82130810719E+02  0.77488701554E+02  0.14233847988E+03  0.00000000000E+00 0.  1.
</event>
<event>
 5    1  0.8445827E-005  0.4965955E+03  0.7818608E-02  0.9793351E-01
         21   -1    0    0  501  502  0.00000000000E+00  0.00000000000E+00  0.13523968465E+03  0.13523968465E+03  0.00000000000E+00 0.  1.
          4   -1    0    0  502    0 -0.00000000000E+00 -0.00000000000E+00 -0.25681450832E+04  0.25681450832E+04  0.00000000000E+00 0.  1.
        -13    1    1    2    0    0 -0.78276037761E+02  0.49029239843E+03 -0.93601296841E+03  0.10595442710E+04  0.10566000000E+00 0.  1.
         13    1    1    2    0    0  0.16698383762E+03  0.13767006745E+02 -0.36940718455E+03  0.40562890882E+03  0.10566000000E+00 0. -1.
          4    1    1    2  501    0 -0.88707799862E+02 -0.50405940517E+03 -0.11274852456E+04  0.12382115880E+04  0.00000000000E+00 0.  1.
</event>
<event>
 5    1  0.8445827E-005  0.3871006E+03  0.7818608E-02  0.9811649E-01
         21   -1    0    0  501  502  0.00000000000E+00  0.00000000000E+00  0.16834299359E+03  0.16834299359E+03  0.00000000000E+00 0. -1.
         -4   -1    0    0    0  501 -0.00000000000E+00 -0.00000000000E+00 -0.37478852485E+04  0.37478852485E+04  0.00000000000E+00 0. -1.
        -13    1    1    2    0    0  0.41748193045E+03 -0.15906058228E+02 -0.19163425254E+04  0.19613548508E+04  0.10566000000E+00 0.  1.
         13    1    1    2    0    0 -0.40211070757E+01 -0.34892265337E+03 -0.22654976088E+03  0.41603845094E+03  0.10566000000E+00 0. -1.
         -4    1    1    2    0  502 -0.41346082337E+03  0.36482871160E+03 -0.14366499686E+04  0.15388349404E+04  0.00000000000E+00 0. -1.
</event>
<event>
 5    1  0.8445827E-005  0.3650820E+02  0.7818608E-02  0.1359163E+00
         21   -1    0    0  501  502  0.00000000000E+00  0.00000000000E+00  0.18832093737E+03  0.18832093737E+03  0.00000000000E+00 0.  1.
          4   -1    0    0  502    0 -0.00000000000E+00 -0.00000000000E+00 -0.67668785912E+02  0.67668785912E+02  0.00000000000E+00 0.  1.
        -13    1    1    2    0    0  0.33087181759E+02  0.14256252890E+02 -0.55806442596E+02  0.66425691886E+02  0.10566000000E+00 0.  1.
         13    1    1    2    0    0 -0.36457715940E+02 -0.25934941380E+02  0.74640946202E+02  0.87023377606E+02  0.10566000000E+00 0. -1.
          4    1    1    2  501    0  0.33705341811E+01  0.11678688491E+02  0.10181764785E+03  0.10254065379E+03  0.00000000000E+00 0.  1.
</event>
<event>
 5    1  0.8445827E-005  0.4774527E+03  0.7818608E-02  0.9843047E-01
         -4   -1    0    0    0  501 -0.00000000000E+00  0.00000000000E+00  0.17020789370E+04  0.17020789370E+04  0.00000000000E+00 0. -1.
         21   -1    0    0  501  502  0.00000000000E+00 -0.00000000000E+00 -0.26989929613E+03  0.26989929613E+03  0.00000000000E+00 0. -1.
        -13    1    1    2    0    0  0.96624742363E+02  0.12652747897E+03  0.66466815488E+03  0.68346858820E+03  0.10566000000E+00 0.  1.
         13    1    1    2    0    0  0.13404887726E+03 -0.48862953165E+03  0.13554420024E+03  0.52449991619E+03  0.10566000000E+00 0. -1.
         -4    1    1    2    0  502 -0.23067361963E+03  0.36210205268E+03  0.63196728572E+03  0.76400972871E+03  0.00000000000E+00 0. -1.
</event>
<event>
 5    1  0.8445827E-005  0.6059376E+03  0.7818608E-02  0.9271886E-01
         -4   -1    0    0    0  501 -0.00000000000E+00  0.00000000000E+00  0.31129047541E+04  0.31129047541E+04  0.00000000000E+00 0. -1.
         21   -1    0    0  501  502  0.00000000000E+00 -0.00000000000E+00 -0.33891318458E+03  0.33891318458E+03  0.00000000000E+00 0. -1.
        -13    1    1    2    0    0 -0.40170551031E+03  0.48178053329E+03  0.18209260147E+04  0.19259416817E+04  0.10566000000E+00 0.  1.
         13    1    1    2    0    0  0.68216057584E+03 -0.68447582487E+02  0.47171153315E+03  0.83218982477E+03  0.10566000000E+00 0. -1.
         -4    1    1    2    0  502 -0.28045506553E+03 -0.41333295080E+03  0.48135402170E+03  0.69368643219E+03  0.00000000000E+00 0. -1.
</event>
<event>
 5    1  0.8445827E-005  0.9139010E+02  0.7818608E-02  0.1281407E+00
         21   -1    0    0  501  502  0.00000000000E+00  0.00000000000E+00  0.60780850890E+03  0.60780850890E+03  0.00000000000E+00 0.  1.
          4   -1    0    0  502    0 -0.00000000000E+00 -0.00000000000E+00 -0.17267604486E+02  0.17267604486E+02  0.00000000000E+00 0.  1.
        -13    1    1    2    0    0  0.22875506877E+02  0.87266035055E+02  0.21422586922E+03  0.23244651836E+03  0.10566000000E+00 0.  1.
         13    1    1    2    0    0  0.10007778480E+02 -0.99210105915E+00  0.78084257647E+01  0.12732736217E+02  0.10566000000E+00 0. -1.
          4    1    1    2  501    0 -0.32883285357E+02 -0.86273933996E+02  0.36850660943E+03  0.37989685881E+03  0.00000000000E+00 0.  1.
</event>
<event>
 5    1  0.8445827E-005  0.4625329E+03  0.7818608E-02  0.9637948E-01
         21   -1    0    0  501  502  0.00000000000E+00  0.00000000000E+00  0.31476229876E+03  0.31476229876E+03  0.00000000000E+00 0.  1.
          4   -1    0    0  502    0 -0.00000000000E+00 -0.00000000000E+00 -0.16944265724E+04  0.16944265724E+04  0.00000000000E+00 0.  1.
        -13    1    1    2    0    0 -0.65906769382E+02  0.21529968527E+03 -0.75899184424E+03  0.79168572521E+03  0.10566000000E+00 0.  1.
         13    1    1    2    0    0  0.60169851098E+02  0.35057304638E+03 -0.53892705698E+03  0.64572769473E+03  0.10566000000E+00 0. -1.
          4    1    1    2  501    0  0.57369182835E+01 -0.56587273165E+03 -0.81745372376E+02  0.57177545117E+03  0.00000000000E+00 0.  1.
</event>
<event>
 5    1  0.8445827E-005  0.3816801E+03  0.7818608E-02  0.9994487E-01
         21   -1    0    0  501  502  0.00000000000E+00  0.00000000000E+00  0.18499784107E+04  0.18499784107E+04  0.00000000000E+00 0.  1.
          4   -1    0    0  502    0 -0.00000000000E+00 -0.00000000000E+00 -0.20002063439E+03  0.20002063439E+03  0.00000000000E+00 0.  1.
        -13    1    1    2    0    0 -0.11472263582E+03 -0.39891324166E+03  0.15280370672E+04  0.15834109850E+04  0.10566000000E+00 0.  1.
         13    1    1    2    0    0  0.93238562535E+02  0.16339877952E+03  0.13210108264E+03  0.22987670149E+03  0.10566000000E+00 0. -1.
          4    1    1    2  501    0  0.21484073288E+02  0.23551446215E+03 -0.10180373513E+02  0.23671135860E+03  0.00000000000E+00 0.  1.
</event>
<event>
 5    1  0.8445827E-005  0.4897384E+03  0.7818608E-02  0.9862479E-01
         21   -1    0    0  501  502  0.00000000000E+00  0.00000000000E+00  0.18035713992E+03  0.18035713992E+03  0.00000000000E+00 0.  1.
          4   -1    0    0  502    0 -0.00000000000E+00 -0.00000000000E+00 -0.20779043898E+04  0.20779043898E+04  0.00000000000E+00 0.  1.
        -13    1    1    2    0    0 -0.41419303514E+03  0.18458889073E+03 -0.66298905490E+03  0.80323310877E+03  0.10566000000E+00 0.  1.
         13    1    1    2    0    0 -0.44672492352E+02  0.13072551133E+03 -0.51366994930E+02  0.14738850097E+03  0.10566000000E+00 0. -1.
          4    1    1    2  501    0  0.45886552749E+03 -0.31531440207E+03 -0.11831912000E+04  0.13076399200E+04  0.00000000000E+00 0.  1.
</event>
<event>
 5    1  0.8445827E-005  0.1556848E+03  0.7818608E-02  0.1095637E+00
         21   -1    0    0  501  502  0.00000000000E+00  0.00000000000E+00  0.16769898565E+04  0.16769898565E+04  0.00000000000E+00 0.  1.
         -4   -1    0    0    0  501 -0.00000000000E+00 -0.00000000000E+00 -0.22606127012E+02  0.22606127012E+02  0.00000000000E+00 0. -1.
        -13    1    1    2    0    0  0.16759893980E+03 -0.65591417735E+01  0.56344759479E+03  0.58788232684E+03  0.10566000000E+00 0.  1.
         13    1    1    2    0    0 -0.14455836842E+03  0.10032193011E+02  0.50669762603E+03  0.52701068505E+03  0.10566000000E+00 0. -1.
         -4    1    1    2    0  502 -0.23040571377E+02 -0.34730512373E+01  0.58423850871E+03  0.58470297167E+03  0.00000000000E+00 0. -1.
</event>
<event>
 5    1  0.8445827E-005  0.3892025E+03  0.7818608E-02  0.1005182E+00
         -4   -1    0    0    0  501 -0.00000000000E+00  0.00000000000E+00  0.19056196756E+04  0.19056196756E+04  0.00000000000E+00 0. -1.
         21   -1    0    0  501  502  0.00000000000E+00 -0.00000000000E+00 -0.20500442384E+03  0.20500442384E+03  0.00000000000E+00 0. -1.
        -13    1    1    2    0    0 -0.14612017498E+03 -0.17500698415E+02  0.61968292238E+03  0.63691782471E+03  0.10566000000E+00 0.  1.
         13    1    1    2    0    0  0.14853231056E+03  0.40218803360E+03  0.98936004898E+03  0.10782626671E+04  0.10566000000E+00 0. -1.
         -4    1    1    2    0  502 -0.24121355742E+01 -0.38468733519E+03  0.91572280395E+02  0.39544360760E+03  0.00000000000E+00 0. -1.
</event>
<event>
 5    1  0.8445827E-005  0.4911789E+03  0.7818608E-02  0.9711268E-01
         21   -1    0    0  501  502  0.00000000000E+00  0.00000000000E+00  0.23596650667E+03  0.23596650667E+03  0.00000000000E+00 0.  1.
          4   -1    0    0  502    0 -0.00000000000E+00 -0.00000000000E+00 -0.20229205806E+04  0.20229205806E+04  0.00000000000E+00 0.  1.
        -13    1    1    2    0    0 -0.57770054098E+03 -0.24355135269E+03 -0.58397069575E+03  0.85678291364E+03  0.10566000000E+00 0.  1.
         13    1    1    2    0    0  0.19626284615E+03  0.11948751238E+03 -0.80463871933E+03  0.83680335216E+03  0.10566000000E+00 0. -1.
          4    1    1    2  501    0  0.38143769484E+03  0.12406384030E+03 -0.39834465884E+03  0.56530082145E+03  0.00000000000E+00 0.  1.
</event>
<event>
 5    1  0.8445827E-005  0.8528380E+02  0.7818608E-02  0.1191507E+00
         21   -1    0    0  501  502  0.00000000000E+00  0.00000000000E+00  0.13109396186E+03  0.13109396186E+03  0.00000000000E+00 0.  1.
          4   -1    0    0  502    0 -0.00000000000E+00 -0.00000000000E+00 -0.28314023808E+03  0.28314023808E+03  0.00000000000E+00 0.  1.
        -13    1    1    2    0    0  0.48083396135E+01 -0.75504937310E+02 -0.15006965822E+03  0.16806257516E+03  0.10566000000E+00 0.  1.
         13    1    1    2    0    0  0.63122756999E+01  0.11574863483E+03 -0.91309327023E+02  0.14756353091E+03  0.10566000000E+00 0. -1.
          4    1    1    2  501    0 -0.11120615313E+02 -0.40243697523E+02  0.89332709015E+02  0.98608093863E+02  0.00000000000E+00 0.  1.
</event>
<event>
 5    1  0.8445827E-005  0.4709603E+03  0.7818608E-02  0.9890016E-01
          4   -1    0    0  502    0 -0.00000000000E+00  0.00000000000E+00  0.42587947094E+03  0.42587947094E+03  0.00000000000E+00 0.  1.
         21   -1    0    0  501  502  0.00000000000E+00 -0.00000000000E+00 -0.11571028150E+04  0.11571028150E+04  0.00000000000E+00 0.  1.
        -13    1    1    2    0    0 -0.12263410070E+03 -0.39439813207E+03 -0.16146249667E+03  0.44346269091E+03  0.10566000000E+00 0.  1.
         13    1    1    2    0    0 -0.13520278760E+03 -0.42099311923E+02  0.18335386171E+03  0.23166958283E+03  0.10566000000E+00 0. -1.
          4    1    1    2  501    0  0.25783688830E+03  0.43649744400E+03 -0.75311470907E+03  0.90785001217E+03  0.00000000000E+00 0.  1.
</event>
<event>
 5    1  0.8445827E-005  0.4431842E+03  0.7818608E-02  0.9748931E-01
         -4   -1    0    0    0  501 -0.00000000000E+00  0.00000000000E+00  0.22297929133E+04  0.22297929133E+04  0.00000000000E+00 0. -1.
         21   -1    0    0  501  502  0.00000000000E+00 -0.00000000000E+00 -0.34716226943E+03  0.34716226943E+03  0.00000000000E+00 0. -1.
        -13    1    1    2    0    0  0.27122504671E+03 -0.42689045338E+02  0.14320217211E+04  0.14581054836E+04  0.10566000000E+00 0.  1.
         13    1    1    2    0    0 -0.96539637038E+02 -0.43073972379E+03 -0.13322232413E+01  0.44142768055E+03  0.10566000000E+00 0. -1.
         -4    1    1    2    0  502 -0.17468540967E+03  0.47342876913E+03  0.45194114610E+03  0.67742201864E+03  0.00000000000E+00 0. -1.
</event>
<event>
 5    1  0.8445827E-005  0.4169531E+03  0.7818608E-02  0.9711907E-01
         -4   -1    0    0    0  501 -0.00000000000E+00  0.00000000000E+00  0.95559231391E+03  0.95559231391E+03  0.00000000000E+00 0. -1.
         21   -1    0    0  501  502  0.00000000000E+00 -0.00000000000E+00 -0.10766429366E+04  0.10766429366E+04  0.00000000000E+00 0. -1.
        -13    1    1    2    0    0  0.37085095573E+03 -0.54240868638E+02  0.62914686750E+03  0.73232390050E+03  0.10566000000E+00 0.  1.
         13    1    1    2    0    0 -0.13252809719E+03  0.42947324623E+03 -0.26046544964E+02  0.45021039463E+03  0.10566000000E+00 0. -1.
         -4    1    1    2    0  502 -0.23832285854E+03 -0.37523237759E+03 -0.72415094522E+03  0.84970095537E+03  0.00000000000E+00 0. -1.
</event>
<event>
 5    1  0.8445827E-005  0.5867622E+03  0.7818608E-02  0.9305741E-01
         21   -1    0    0  501  502  0.00000000000E+00  0.00000000000E+00  0.78739101434E+03  0.78739101434E+03  0.00000000000E+00 0. -1.
         -4   -1    0    0    0  501 -0.00000000000E+00 -0.00000000000E+00 -0.15027512004E+04  0.15027512004E+04  0.00000000000E+00 0. -1.
        -13    1    1    2    0    0 -0.54222543382E+03  0.16342151005E+03  0.57824033634E+02  0.56926148742E+03  0.10566000000E+00 0.  1.
         13    1    1    2    0    0  0.56517724434E+03 -0.17393481557E+03 -0.11765134796E+04  0.13167621716E+04  0.10566000000E+00 0. -1.
         -4    1    1    2    0  502 -0.22951810522E+02  0.10513305520E+02  0.40332925992E+03  0.40411855576E+03  0.00000000000E+00 0. -1.
</event>
<event>
 5    1  0.8445827E-005  0.3396108E+03  0.7818608E-02  0.9921789E-01
         -4   -1    0    0    0  501 -0.00000000000E+00  0.00000000000E+00  0.13257079785E+03  0.13257079785E+03  0.00000000000E+00 0. -1.
         21   -1    0    0  501  502  0.00000000000E+00 -0.00000000000E+00 -0.13170580831E+04  0.13170580831E+04  0.00000000000E+00 0.  1.
        -13    1    1    2    0    0 -0.63705584799E+02  0.33400500143E+03 -0.70353772156E+03  0.78139815673E+03  0.10566000000E+00 0.  1.
         13    1    1    2    0    0  0.84483193930E+02 -0.32896024515E+03 -0.21617973250E+03  0.40259898268E+03  0.10566000000E+00 0. -1.
         -4    1    1    2    0  502 -0.20777609131E+02 -0.50447562771E+01 -0.26476983118E+03  0.26563174153E+03  0.00000000000E+00 0. -1.
</event>
<event>
 5    1  0.8445827E-005  0.2290939E+03  0.7818608E-02  0.1041835E+00
          4   -1    0    0  502    0 -0.00000000000E+00  0.00000000000E+00  0.32949014453E+03  0.32949014453E+03  0.00000000000E+00 0.  1.
         21   -1    0    0  501  502  0.00000000000E+00 -0.00000000000E+00 -0.39632982824E+03  0.39632982824E+03  0.00000000000E+00 0. -1.
        -13    1    1    2    0    0 -0.13631505431E+03  0.18451830103E+03  0.23034052488E+03  0.32509316513E+03  0.10566000000E+00 0.  1.
         13    1    1    2    0    0  0.14306139993E+03 -0.17701599359E+03 -0.19988927850E+03  0.30291411483E+03  0.10566000000E+00 0. -1.
          4    1    1    2  501    0 -0.67463456194E+01 -0.75023074415E+01 -0.97290930096E+02  0.97812692812E+02  0.00000000000E+00 0.  1.
</event>
<event>
 5    1  0.8445827E-005  0.7446794E+02  0.7818608E-02  0.1215470E+00
         21   -1    0    0  501  502  0.00000000000E+00  0.00000000000E+00  0.48872608257E+02  0.48872608257E+02  0.00000000000E+00 0.  1.
         -4   -1    0    0    0  501 -0.00000000000E+00 -0.00000000000E+00 -0.39613978669E+03  0.39613978669E+03  0.00000000000E+00 0. -1.
        -13    1    1    2    0    0  0.51568219749E+02  0.25850333620E+02 -0.30924125238E+02  0.65451002453E+02  0.10566000000E+00 0.  1.
         13    1    1    2    0    0 -0.78728678524E+02 -0.12057231829E+02 -0.33466618615E+03  0.34401315233E+03  0.10566000000E+00 0. -1.
         -4    1    1    2    0  502  0.27160458775E+02 -0.13793101790E+02  0.18323132950E+02  0.35548240167E+02  0.00000000000E+00 0. -1.
</event>
<event>
 5    1  0.8445827E-005  0.3604065E+03  0.7818608E-02  0.9850926E-01
          4   -1    0    0  502    0 -0.00000000000E+00  0.00000000000E+00  0.25776970563E+04  0.25776970563E+04  0.00000000000E+00 0.  1.
         21   -1    0    0  501  502  0.00000000000E+00 -0.00000000000E+00 -0.72949714379E+02  0.72949714379E+02  0.00000000000E+00 0. -1.
        -13    1    1    2    0    0 -0.36561042044E+03 -0.11257465189E+03  0.14281152891E+04  0.14784645150E+04  0.10566000000E+00 0.  1.
         13    1    1    2    0    0  0.28554223875E+03  0.18679768065E+03  0.92013807410E+03  0.98136732684E+03  0.10566000000E+00 0. -1.
          4    1    1    2  501    0  0.80068181689E+02 -0.74223028761E+02  0.15649397866E+03  0.19081492886E+03  0.00000000000E+00 0.  1.
</event>
<event>
 5    1  0.8445827E-005  0.5446449E+03  0.7818608E-02  0.9385144E-01
         21   -1    0    0  501  502  0.00000000000E+00  0.00000000000E+00  0.21771787357E+03  0.21771787357E+03  0.00000000000E+00 0.  1.
         -4   -1    0    0    0  501 -0.00000000000E+00 -0.00000000000E+00 -0.22138969025E+04  0.22138969025E+04  0.00000000000E+00 0. -1.
        -13    1    1    2    0    0 -0.37442568309E+03 -0.38675782295E+03 -0.14090634451E+04  0.15083885472E+04  0.10566000000E+00 0.  1.
         13    1    1    2    0    0  0.34924139483E+03  0.43753480565E+03 -0.63677263327E+03  0.84787124946E+03  0.10566000000E+00 0. -1.
         -4    1    1    2    0  502  0.25184288253E+02 -0.50776982696E+02  0.49657049521E+02  0.75354979355E+02  0.00000000000E+00 0. -1.
</event>
<event>
 5    1  0.8445827E-005  0.4033112E+03  0.7818608E-02  0.9719531E-01
         21   -1    0    0  501  502  0.00000000000E+00  0.00000000000E+00  0.16011121098E+03  0.16011121098E+03  0.00000000000E+00 0. -1.
          4   -1    0    0  502    0 -0.00000000000E+00 -0.00000000000E+00 -0.13652461540E+04  0.13652461540E+04  0.00000000000E+00 0.  1.
        -13    1    1    2    0    0 -0.14248647249E+03 -0.36968724036E+03 -0.40665869289E+03  0.56775201822E+03  0.10566000000E+00 0.  1.
         13    1    1    2    0    0  0.13387144116E+03  0.38497051742E+03 -0.82821734733E+03  0.92307521233E+03  0.10566000000E+00 0. -1.
          4    1    1    2  501    0  0.86150313377E+01 -0.15283277057E+02  0.29741097182E+02  0.34530134436E+02  0.00000000000E+00 0.  1.
</event>
<event>
 5    1  0.8445827E-005  0.1563178E+03  0.7818608E-02  0.1095043E+00
          4   -1    0    0  502    0 -0.00000000000E+00  0.00000000000E+00  0.79981744428E+02  0.79981744428E+02  0.00000000000E+00 0.  1.
         21   -1    0    0  501  502  0.00000000000E+00 -0.00000000000E+00 -0.67027922930E+03  0.67027922930E+03  0.00000000000E+00 0. -1.
        -13    1    1    2    0    0 -0.15560793199E+03  0.32185904669E+02 -0.48461098568E+02  0.16612721089E+03  0.10566000000E+00 0.  1.
         13    1    1    2    0    0  0.15151273165E+03 -0.20774075318E+01 -0.26207577177E+03  0.30272783947E+03  0.10566000000E+00 0. -1.
          4    1    1    2  501    0  0.40952003400E+01 -0.30108497137E+02 -0.27976061453E+03  0.28140592337E+03  0.00000000000E+00 0.  1.
</event>
<event>
 5    1  0.8445827E-005  0.4077789E+03  0.7818608E-02  0.1015377E+00
         21   -1    0    0  501  502  0.00000000000E+00  0.00000000000E+00  0.19436830551E+04  0.19436830551E+04  0.00000000000E+00 0. -1.
         -4   -1    0    0    0  501 -0.00000000000E+00 -0.00000000000E+00 -0.30377548382E+03  0.30377548382E+03  0.00000000000E+00 0. -1.
        -13    1    1    2    0    0  0.35045699873E+02  0.85308265375E+02 -0.16165339105E+03  0.18611160959E+03  0.10566000000E+00 0.  1.
         13    1    1    2    0    0  0.14034079890E+03 -0.43879902113E+03  0.41611417415E+03  0.62079879017E+03  0.10566000000E+00 0. -1.
         -4    1    1    2    0  502 -0.17538649877E+03  0.35349075575E+03  0.13854467882E+04  0.14405481392E+04  0.00000000000E+00 0. -1.
</event>
<event>
 5    1  0.8445827E-005  0.5096480E+03  0.7818608E-02  0.9537691E-01
          4   -1    0    0  502    0 -0.00000000000E+00  0.00000000000E+00  0.47230000036E+03  0.47230000036E+03  0.00000000000E+00 0.  1.
         21   -1    0    0  501  502  0.00000000000E+00 -0.00000000000E+00 -0.17465335202E+04  0.17465335202E+04  0.00000000000E+00 0.  1.
        -13    1    1    2    0    0 -0.27953986194E+03 -0.21340054361E+03 -0.31668236843E+03  0.47325475176E+03  0.10566000000E+00 0.  1.
         13    1    1    2    0    0 -0.26517194082E+03 -0.27243824018E+03  0.15861676940E+03  0.41194422391E+03  0.10566000000E+00 0. -1.
          4    1    1    2  501    0  0.54471180276E+03  0.48583878379E+03 -0.11161679209E+04  0.13336345449E+04  0.00000000000E+00 0.  1.
</event>
<event>
 5    1  0.8445827E-005  0.2299394E+03  0.7818608E-02  0.1041347E+00
          4   -1    0    0  502    0 -0.00000000000E+00  0.00000000000E+00  0.27067110678E+03  0.27067110678E+03  0.00000000000E+00 0.  1.
         21   -1    0    0  501  502  0.00000000000E+00 -0.00000000000E+00 -0.42003965834E+03  0.42003965834E+03  0.00000000000E+00 0. -1.
        -13    1    1    2    0    0  0.23160657784E+03  0.16756188790E+02  0.16557076001E+03  0.28519478343E+03  0.10566000000E+00 0.  1.
         13    1    1    2    0    0 -0.21702046419E+03 -0.37168544138E+02 -0.23634463239E+03  0.32301420863E+03  0.10566000000E+00 0. -1.
          4    1    1    2  501    0 -0.14586113648E+02  0.20412355348E+02 -0.78594679183E+02  0.82501773061E+02  0.00000000000E+00 0.  1.
</event>
<event>
 5    1  0.8445827E-005  0.8668334E+03  0.7818608E-02  0.8910911E-01
         -4   -1    0    0    0  501 -0.00000000000E+00  0.00000000000E+00  0.23976814755E+04  0.23976814755E+04  0.00000000000E+00 0. -1.
         21   -1    0    0  501  502  0.00000000000E+00 -0.00000000000E+00 -0.77001374428E+03  0.77001374428E+03  0.00000000000E+00 0. -1.
        -13    1    1    2    0    0 -0.41887310979E+03  0.76178896092E+03  0.21546117349E+03  0.89565653659E+03  0.10566000000E+00 0.  1.
         13    1    1    2    0    0  0.39857096776E+03 -0.76898449630E+03  0.17399381942E+04  0.19435999853E+04  0.10566000000E+00 0. -1.
         -4    1    1    2    0  502  0.20302142030E+02  0.71955353804E+01 -0.32773163651E+03  0.32843869789E+03  0.00000000000E+00 0. -1.
</event>
<event>
 5    1  0.8445827E-005  0.3935602E+03  0.7818608E-02  0.9903729E-01
         -4   -1    0    0    0  501 -0.00000000000E+00  0.00000000000E+00  0.46791600536E+03  0.46791600536E+03  0.00000000000E+00 0. -1.
         21   -1    0    0  501  502  0.00000000000E+00 -0.00000000000E+00 -0.87274880581E+03  0.87274880581E+03  0.00000000000E+00 0. -1.
        -13    1    1    2    0    0 -0.22192862597E+03 -0.66832738539E+02  0.10641751656E+02  0.23201764590E+03  0.10566000000E+00 0.  1.
         13    1    1    2    0    0  0.21784313311E+03  0.44576755268E+03  0.60958850690E+02  0.49988031998E+03  0.10566000000E+00 0. -1.
         -4    1    1    2    0  502  0.40854928592E+01 -0.37893481414E+03 -0.47643340280E+03  0.60876684529E+03  0.00000000000E+00 0. -1.
</event>
<event>
 5    1  0.8445827E-005  0.1749902E+03  0.7818608E-02  0.1078780E+00
         21   -1    0    0  501  502  0.00000000000E+00  0.00000000000E+00  0.13571205892E+03  0.13571205892E+03  0.00000000000E+00 0. -1.
          4   -1    0    0  502    0 -0.00000000000E+00 -0.00000000000E+00 -0.38523548639E+03  0.38523548639E+03  0.00000000000E+00 0.  1.
        -13    1    1    2    0    0  0.11029984722E+03 -0.13097121384E+03 -0.23063355174E+03  0.28724790948E+03  0.10566000000E+00 0.  1.
         13    1    1    2    0    0 -0.11073671400E+03  0.14723429336E+03 -0.56518839639E+02  0.19270430033E+03  0.10566000000E+00 0. -1.
          4    1    1    2  501    0  0.43686677571E+00 -0.16263079521E+02  0.37628963903E+02  0.40995335497E+02  0.00000000000E+00 0.  1.
</event>
<event>
 5    1  0.8445827E-005  0.1829701E+03  0.7818608E-02  0.1072482E+00
         21   -1    0    0  501  502  0.00000000000E+00  0.00000000000E+00  0.28389663666E+03  0.28389663666E+03  0.00000000000E+00 0. -1.
         -4   -1    0    0    0  501 -0.00000000000E+00 -0.00000000000E+00 -0.13200974154E+04  0.13200974154E+04  0.00000000000E+00 0. -1.
        -13    1    1    2    0    0  0.15763369925E+03  0.11011468985E+03 -0.10117552686E+03  0.21727891398E+03  0.10566000000E+00 0.  1.
         13    1    1    2    0    0 -0.97345250613E+02 -0.11560559432E+03  0.19966372794E+03  0.25041239321E+03  0.10566000000E+00 0. -1.
         -4    1    1    2    0  502 -0.60288448641E+02  0.54909044751E+01 -0.11346889798E+04  0.11363027449E+04  0.00000000000E+00 0. -1.
</event>
<event>
 5    1  0.8445827E-005  0.4945405E+03  0.7818608E-02  0.9627095E-01
         21   -1    0    0  501  502  0.00000000000E+00  0.00000000000E+00  0.13340060735E+04  0.13340060735E+04  0.00000000000E+00 0. -1.
         -4   -1    0    0    0  501 -0.00000000000E+00 -0.00000000000E+00 -0.39379184863E+03  0.39379184863E+03  0.00000000000E+00 0. -1.
        -13    1    1    2    0    0 -0.30169566704E+03 -0.20365665491E+02 -0.36973706635E+02  0.30463437428E+03  0.10566000000E+00 0.  1.
         13    1    1    2    0    0  0.29171868310E+03  0.48576918553E+03  0.58549671856E+03  0.81478703370E+03  0.10566000000E+00 0. -1.
         -4    1    1    2    0  502  0.99769839422E+01 -0.46540352004E+03  0.39169121294E+03  0.60837651415E+03  0.00000000000E+00 0. -1.
</event>
<event>
 5    1  0.8445827E-005  0.2593628E+03  0.7818608E-02  0.1025652E+00
         -4   -1    0    0    0  501 -0.00000000000E+00  0.00000000000E+00  0.20172088770E+03  0.20172088770E+03  0.00000000000E+00 0. -1.
         21   -1    0    0  501  502  0.00000000000E+00 -0.00000000000E+00 -0.68125737354E+03  0.68125737354E+03  0.00000000000E+00 0.  1.
        -13    1    1    2    0    0  0.95034410181E+02 -0.24744102218E+03 -0.30187978279E+02  0.26677691762E+03  0.10566000000E+00 0.  1.
         13    1    1    2    0    0 -0.82089956097E+02  0.23838433224E+03 -0.10765854049E+03  0.27414635371E+03  0.10566000000E+00 0. -1.
         -4    1    1    2    0  502 -0.12944454084E+02  0.90566899379E+01 -0.34168996707E+03  0.34205498991E+03  0.00000000000E+00 0. -1.
</event>
<event>
 5    1  0.8445827E-005  0.5009834E+03  0.7818608E-02  0.9493686E-01
          4   -1    0    0  502    0 -0.00000000000E+00  0.00000000000E+00  0.15489174687E+04  0.15489174687E+04  0.00000000000E+00 0.  1.
         21   -1    0    0  501  502  0.00000000000E+00 -0.00000000000E+00 -0.43836420817E+03  0.43836420817E+03  0.00000000000E+00 0. -1.
        -13    1    1    2    0    0 -0.34512524896E+03 -0.38986827942E+03  0.39930244753E+03  0.65616397991E+03  0.10566000000E+00 0.  1.
         13    1    1    2    0    0  0.42601439467E+03 -0.19709526815E+03  0.10020743447E+03  0.47997536425E+03  0.10566000000E+00 0. -1.
          4    1    1    2  501    0 -0.80889145715E+02  0.58696354758E+03  0.61104337852E+03  0.85114233270E+03  0.00000000000E+00 0.  1.
</event>
<event>
 5    1  0.8445827E-005  0.4134882E+02  0.7818608E-02  0.1362447E+00
         21   -1    0    0  501  502  0.00000000000E+00  0.00000000000E+00  0.14008295346E+03  0.14008295346E+03  0.00000000000E+00 0.  1.
          4   -1    0    0  502    0 -0.00000000000E+00 -0.00000000000E+00 -0.30548294768E+02  0.30548294768E+02  0.00000000000E+00 0.  1.
        -13    1    1    2    0    0  0.15945029303E+02  0.21829232145E+02 -0.12625102499E+02  0.29835611484E+02  0.10566000000E+00 0.  1.
         13    1    1    2    0    0 -0.52695958683E+01  0.23116780517E+02  0.44985051287E+02  0.50850960516E+02  0.10566000000E+00 0. -1.
          4    1    1    2  501    0 -0.10675433434E+02 -0.44946012662E+02  0.77174709905E+02  0.89944676230E+02  0.00000000000E+00 0.  1.
</event>
<event>
 5    1  0.8445827E-005  0.1859121E+03  0.7818608E-02  0.1070248E+00
         21   -1    0    0  501  502  0.00000000000E+00  0.00000000000E+00  0.41210296060E+03  0.41210296060E+03  0.00000000000E+00 0. -1.
          4   -1    0    0  502    0 -0.00000000000E+00 -0.00000000000E+00 -0.14583570989E+03  0.14583570989E+03  0.00000000000E+00 0.  1.
        -13    1    1    2    0    0 -0.17680454195E+03 -0.18146570434E+02  0.25341231897E+03  0.30952699179E+03  0.10566000000E+00 0.  1.
         13    1    1    2    0    0  0.18690655175E+03  0.21208491788E+02 -0.41843687047E+02  0.19270382591E+03  0.10566000000E+00 0. -1.
          4    1    1    2  501    0 -0.10102009800E+02 -0.30619213546E+01  0.54698618784E+02  0.55707852779E+02  0.00000000000E+00 0.  1.
</event>
<event>
 5    1  0.8445827E-005  0.2526792E+03  0.7818608E-02  0.1029014E+00
         -4   -1    0    0    0  501 -0.00000000000E+00  0.00000000000E+00  0.46183811612E+03  0.46183811612E+03  0.00000000000E+00 0. -1.
         21   -1    0    0  501  502  0.00000000000E+00 -0.00000000000E+00 -0.71228241497E+03  0.71228241497E+03  0.00000000000E+00 0. -1.
        -13    1    1    2    0    0  0.23017851897E+03  0.11662968376E+03 -0.20960881481E+03  0.33244623646E+03  0.10566000000E+00 0.  1.
         13    1    1    2    0    0 -0.22874316318E+03 -0.10554114717E+03  0.36071144199E+03  0.43997173091E+03  0.10566000000E+00 0. -1.
         -4    1    1    2    0  502 -0.14353557815E+01 -0.11088536591E+02 -0.40154692604E+03  0.40170256373E+03  0.00000000000E+00 0. -1.
</event>
<event>
 5    1  0.8445827E-005  0.3233532E+03  0.7818608E-02  0.1034034E+00
         21   -1    0    0  501  502  0.00000000000E+00  0.00000000000E+00  0.33498101449E+03  0.33498101449E+03  0.00000000000E+00 0. -1.
         -4   -1    0    0    0  501 -0.00000000000E+00 -0.00000000000E+00 -0.10457185365E+04  0.10457185365E+04  0.00000000000E+00 0. -1.
        -13    1    1    2    0    0 -0.79526665027E+02  0.65915762968E+02 -0.19524050305E+03  0.22088060904E+03  0.10566000000E+00 0.  1.
         13    1    1    2    0    0 -0.28671197859E+02  0.31393667735E+03  0.17778903508E+03  0.36192157594E+03  0.10566000000E+00 0. -1.
         -4    1    1    2    0  502  0.10819786289E+03 -0.37985244032E+03 -0.69328605399E+03  0.79789736596E+03  0.00000000000E+00 0. -1.
</event>
<event>
 5    1  0.8445827E-005  0.4923398E+02  0.7818608E-02  0.1294939E+00
         21   -1    0    0  501  502  0.00000000000E+00  0.00000000000E+00  0.38552290034E+02  0.38552290034E+02  0.00000000000E+00 0. -1.
          4   -1    0    0  502    0 -0.00000000000E+00 -0.00000000000E+00 -0.11963784301E+03  0.11963784301E+03  0.00000000000E+00 0.  1.
        -13    1    1    2    0    0 -0.37215042143E+02 -0.34293385558E+02 -0.59164393939E+02  0.77855201040E+02  0.10566000000E+00 0.  1.
         13    1    1    2    0    0  0.18782210180E+02  0.46404939284E+02 -0.28127395829E+02  0.57422568467E+02  0.10566000000E+00 0. -1.
          4    1    1    2  501    0  0.18432831962E+02 -0.12111553726E+02  0.62062367910E+01  0.22912363538E+02  0.00000000000E+00 0.  1.
</event>
<event>
 5    1  0.8445827E-005  0.4711421E+02  0.7818608E-02  0.1304006E+00
         21   -1    0    0  501  502  0.00000000000E+00  0.00000000000E+00  0.82751693177E+03  0.82751693177E+03  0.00000000000E+00 0.  1.
          4   -1    0    0  502    0 -0.00000000000E+00 -0.00000000000E+00 -0.15248031476E+02  0.15248031476E+02  0.00000000000E+00 0.  1.
        -13    1    1    2    0    0 -0.34917500931E+02 -0.28209438184E+02  0.37157700076E+02  0.58272721859E+02  0.10566000000E+00 0.  1.
         13    1    1    2    0    0  0.51265342292E+02  0.23796406772E+02  0.17009824521E+03  0.17924237357E+03  0.10566000000E+00 0. -1.
          4    1    1    2  501    0 -0.16347841361E+02  0.44130314119E+01  0.60501295501E+03  0.60524986782E+03  0.00000000000E+00 0.  1.
</event>
<event>
 5    1  0.8445827E-005  0.2259558E+03  0.7818608E-02  0.1079563E+00
         -4   -1    0    0    0  501 -0.00000000000E+00  0.00000000000E+00  0.80009320911E+03  0.80009320911E+03  0.00000000000E+00 0. -1.
         21   -1    0    0  501  502  0.00000000000E+00 -0.00000000000E+00 -0.56144280590E+03  0.56144280590E+03  0.00000000000E+00 0. -1.
        -13    1    1    2    0    0  0.68056890890E+02  0.41106219298E+02  0.35548042560E+03  0.36426337424E+03  0.10566000000E+00 0.  1.
         13    1    1    2    0    0 -0.26389058134E+03  0.67062797331E+02  0.37123136109E+03  0.46037853156E+03  0.10566000000E+00 0. -1.
         -4    1    1    2    0  502  0.19583369045E+03 -0.10816901663E+03 -0.48806138347E+03  0.53689410921E+03  0.00000000000E+00 0. -1.
</event>
<event>
 5    1  0.8445827E-005  0.1861603E+03  0.7818608E-02  0.1070061E+00
         21   -1    0    0  501  502  0.00000000000E+00  0.00000000000E+00  0.65629116711E+03  0.65629116711E+03  0.00000000000E+00 0.  1.
          4   -1    0    0  502    0 -0.00000000000E+00 -0.00000000000E+00 -0.12114396308E+03  0.12114396308E+03  0.00000000000E+00 0.  1.
        -13    1    1    2    0    0  0.17674595914E+03  0.71416262018E+02  0.55427897552E+02  0.19852375058E+03  0.10566000000E+00 0.  1.
         13    1    1    2    0    0 -0.17024764581E+03 -0.59896539140E+02  0.11510760888E+03  0.21405987268E+03  0.10566000000E+00 0. -1.
          4    1    1    2  501    0 -0.64983133301E+01 -0.11519722878E+02  0.36461169760E+03  0.36485150694E+03  0.00000000000E+00 0.  1.
</event>
<event>
 5    1  0.8445827E-005  0.9713591E+02  0.7818608E-02  0.1169383E+00
         21   -1    0    0  501  502  0.00000000000E+00  0.00000000000E+00  0.14544092188E+03  0.14544092188E+03  0.00000000000E+00 0. -1.
         -4   -1    0    0    0  501 -0.00000000000E+00 -0.00000000000E+00 -0.23824919886E+03  0.23824919886E+03  0.00000000000E+00 0. -1.
        -13    1    1    2    0    0  0.33996800537E+01  0.97197203724E+02  0.56262045896E+02  0.11235783555E+03  0.10566000000E+00 0.  1.
         13    1    1    2    0    0 -0.19775947083E+02 -0.95254090401E+02 -0.19750609344E+03  0.22016606898E+03  0.10566000000E+00 0. -1.
         -4    1    1    2    0  502  0.16376267029E+02 -0.19431133230E+01  0.48435770559E+02  0.51166216206E+02  0.00000000000E+00 0. -1.
</event>
<event>
 5    1  0.8445827E-005  0.4776992E+03  0.7818608E-02  0.9876872E-01
         -4   -1    0    0    0  501 -0.00000000000E+00  0.00000000000E+00  0.22604215354E+04  0.22604215354E+04  0.00000000000E+00 0. -1.
         21   -1    0    0  501  502  0.00000000000E+00 -0.00000000000E+00 -0.16697517672E+03  0.16697517672E+03  0.00000000000E+00 0. -1.
        -13    1    1    2    0    0 -0.37092210861E+02  0.13688135666E+03  0.62038982739E+03  0.63639287158E+03  0.10566000000E+00 0.  1.
         13    1    1    2    0    0 -0.11583592317E+03  0.36620633090E+03  0.10437901234E+04  0.11122152987E+04  0.10566000000E+00 0. -1.
         -4    1    1    2    0  502  0.15292813403E+03 -0.50308768756E+03  0.42926640795E+03  0.67878854185E+03  0.00000000000E+00 0. -1.
</event>
<event>
 5    1  0.8445827E-005  0.4648022E+02  0.7818608E-02  0.1306823E+00
          4   -1    0    0  502    0 -0.00000000000E+00  0.00000000000E+00  0.37373776016E+02  0.37373776016E+02  0.00000000000E+00 0.  1.
         21   -1    0    0  501  502  0.00000000000E+00 -0.00000000000E+00 -0.34748742482E+03  0.34748742482E+03  0.00000000000E+00 0. -1.
        -13    1    1    2    0    0  0.44507399653E+02  0.85180389315E+01  0.14767607466E+02  0.47660874997E+02  0.10566000000E+00 0.  1.
         13    1    1    2    0    0 -0.56072498727E+02 -0.30401193983E+02 -0.20125493513E+03  0.21112062378E+03  0.10566000000E+00 0. -1.
          4    1    1    2  501    0  0.11565099074E+02  0.21883155052E+02 -0.12362632114E+03  0.12607970205E+03  0.00000000000E+00 0.  1.
</event>
<event>
 5    1  0.8445827E-005  0.6558175E+02  0.7818608E-02  0.1238820E+00
          4   -1    0    0  502    0 -0.00000000000E+00  0.00000000000E+00  0.10376264845E+03  0.10376264845E+03  0.00000000000E+00 0.  1.
         21   -1    0    0  501  502  0.00000000000E+00 -0.00000000000E+00 -0.63320646322E+02  0.63320646322E+02  0.00000000000E+00 0. -1.
        -13    1    1    2    0    0 -0.71365138730E+02  0.29852607712E+02  0.41048028131E+02  0.87573471957E+02  0.10566000000E+00 0.  1.
         13    1    1    2    0    0  0.51206660002E+02 -0.16134890032E+02  0.65786076921E+01  0.54090164985E+02  0.10566000000E+00 0. -1.
          4    1    1    2  501    0  0.20158478727E+02 -0.13717717680E+02 -0.71846336945E+01  0.25419657832E+02  0.00000000000E+00 0.  1.
</event>
<event>
 5    1  0.8445827E-005  0.2700528E+03  0.7818608E-02  0.1020495E+00
          4   -1    0    0  502    0 -0.00000000000E+00  0.00000000000E+00  0.18186190331E+04  0.18186190331E+04  0.00000000000E+00 0.  1.
         21   -1    0    0  501  502  0.00000000000E+00 -0.00000000000E+00 -0.17721425822E+03  0.17721425822E+03  0.00000000000E+00 0.  1.
        -13    1    1    2    0    0  0.37789384725E+02 -0.26538959950E+03  0.14843865820E+04  0.15083975647E+04  0.10566000000E+00 0.  1.
         13    1    1    2    0    0 -0.36553013679E+02  0.27775627763E+03  0.26089405521E+03  0.38281900656E+03  0.10566000000E+00 0. -1.
          4    1    1    2  501    0 -0.12363710456E+01 -0.12366678133E+02 -0.10387586235E+03  0.10461672008E+03  0.00000000000E+00 0.  1.
</event>
<event>
 5    1  0.8445827E-005  0.1671583E+03  0.7818608E-02  0.1097669E+00
         -4   -1    0    0    0  501 -0.00000000000E+00  0.00000000000E+00  0.17386672796E+04  0.17386672796E+04  0.00000000000E+00 0. -1.
         21   -1    0    0  501  502  0.00000000000E+00 -0.00000000000E+00 -0.26640764031E+03  0.26640764031E+03  0.00000000000E+00 0. -1.
        -13    1    1    2    0    0  0.23223225416E+02 -0.19675216088E+03  0.56557094866E+03  0.59926725269E+03  0.10566000000E+00 0.  1.
         13    1    1    2    0    0  0.87799131533E+02 -0.10646287651E+03 -0.20558869778E+03  0.24760806810E+03  0.10566000000E+00 0. -1.
         -4    1    1    2    0  502 -0.11102235695E+03  0.30321503739E+03  0.11122773884E+04  0.11581995991E+04  0.00000000000E+00 0. -1.
</event>
<event>
 5    1  0.8445827E-005  0.4804978E+03  0.7818608E-02  0.9521772E-01
         21   -1    0    0  501  502  0.00000000000E+00  0.00000000000E+00  0.29863173835E+03  0.29863173835E+03  0.00000000000E+00 0. -1.
         -4   -1    0    0    0  501 -0.00000000000E+00 -0.00000000000E+00 -0.23965423107E+04  0.23965423107E+04  0.00000000000E+00 0. -1.
        -13    1    1    2    0    0  0.14216572441E+03  0.40105879441E+03 -0.12438342817E+04  0.13146037355E+04  0.10566000000E+00 0.  1.
         13    1    1    2    0    0 -0.39828486663E+03 -0.58571847440E+03 -0.78507055365E+03  0.10573706784E+04  0.10566000000E+00 0. -1.
         -4    1    1    2    0  502  0.25611914222E+03  0.18465967999E+03 -0.69005737006E+02  0.32319963516E+03  0.00000000000E+00 0. -1.
</event>
<event>
 5    1  0.8445827E-005  0.3898938E+03  0.7818608E-02  0.9758695E-01
         21   -1    0    0  501  502  0.00000000000E+00  0.00000000000E+00  0.17317362056E+03  0.17317362056E+03  0.00000000000E+00 0.  1.
         -4   -1    0    0    0  501 -0.00000000000E+00 -0.00000000000E+00 -0.15018079128E+04  0.15018079128E+04  0.00000000000E+00 0. -1.
        -13    1    1    2    0    0  0.38455999596E+03 -0.50114786832E+02 -0.42911815967E+03  0.57839457853E+03  0.10566000000E+00 0.  1.
         13    1    1    2    0    0 -0.38552343867E+03  0.65591675526E+02 -0.95870711251E+03  0.10353984394E+04  0.10566000000E+00 0. -1.
         -4    1    1    2    0  502  0.96344271046E+00 -0.15476888693E+02  0.59190979958E+02  0.61188515376E+02  0.00000000000E+00 0. -1.
</event>
<event>
 5    1  0.8445827E-005  0.4777725E+03  0.7818608E-02  0.9528068E-01
         21   -1    0    0  501  502  0.00000000000E+00  0.00000000000E+00  0.75018690077E+03  0.75018690077E+03  0.00000000000E+00 0. -1.
         -4   -1    0    0    0  501 -0.00000000000E+00 -0.00000000000E+00 -0.20089023804E+04  0.20089023804E+04  0.00000000000E+00 0. -1.
        -13    1    1    2    0    0  0.69956139435E+03 -0.17696453165E+01 -0.13355393838E+04  0.15076653253E+04  0.10566000000E+00 0.  1.
         13    1    1    2    0    0 -0.33206929330E+03  0.78383907043E+02 -0.47449816068E+03  0.58443354463E+03  0.10566000000E+00 0. -1.
         -4    1    1    2    0  502 -0.36749210105E+03 -0.76614261727E+02  0.55132206490E+03  0.66699041124E+03  0.00000000000E+00 0. -1.
</event>
<event>
 5    1  0.8445827E-005  0.1162054E+03  0.7818608E-02  0.1176785E+00
         21   -1    0    0  501  502  0.00000000000E+00  0.00000000000E+00  0.19614283447E+03  0.19614283447E+03  0.00000000000E+00 0.  1.
          4   -1    0    0  502    0 -0.00000000000E+00 -0.00000000000E+00 -0.11344899868E+03  0.11344899868E+03  0.00000000000E+00 0.  1.
        -13    1    1    2    0    0 -0.11936109132E+03 -0.26250292681E+02  0.40425986236E+02  0.12872614153E+03  0.10566000000E+00 0.  1.
         13    1    1    2    0    0  0.56698989006E+01  0.47221058789E+02 -0.17553604564E+02  0.50696314895E+02  0.10566000000E+00 0. -1.
          4    1    1    2  501    0  0.11369119242E+03 -0.20970766108E+02  0.59821454117E+02  0.13016937673E+03  0.00000000000E+00 0.  1.
</event>
<event>
 5    1  0.8445827E-005  0.5390658E+03  0.7818608E-02  0.9460641E-01
          4   -1    0    0  502    0 -0.00000000000E+00  0.00000000000E+00  0.20273408676E+04  0.20273408676E+04  0.00000000000E+00 0.  1.
         21   -1    0    0  501  502  0.00000000000E+00 -0.00000000000E+00 -0.31237973149E+03  0.31237973149E+03  0.00000000000E+00 0.  1.
        -13    1    1    2    0    0  0.41677639533E+03 -0.46842830145E+03  0.71526541805E+03  0.95117415162E+03  0.10566000000E+00 0.  1.
         13    1    1    2    0    0  0.11461081095E+03  0.40934434288E+03  0.38103744471E+03  0.57086598643E+03  0.10566000000E+00 0. -1.
          4    1    1    2  501    0 -0.53138720628E+03  0.59083958575E+02  0.61865827336E+03  0.81768046103E+03  0.00000000000E+00 0.  1.
</event>
<event>
 5    1  0.8445827E-005  0.5834102E+03  0.7818608E-02  0.9311799E-01
         -4   -1    0    0    0  501 -0.00000000000E+00  0.00000000000E+00  0.87552844259E+03  0.87552844259E+03  0.00000000000E+00 0. -1.
         21   -1    0    0  501  502  0.00000000000E+00 -0.00000000000E+00 -0.87805402110E+03  0.87805402110E+03  0.00000000000E+00 0.  1.
        -13    1    1    2    0    0  0.20391906058E+03 -0.49443735012E+03 -0.10089034884E+03  0.54427029141E+03  0.10566000000E+00 0.  1.
         13    1    1    2    0    0 -0.63026325103E+03  0.35101228233E+03 -0.79118263165E+02  0.72574175757E+03  0.10566000000E+00 0. -1.
         -4    1    1    2    0  502  0.42634419046E+03  0.14342506778E+03  0.17748303349E+03  0.48357041471E+03  0.00000000000E+00 0. -1.
</event>
<event>
 5    1  0.8445827E-005  0.6537999E+03  0.7818608E-02  0.9192835E-01
         21   -1    0    0  501  502  0.00000000000E+00  0.00000000000E+00  0.54201036262E+03  0.54201036262E+03  0.00000000000E+00 0.  1.
         -4   -1    0    0    0  501 -0.00000000000E+00 -0.00000000000E+00 -0.25983552618E+04  0.25983552618E+04  0.00000000000E+00 0. -1.
        -13    1    1    2    0    0 -0.40650363330E+03  0.60624413676E+03 -0.17012371145E+04  0.18512117351E+04  0.10566000000E+00 0.  1.
         13    1    1    2    0    0 -0.10778649941E+03 -0.61082128101E+03 -0.44981712450E+03  0.76619581273E+03  0.10566000000E+00 0. -1.
         -4    1    1    2    0  502  0.51429013271E+03  0.45771442452E+01  0.94709339791E+02  0.52295807662E+03  0.00000000000E+00 0. -1.
</event>
<event>
 5    1  0.8445827E-005  0.1670020E+03  0.7818608E-02  0.1136109E+00
         21   -1    0    0  501  502  0.00000000000E+00  0.00000000000E+00  0.27741127444E+03  0.27741127444E+03  0.00000000000E+00 0. -1.
         -4   -1    0    0    0  501 -0.00000000000E+00 -0.00000000000E+00 -0.10536442515E+04  0.10536442515E+04  0.00000000000E+00 0. -1.
        -13    1    1    2    0    0  0.39375845270E+02  0.18351011204E+02 -0.19188498942E+03  0.19674114245E+03  0.10566000000E+00 0.  1.
         13    1    1    2    0    0  0.15523239957E+03 -0.59025770730E+02  0.23691655105E+03  0.28932784659E+03  0.10566000000E+00 0. -1.
         -4    1    1    2    0  502 -0.19460824484E+03  0.40674759526E+02 -0.82126453870E+03  0.84498653690E+03  0.00000000000E+00 0. -1.
</event>
<event>
 5    1  0.2448951E-004  0.4748470E+03  0.7818608E-02  0.1018690E+00
         -4   -1    0    0    0  501 -0.00000000000E+00  0.00000000000E+00  0.48534177239E+03  0.48534177239E+03  0.00000000000E+00 0. -1.
         21   -1    0    0  501  502  0.00000000000E+00 -0.00000000000E+00 -0.60795702103E+03  0.60795702103E+03  0.00000000000E+00 0. -1.
        -13    1    1    2    0    0 -0.42118870035E+02  0.31481886618E+02  0.63898448556E+02  0.82753436726E+02  0.10566000000E+00 0.  1.
         13    1    1    2    0    0 -0.20748987597E+03  0.39255730693E+03  0.79669901179E+02  0.45111039910E+03  0.10566000000E+00 0. -1.
         -4    1    1    2    0  502  0.24960874600E+03 -0.42403919355E+03 -0.26618359837E+03  0.55943495760E+03  0.00000000000E+00 0. -1.
</event>
<event>
 5    1  0.8445827E-005  0.2025338E+03  0.7818608E-02  0.1075658E+00
         -4   -1    0    0    0  501 -0.00000000000E+00  0.00000000000E+00  0.47666692808E+03  0.47666692808E+03  0.00000000000E+00 0. -1.
         21   -1    0    0  501  502  0.00000000000E+00 -0.00000000000E+00 -0.46282517299E+03  0.46282517299E+03  0.00000000000E+00 0.  1.
        -13    1    1    2    0    0  0.90939103543E+02 -0.83220279906E+02 -0.87724131710E+02  0.15129795104E+03  0.10566000000E+00 0.  1.
         13    1    1    2    0    0  0.26412781565E+02  0.24670710260E+03  0.37441063046E+03  0.44916072944E+03  0.10566000000E+00 0. -1.
         -4    1    1    2    0  502 -0.11735188511E+03 -0.16348682269E+03 -0.27284474367E+03  0.33903342059E+03  0.00000000000E+00 0. -1.
</event>
<event>
 5    1  0.8445827E-005  0.9739826E+02  0.7818608E-02  0.1168933E+00
         -4   -1    0    0    0  501 -0.00000000000E+00  0.00000000000E+00  0.30088451706E+02  0.30088451706E+02  0.00000000000E+00 0. -1.
         21   -1    0    0  501  502  0.00000000000E+00 -0.00000000000E+00 -0.15360563259E+04  0.15360563259E+04  0.00000000000E+00 0. -1.
        -13    1    1    2    0    0  0.70522047205E+02  0.50542831568E+02 -0.38325812133E+03  0.39295640432E+03  0.10566000000E+00 0.  1.
         13    1    1    2    0    0 -0.92905826919E+02 -0.38686781918E+02 -0.75847927477E+02  0.12602015330E+03  0.10566000000E+00 0. -1.
         -4    1    1    2    0  502  0.22383779714E+02 -0.11856049651E+02 -0.10468618254E+04  0.10471682200E+04  0.00000000000E+00 0. -1.
</event>
<event>
 5    1  0.8445827E-005  0.5756607E+03  0.7818608E-02  0.9325972E-01
         -4   -1    0    0    0  501 -0.00000000000E+00  0.00000000000E+00  0.30593787520E+04  0.30593787520E+04  0.00000000000E+00 0. -1.
         21   -1    0    0  501  502  0.00000000000E+00 -0.00000000000E+00 -0.20301231716E+03  0.20301231716E+03  0.00000000000E+00 0.  1.
        -13    1    1    2    0    0 -0.55232853278E+03  0.14525835309E+03  0.72790035272E+03  0.92520577815E+03  0.10566000000E+00 0.  1.
         13    1    1    2    0    0  0.56104065171E+03 -0.13651130587E+03  0.21949180520E+04  0.22695962671E+04  0.10566000000E+00 0. -1.
         -4    1    1    2    0  502 -0.87121189287E+01 -0.87470472114E+01 -0.66451969885E+02  0.67589023908E+02  0.00000000000E+00 0. -1.
</event>
<event>
 5    1  0.8445827E-005  0.3486202E+03  0.7818608E-02  0.1031784E+00
         21   -1    0    0  501  502  0.00000000000E+00  0.00000000000E+00  0.12508598827E+03  0.12508598827E+03  0.00000000000E+00 0.  1.
          4   -1    0    0  502    0 -0.00000000000E+00 -0.00000000000E+00 -0.13444665136E+04  0.13444665136E+04  0.00000000000E+00 0.  1.
        -13    1    1    2    0    0 -0.27572722858E+03  0.29246452226E+03 -0.68211290435E+03  0.79173166338E+03  0.10566000000E+00 0.  1.
         13    1    1    2    0    0  0.39752126397E+02 -0.78870443124E+02 -0.17187402748E+03  0.19323941326E+03  0.10566000000E+00 0. -1.
          4    1    1    2  501    0  0.23597510218E+03 -0.21359407913E+03 -0.36539359349E+03  0.48458142520E+03  0.00000000000E+00 0.  1.
</event>
<event>
 5    1  0.8445827E-005  0.1733954E+03  0.7818608E-02  0.1112840E+00
         -4   -1    0    0    0  501 -0.00000000000E+00  0.00000000000E+00  0.83244950443E+03  0.83244950443E+03  0.00000000000E+00 0. -1.
         21   -1    0    0  501  502  0.00000000000E+00 -0.00000000000E+00 -0.76144606063E+02  0.76144606063E+02  0.00000000000E+00 0. -1.
        -13    1    1    2    0    0 -0.67719123228E+02 -0.21194718199E+02  0.30370943753E+02  0.77184850319E+02  0.10566000000E+00 0.  1.
         13    1    1    2    0    0  0.15229422443E+03 -0.10323234337E+03  0.15372972245E+03  0.23975672303E+03  0.10566000000E+00 0. -1.
         -4    1    1    2    0  502 -0.84575101199E+02  0.12442706157E+03  0.57220423216E+03  0.59165253714E+03  0.00000000000E+00 0. -1.
</event>
<event>
 5    1  0.8445827E-005  0.5574566E+03  0.7818608E-02  0.9360211E-01
         21   -1    0    0  501  502  0.00000000000E+00  0.00000000000E+00  0.31201206832E+03  0.31201206832E+03  0.00000000000E+00 0.  1.
          4   -1    0    0  502    0 -0.00000000000E+00 -0.00000000000E+00 -0.21693953855E+04  0.21693953855E+04  0.00000000000E+00 0.  1.
        -13    1    1    2    0    0  0.45404704524E+03  0.64938254468E+03 -0.73858444846E+03  0.10832190025E+04  0.10566000000E+00 0.  1.
         13    1    1    2    0    0 -0.25731475269E+03 -0.40010429890E+03 -0.88183723749E+03  0.10019637002E+04  0.10566000000E+00 0. -1.
          4    1    1    2  501    0 -0.19673229255E+03 -0.24927824578E+03 -0.23696163124E+03  0.39622475116E+03  0.00000000000E+00 0.  1.
</event>
<event>
 5    1  0.8445827E-005  0.3098619E+03  0.7818608E-02  0.1037572E+00
         21   -1    0    0  501  502  0.00000000000E+00  0.00000000000E+00  0.51085621626E+02  0.51085621626E+02  0.00000000000E+00 0. -1.
         -4   -1    0    0    0  501 -0.00000000000E+00 -0.00000000000E+00 -0.31519059541E+04  0.31519059541E+04  0.00000000000E+00 0. -1.
        -13    1    1    2    0    0  0.10035564152E+03 -0.32077095352E+02 -0.18266673146E+03  0.21087280711E+03  0.10566000000E+00 0.  1.
         13    1    1    2    0    0 -0.29130589077E+03 -0.19157789208E+03 -0.19258122930E+04  0.19571188543E+04  0.10566000000E+00 0. -1.
         -4    1    1    2    0  502  0.19095024925E+03  0.22365498743E+03 -0.99234130798E+03  0.10349999143E+04  0.00000000000E+00 0. -1.
</event>
<event>
 5    1  0.8445827E-005  0.1567549E+03  0.7818608E-02  0.1094634E+00
         21   -1    0    0  501  502  0.00000000000E+00  0.00000000000E+00  0.17230010160E+03  0.17230010160E+03  0.00000000000E+00 0. -1.
         -4   -1    0    0    0  501 -0.00000000000E+00 -0.00000000000E+00 -0.24596282810E+04  0.24596282810E+04  0.00000000000E+00 0. -1.
        -13    1    1    2    0    0 -0.28276343221E+02 -0.15012727772E+03 -0.75955087429E+03  0.77476144258E+03  0.10566000000E+00 0.  1.
         13    1    1    2    0    0  0.65992413505E+02  0.23418575913E+03  0.72781300742E+02  0.25395884966E+03  0.10566000000E+00 0. -1.
         -4    1    1    2    0  502 -0.37716070283E+02 -0.84058481407E+02 -0.16005586059E+04  0.16032080904E+04  0.00000000000E+00 0. -1.
</event>
<event>
 5    1  0.8445827E-005  0.3671678E+03  0.7818608E-02  0.1005599E+00
         21   -1    0    0  501  502  0.00000000000E+00  0.00000000000E+00  0.49502729828E+03  0.49502729828E+03  0.00000000000E+00 0. -1.
         -4   -1    0    0    0  501 -0.00000000000E+00 -0.00000000000E+00 -0.70701558062E+03  0.70701558062E+03  0.00000000000E+00 0. -1.
        -13    1    1    2    0    0 -0.16635106626E+03  0.47253148703E+02 -0.14593749994E+01  0.17293836546E+03  0.10566000000E+00 0.  1.
         13    1    1    2    0    0 -0.22651614088E+03 -0.72991647433E+02 -0.49104955325E+03  0.54568032545E+03  0.10566000000E+00 0. -1.
         -4    1    1    2    0  502  0.39286720714E+03  0.25738498730E+02  0.28052064590E+03  0.48342418799E+03  0.00000000000E+00 0. -1.
</event>
<event>
 5    1  0.8445827E-005  0.2918759E+03  0.7818608E-02  0.1014497E+00
         21   -1    0    0  501  502  0.00000000000E+00  0.00000000000E+00  0.34222546855E+03  0.34222546855E+03  0.00000000000E+00 0.  1.
          4   -1    0    0  502    0 -0.00000000000E+00 -0.00000000000E+00 -0.10703438067E+04  0.10703438067E+04  0.00000000000E+00 0.  1.
        -13    1    1    2    0    0 -0.28586793265E+03  0.37385951064E+02 -0.69401767324E+03  0.75151761536E+03  0.10566000000E+00 0.  1.
         13    1    1    2    0    0  0.66744191683E+02 -0.24987837246E+03 -0.18748588996E+03  0.31944476556E+03  0.10566000000E+00 0. -1.
          4    1    1    2  501    0  0.21912374097E+03  0.21249242140E+03  0.15338522504E+03  0.34160689435E+03  0.00000000000E+00 0.  1.
</event>
<event>
 5    1  0.8445827E-005  0.1356738E+03  0.7818608E-02  0.1116168E+00
         21   -1    0    0  501  502  0.00000000000E+00  0.00000000000E+00  0.43523275477E+03  0.43523275477E+03  0.00000000000E+00 0.  1.
         -4   -1    0    0    0  501 -0.00000000000E+00 -0.00000000000E+00 -0.73654151490E+02  0.73654151490E+02  0.00000000000E+00 0. -1.
        -13    1    1    2    0    0  0.19784681645E+02 -0.15265735782E+03  0.19783271792E+03  0.25066610853E+03  0.10566000000E+00 0.  1.
         13    1    1    2    0    0 -0.83401602593E+01  0.12814564712E+03  0.44443778269E+02  0.13589012378E+03  0.10566000000E+00 0. -1.
         -4    1    1    2    0  502 -0.11444521386E+02  0.24511710699E+02  0.11930210709E+03  0.12233067394E+03  0.00000000000E+00 0. -1.
</event>
<event>
 5    1  0.8445827E-005  0.5185294E+03  0.7818608E-02  0.9534403E-01
         -4   -1    0    0    0  501 -0.00000000000E+00  0.00000000000E+00  0.17872802250E+04  0.17872802250E+04  0.00000000000E+00 0. -1.
         21   -1    0    0  501  502  0.00000000000E+00 -0.00000000000E+00 -0.32304008968E+03  0.32304008968E+03  0.00000000000E+00 0. -1.
        -13    1    1    2    0    0  0.25720623939E+03  0.25938197134E+03  0.62149706036E+03  0.72089712431E+03  0.10566000000E+00 0.  1.
         13    1    1    2    0    0  0.20365602498E+02 -0.63548370341E+03  0.45077453542E+03  0.77939206309E+03  0.10566000000E+00 0. -1.
         -4    1    1    2    0  502 -0.27757184189E+03  0.37610173207E+03  0.39196853954E+03  0.61003112729E+03  0.00000000000E+00 0. -1.
</event>
<event>
 5    1  0.8445827E-005  0.1231955E+03  0.7818608E-02  0.1131028E+00
         -4   -1    0    0    0  501 -0.00000000000E+00  0.00000000000E+00  0.34129162130E+03  0.34129162130E+03  0.00000000000E+00 0. -1.
         21   -1    0    0  501  502  0.00000000000E+00 -0.00000000000E+00 -0.11044196420E+04  0.11044196420E+04  0.00000000000E+00 0. -1.
        -13    1    1    2    0    0  0.35115123221E+02  0.11959898456E+03 -0.26365307196E+03  0.29163323285E+03  0.10566000000E+00 0.  1.
         13    1    1    2    0    0 -0.23300000793E+02 -0.12093333995E+03  0.31567117469E+03  0.33884519244E+03  0.10566000000E+00 0. -1.
         -4    1    1    2    0  502 -0.11815122428E+02  0.13343553880E+01 -0.81514612345E+03  0.81523283802E+03  0.00000000000E+00 0. -1.
</event>
<event>
 5    1  0.8445827E-005  0.3303299E+02  0.7818608E-02  0.1382090E+00
         21   -1    0    0  501  502  0.00000000000E+00  0.00000000000E+00  0.55012061010E+02  0.55012061010E+02  0.00000000000E+00 0. -1.
          4   -1    0    0  502    0 -0.00000000000E+00 -0.00000000000E+00 -0.52120006069E+02  0.52120006069E+02  0.00000000000E+00 0.  1.
        -13    1    1    2    0    0 -0.12309287035E+02  0.35482033687E+02 -0.33685492423E+02  0.50450141979E+02  0.10566000000E+00 0.  1.
         13    1    1    2    0    0 -0.26668697127E+01 -0.23137435660E+02  0.15217734668E+02  0.27821641494E+02  0.10566000000E+00 0. -1.
          4    1    1    2  501    0  0.14976156747E+02 -0.12344598028E+02  0.21359812696E+02  0.28860283606E+02  0.00000000000E+00 0.  1.
</event>
<event>
 5    1  0.8445827E-005  0.4792852E+03  0.7818608E-02  0.9688616E-01
         21   -1    0    0  501  502  0.00000000000E+00  0.00000000000E+00  0.22164708948E+03  0.22164708948E+03  0.00000000000E+00 0.  1.
          4   -1    0    0  502    0 -0.00000000000E+00 -0.00000000000E+00 -0.20007887958E+04  0.20007887958E+04  0.00000000000E+00 0.  1.
        -13    1    1    2    0    0  0.55825735037E+03  0.29047669853E+03 -0.77932405154E+03  0.10016855645E+04  0.10566000000E+00 0.  1.
         13    1    1    2    0    0 -0.26733647669E+03 -0.12053159030E+02 -0.58143045782E+03  0.64005894951E+03  0.10566000000E+00 0. -1.
          4    1    1    2  501    0 -0.29092087369E+03 -0.27842353950E+03 -0.41838719695E+03  0.58069137127E+03  0.00000000000E+00 0.  1.
</event>
<event>
 5    1  0.8445827E-005  0.2707438E+03  0.7818608E-02  0.1022719E+00
         21   -1    0    0  501  502  0.00000000000E+00  0.00000000000E+00  0.14970678433E+04  0.14970678433E+04  0.00000000000E+00 0. -1.
          4   -1    0    0  502    0 -0.00000000000E+00 -0.00000000000E+00 -0.28829549999E+03  0.28829549999E+03  0.00000000000E+00 0.  1.
        -13    1    1    2    0    0  0.28845748965E+03 -0.13746334892E+03 -0.12524785548E+03  0.34320683574E+03  0.10566000000E+00 0.  1.
         13    1    1    2    0    0 -0.21474091709E+03 -0.12782632936E+03  0.43231010896E+03  0.49934484419E+03  0.10566000000E+00 0. -1.
          4    1    1    2  501    0 -0.73716572564E+02  0.26528967828E+03  0.90171008979E+03  0.94281166333E+03  0.00000000000E+00 0.  1.
</event>
<event>
 5    1  0.8445827E-005  0.4016465E+03  0.7818608E-02  0.9736026E-01
         21   -1    0    0  501  502  0.00000000000E+00  0.00000000000E+00  0.41710011758E+03  0.41710011758E+03  0.00000000000E+00 0.  1.
          4   -1    0    0  502    0 -0.00000000000E+00 -0.00000000000E+00 -0.14725353698E+04  0.14725353698E+04  0.00000000000E+00 0.  1.
        -13    1    1    2    0    0 -0.60267507446E+02 -0.33611121262E+03 -0.97504418065E+03  0.10331089415E+04  0.10566000000E+00 0.  1.
         13    1    1    2    0    0 -0.35936619485E+03  0.19712320768E+03 -0.57368019220E+02  0.41387524908E+03  0.10566000000E+00 0. -1.
          4    1    1    2  501    0  0.41963370229E+03  0.13898800494E+03 -0.23023052388E+02  0.44265129680E+03  0.00000000000E+00 0.  1.
</event>
<event>
 5    1  0.8445827E-005  0.9591540E+02  0.7818608E-02  0.1171496E+00
         21   -1    0    0  501  502  0.00000000000E+00  0.00000000000E+00  0.34410250310E+02  0.34410250310E+02  0.00000000000E+00 0. -1.
          4   -1    0    0  502    0 -0.00000000000E+00 -0.00000000000E+00 -0.42352813543E+03  0.42352813543E+03  0.00000000000E+00 0.  1.
        -13    1    1    2    0    0  0.10097490000E+03  0.34480448576E+02 -0.27657544312E+03  0.29644361802E+03  0.10566000000E+00 0.  1.
         13    1    1    2    0    0 -0.80126602671E+02 -0.12554697362E+02 -0.99967995531E+02  0.12873035452E+03  0.10566000000E+00 0. -1.
          4    1    1    2  501    0 -0.20848297334E+02 -0.21925751214E+02 -0.12574446473E+02  0.32764413196E+02  0.00000000000E+00 0.  1.
</event>
<event>
 5    1  0.8445827E-005  0.6279373E+03  0.7818608E-02  0.9325602E-01
         21   -1    0    0  501  502  0.00000000000E+00  0.00000000000E+00  0.52610292502E+03  0.52610292502E+03  0.00000000000E+00 0. -1.
          4   -1    0    0  502    0 -0.00000000000E+00 -0.00000000000E+00 -0.19077439728E+04  0.19077439728E+04  0.00000000000E+00 0.  1.
        -13    1    1    2    0    0 -0.76047398066E+02  0.42286142035E+03 -0.47568364700E+03  0.64099136559E+03  0.10566000000E+00 0.  1.
         13    1    1    2    0    0 -0.54863392858E+03 -0.35899833383E+03 -0.96007204749E+03  0.11625907873E+04  0.10566000000E+00 0. -1.
          4    1    1    2  501    0  0.62468132665E+03 -0.63863086520E+02  0.54114646679E+02  0.63026474490E+03  0.00000000000E+00 0.  1.
</event>
<event>
 5    1  0.8445827E-005  0.3876101E+02  0.7818608E-02  0.1345796E+00
         21   -1    0    0  501  502  0.00000000000E+00  0.00000000000E+00  0.10964900811E+03  0.10964900811E+03  0.00000000000E+00 0.  1.
         -4   -1    0    0    0  501 -0.00000000000E+00 -0.00000000000E+00 -0.20669077048E+03  0.20669077048E+03  0.00000000000E+00 0. -1.
        -13    1    1    2    0    0 -0.45068130398E+02  0.90349964810E+01  0.89370801989E+02  0.10049835298E+03  0.10566000000E+00 0.  1.
         13    1    1    2    0    0  0.34977188390E+02  0.16794015869E+02 -0.18395515541E+03  0.18800253467E+03  0.10566000000E+00 0. -1.
         -4    1    1    2    0  502  0.10090942008E+02 -0.25829012350E+02 -0.24574089470E+01  0.27838890932E+02  0.00000000000E+00 0. -1.
</event>
<event>
 5    1  0.8445827E-005  0.8521628E+03  0.7818608E-02  0.8927476E-01
          4   -1    0    0  502    0 -0.00000000000E+00  0.00000000000E+00  0.29216190044E+04  0.29216190044E+04  0.00000000000E+00 0.  1.
         21   -1    0    0  501  502  0.00000000000E+00 -0.00000000000E+00 -0.76412693675E+03  0.76412693675E+03  0.00000000000E+00 0. -1.
        -13    1    1    2    0    0 -0.83111383862E+03 -0.91005335814E+02  0.41526519646E+03  0.93352952736E+03  0.10566000000E+00 0.  1.
         13    1    1    2    0    0  0.85142198864E+03  0.99727420089E+02  0.21651699790E+04  0.23286962039E+04  0.10566000000E+00 0. -1.
          4    1    1    2  501    0 -0.20308150017E+02 -0.87220842745E+01 -0.42294310782E+03  0.42352020986E+03  0.00000000000E+00 0.  1.
</event>
<event>
 5    1  0.8445827E-005  0.4816949E+02  0.7818608E-02  0.1308045E+00
          4   -1    0    0  502    0 -0.00000000000E+00  0.00000000000E+00  0.34464010261E+03  0.34464010261E+03  0.00000000000E+00 0.  1.
         21   -1    0    0  501  502  0.00000000000E+00 -0.00000000000E+00 -0.38446690365E+02  0.38446690365E+02  0.00000000000E+00 0.  1.
        -13    1    1    2    0    0  0.69654797710E+02  0.10433769001E+02  0.24106055397E+03  0.25113911727E+03  0.10566000000E+00 0.  1.
         13    1    1    2    0    0 -0.26947297643E+02 -0.30623967369E+02  0.73415909318E+02  0.83987446281E+02  0.10566000000E+00 0. -1.
          4    1    1    2  501    0 -0.42707500067E+02  0.20190198368E+02 -0.82830510400E+01  0.47960229427E+02  0.00000000000E+00 0.  1.
</event>
<event>
 5    1  0.8445827E-005  0.6604128E+03  0.7818608E-02  0.9182472E-01
         -4   -1    0    0    0  501 -0.00000000000E+00  0.00000000000E+00  0.20377706817E+04  0.20377706817E+04  0.00000000000E+00 0. -1.
         21   -1    0    0  501  502  0.00000000000E+00 -0.00000000000E+00 -0.39255518057E+03  0.39255518057E+03  0.00000000000E+00 0.  1.
        -13    1    1    2    0    0 -0.37360611054E+03 -0.44636859749E+03  0.82481548389E+03  0.10095281295E+04  0.10566000000E+00 0.  1.
         13    1    1    2    0    0  0.65246577069E+03  0.49832438441E+03  0.78329961824E+03  0.11347233483E+04  0.10566000000E+00 0. -1.
         -4    1    1    2    0  502 -0.27885966015E+03 -0.51955786917E+02  0.37100399023E+02  0.28607438449E+03  0.00000000000E+00 0. -1.
</event>
<event>
 5    1  0.8445827E-005  0.1314367E+03  0.7818608E-02  0.1121013E+00
         -4   -1    0    0    0  501 -0.00000000000E+00  0.00000000000E+00  0.22290650036E+03  0.22290650036E+03  0.00000000000E+00 0. -1.
         21   -1    0    0  501  502  0.00000000000E+00 -0.00000000000E+00 -0.11465232909E+03  0.11465232909E+03  0.00000000000E+00 0. -1.
        -13    1    1    2    0    0 -0.18380883912E+02  0.13427521370E+03  0.62538078338E+02  0.14926055177E+03  0.10566000000E+00 0.  1.
         13    1    1    2    0    0  0.32154039002E+02 -0.12437162408E+03  0.79093329742E+02  0.15085737991E+03  0.10566000000E+00 0. -1.
         -4    1    1    2    0  502 -0.13773155090E+02 -0.99035896273E+01 -0.33377236806E+02  0.37440897765E+02  0.00000000000E+00 0. -1.
</event>
<event>
 5    1  0.8445827E-005  0.4152046E+03  0.7818608E-02  0.9842003E-01
         -4   -1    0    0    0  501 -0.00000000000E+00  0.00000000000E+00  0.26075432543E+04  0.26075432543E+04  0.00000000000E+00 0. -1.
         21   -1    0    0  501  502  0.00000000000E+00 -0.00000000000E+00 -0.12818831050E+03  0.12818831050E+03  0.00000000000E+00 0. -1.
        -13    1    1    2    0    0  0.12765526267E+03 -0.20669146170E+03  0.74197849334E+03  0.78073639737E+03  0.10566000000E+00 0.  1.
         13    1    1    2    0    0 -0.58296202636E+02  0.54599192975E+03  0.11096191656E+04  0.12380469855E+04  0.10566000000E+00 0. -1.
         -4    1    1    2    0  502 -0.69359060033E+02 -0.33930046804E+03  0.62775728492E+03  0.71694818195E+03  0.00000000000E+00 0. -1.
</event>
<event>
 5    1  0.8445827E-005  0.1568751E+03  0.7818608E-02  0.1094523E+00
         -4   -1    0    0    0  501 -0.00000000000E+00  0.00000000000E+00  0.91271102239E+03  0.91271102239E+03  0.00000000000E+00 0. -1.
         21   -1    0    0  501  502  0.00000000000E+00 -0.00000000000E+00 -0.50519999895E+02  0.50519999895E+02  0.00000000000E+00 0.  1.
        -13    1    1    2    0    0  0.12360233718E+03 -0.34268887229E+00  0.13493386660E+03  0.18298856443E+03  0.10566000000E+00 0.  1.
         13    1    1    2    0    0 -0.17007791951E+03 -0.22277674904E+02  0.70211412810E+03  0.72276348382E+03  0.10566000000E+00 0. -1.
         -4    1    1    2    0  502  0.46475582326E+02  0.22620363776E+02  0.25143027806E+02  0.57478974044E+02  0.00000000000E+00 0. -1.
</event>
<event>
 5    1  0.8445827E-005  0.4054965E+02  0.7818608E-02  0.1340826E+00
         21   -1    0    0  501  502  0.00000000000E+00  0.00000000000E+00  0.25942695945E+02  0.25942695945E+02  0.00000000000E+00 0. -1.
          4   -1    0    0  502    0 -0.00000000000E+00 -0.00000000000E+00 -0.24771236916E+03  0.24771236916E+03  0.00000000000E+00 0.  1.
        -13    1    1    2    0    0 -0.59711950568E+02  0.27675369312E+02 -0.13003421846E+03  0.14574070208E+03  0.10566000000E+00 0.  1.
         13    1    1    2    0    0  0.22669297328E+02 -0.29311184230E+02 -0.81376418733E+02  0.89415743872E+02  0.10566000000E+00 0. -1.
          4    1    1    2  501    0  0.37042653241E+02  0.16358149180E+01 -0.10359036019E+02  0.38498619154E+02  0.00000000000E+00 0.  1.
</event>
<event>
 5    1  0.8445827E-005  0.4948031E+03  0.7818608E-02  0.9610365E-01
         -4   -1    0    0    0  501 -0.00000000000E+00  0.00000000000E+00  0.71743487490E+03  0.71743487490E+03  0.00000000000E+00 0. -1.
         21   -1    0    0  501  502  0.00000000000E+00 -0.00000000000E+00 -0.66309632806E+03  0.66309632806E+03  0.00000000000E+00 0. -1.
        -13    1    1    2    0    0  0.15669642229E+03 -0.27939775684E+03  0.68727864820E+02  0.32762845702E+03  0.10566000000E+00 0.  1.
         13    1    1    2    0    0  0.36129860398E+03 -0.13306652591E+03  0.47135080169E+02  0.38789832238E+03  0.10566000000E+00 0. -1.
         -4    1    1    2    0  502 -0.51799502627E+03  0.41246428274E+03 -0.61524398148E+02  0.66500442356E+03  0.00000000000E+00 0. -1.
</event>
<event>
 5    1  0.8445827E-005  0.1949224E+03  0.7818608E-02  0.1076333E+00
         21   -1    0    0  501  502  0.00000000000E+00  0.00000000000E+00  0.68406463798E+03  0.68406463798E+03  0.00000000000E+00 0. -1.
          4   -1    0    0  502    0 -0.00000000000E+00 -0.00000000000E+00 -0.21424213299E+03  0.21424213299E+03  0.00000000000E+00 0.  1.
        -13    1    1    2    0    0  0.11129394531E+03  0.16847705380E+03 -0.89709556828E+02  0.22094948670E+03  0.10566000000E+00 0.  1.
         13    1    1    2    0    0  0.82917036180E+02 -0.10737729295E+03  0.38833568960E+03  0.41135111148E+03  0.10566000000E+00 0. -1.
          4    1    1    2  501    0 -0.19421098149E+03 -0.61099760854E+02  0.17119637222E+03  0.26600617280E+03  0.00000000000E+00 0.  1.
</event>
<event>
 5    1  0.8445827E-005  0.3793582E+02  0.7818608E-02  0.1358698E+00
         -4   -1    0    0    0  501 -0.00000000000E+00  0.00000000000E+00  0.62386779172E+03  0.62386779172E+03  0.00000000000E+00 0. -1.
         21   -1    0    0  501  502  0.00000000000E+00 -0.00000000000E+00 -0.57095649310E+01  0.57095649310E+01  0.00000000000E+00 0. -1.
        -13    1    1    2    0    0 -0.32119910987E+02 -0.66875261245E+01  0.18474385257E+03  0.18763452218E+03  0.10566000000E+00 0.  1.
         13    1    1    2    0    0  0.40135855777E+02 -0.28425706501E+02  0.28559598833E+03  0.28979990929E+03  0.10566000000E+00 0. -1.
         -4    1    1    2    0  502 -0.80159447895E+01  0.35113232625E+02  0.14781838589E+03  0.15214292518E+03  0.00000000000E+00 0. -1.
</event>
<event>
 5    1  0.8445827E-005  0.1093140E+03  0.7818608E-02  0.1150002E+00
          4   -1    0    0  502    0 -0.00000000000E+00  0.00000000000E+00  0.10191951133E+03  0.10191951133E+03  0.00000000000E+00 0.  1.
         21   -1    0    0  501  502  0.00000000000E+00 -0.00000000000E+00 -0.14436920937E+03  0.14436920937E+03  0.00000000000E+00 0.  1.
        -13    1    1    2    0    0  0.46941749657E+02 -0.10392333082E+03  0.18066973134E+01  0.11404762983E+03  0.10566000000E+00 0.  1.
         13    1    1    2    0    0 -0.34198780576E+02  0.98336823030E+02 -0.22660928662E+02  0.10655147211E+03  0.10566000000E+00 0. -1.
          4    1    1    2  501    0 -0.12742969081E+02  0.55865077921E+01 -0.21595466694E+02  0.25689618761E+02  0.00000000000E+00 0.  1.
</event>
<event>
 5    1  0.8445827E-005  0.4824019E+03  0.7818608E-02  0.9931042E-01
         21   -1    0    0  501  502  0.00000000000E+00  0.00000000000E+00  0.25434502635E+03  0.25434502635E+03  0.00000000000E+00 0.  1.
          4   -1    0    0  502    0 -0.00000000000E+00 -0.00000000000E+00 -0.16997196757E+04  0.16997196757E+04  0.00000000000E+00 0.  1.
        -13    1    1    2    0    0 -0.29198793389E+02  0.54836992318E+03 -0.53368306937E+03  0.76575438091E+03  0.10566000000E+00 0.  1.
         13    1    1    2    0    0 -0.38255498773E+02 -0.10834664472E+03 -0.67388355484E+03  0.68360919775E+03  0.10566000000E+00 0. -1.
          4    1    1    2  501    0  0.67454292162E+02 -0.44002327847E+03 -0.23780802515E+03  0.50470112339E+03  0.00000000000E+00 0.  1.
</event>
<event>
 5    1  0.8445827E-005  0.4623622E+03  0.7818608E-02  0.1006198E+00
         21   -1    0    0  501  502  0.00000000000E+00  0.00000000000E+00  0.13334312257E+03  0.13334312257E+03  0.00000000000E+00 0.  1.
          4   -1    0    0  502    0 -0.00000000000E+00 -0.00000000000E+00 -0.22698868929E+04  0.22698868929E+04  0.00000000000E+00 0.  1.
        -13    1    1    2    0    0 -0.32479827436E+03  0.35009769956E+03 -0.14454380613E+04  0.15222856232E+04  0.10566000000E+00 0.  1.
         13    1    1    2    0    0 -0.40592942060E+02 -0.74607755812E+02 -0.73775342697E+02  0.11250296230E+03  0.10566000000E+00 0. -1.
          4    1    1    2  501    0  0.36539121642E+03 -0.27548994375E+03 -0.61733036630E+03  0.76844142997E+03  0.00000000000E+00 0.  1.
</event>
<event>
 5    1  0.8445827E-005  0.4205849E+03  0.7818608E-02  0.9847044E-01
          4   -1    0    0  502    0 -0.00000000000E+00  0.00000000000E+00  0.26002742320E+04  0.26002742320E+04  0.00000000000E+00 0.  1.
         21   -1    0    0  501  502  0.00000000000E+00 -0.00000000000E+00 -0.15100819311E+03  0.15100819311E+03  0.00000000000E+00 0.  1.
        -13    1    1    2    0    0  0.24648158317E+03 -0.40659657150E+03  0.34848627081E+03  0.58950541550E+03  0.10566000000E+00 0.  1.
         13    1    1    2    0    0 -0.72422689004E+02  0.21806635012E+03  0.67356071356E+03  0.71167550537E+03  0.10566000000E+00 0. -1.
          4    1    1    2  501    0 -0.17405889417E+03  0.18853022138E+03  0.14272190545E+04  0.14501015042E+04  0.00000000000E+00 0.  1.
</event>
<event>
 5    1  0.8445827E-005  0.4900313E+03  0.7818608E-02  0.9807968E-01
         21   -1    0    0  501  502  0.00000000000E+00  0.00000000000E+00  0.21205035675E+03  0.21205035675E+03  0.00000000000E+00 0. -1.
         -4   -1    0    0    0  501 -0.00000000000E+00 -0.00000000000E+00 -0.18964066890E+04  0.18964066890E+04  0.00000000000E+00 0. -1.
        -13    1    1    2    0    0  0.14833823146E+02 -0.16522310497E+03 -0.63804464665E+03  0.65925692944E+03  0.10566000000E+00 0.  1.
         13    1    1    2    0    0  0.35931439069E+03  0.39773353061E+03 -0.40789327984E+03  0.67355454985E+03  0.10566000000E+00 0. -1.
         -4    1    1    2    0  502 -0.37414821383E+03 -0.23251042564E+03 -0.63841840571E+03  0.77564556641E+03  0.00000000000E+00 0. -1.
</event>
<event>
 5    1  0.8445827E-005  0.4239639E+03  0.7818608E-02  0.9760346E-01
         21   -1    0    0  501  502  0.00000000000E+00  0.00000000000E+00  0.63948905391E+03  0.63948905391E+03  0.00000000000E+00 0.  1.
          4   -1    0    0  502    0 -0.00000000000E+00 -0.00000000000E+00 -0.12339413383E+04  0.12339413383E+04  0.00000000000E+00 0.  1.
        -13    1    1    2    0    0  0.65055716752E+02 -0.45716399017E+03  0.39775005098E+03  0.60945571981E+03  0.10566000000E+00 0.  1.
         13    1    1    2    0    0 -0.26816241061E+03  0.13787392296E+03 -0.76574623862E+03  0.82297485394E+03  0.10566000000E+00 0. -1.
          4    1    1    2  501    0  0.20310669385E+03  0.31929006721E+03 -0.22645609670E+03  0.44099981842E+03  0.00000000000E+00 0.  1.
</event>
<event>
 5    1  0.8445827E-005  0.1640553E+03  0.7818608E-02  0.1088021E+00
         21   -1    0    0  501  502  0.00000000000E+00  0.00000000000E+00  0.65574845631E+02  0.65574845631E+02  0.00000000000E+00 0. -1.
          4   -1    0    0  502    0 -0.00000000000E+00 -0.00000000000E+00 -0.76324135203E+03  0.76324135203E+03  0.00000000000E+00 0.  1.
        -13    1    1    2    0    0 -0.91017381714E+01 -0.16640729511E+03 -0.41646204927E+03  0.44856981525E+03  0.10566000000E+00 0.  1.
         13    1    1    2    0    0  0.17082401890E+02  0.16008407774E+03 -0.31021405480E+03  0.34950177591E+03  0.10566000000E+00 0. -1.
          4    1    1    2  501    0 -0.79806637183E+01  0.63232173708E+01  0.29009597680E+02  0.30744606500E+02  0.00000000000E+00 0.  1.
</event>
<event>
 5    1  0.8445827E-005  0.4524855E+03  0.7818608E-02  0.9630925E-01
          4   -1    0    0  502    0 -0.00000000000E+00  0.00000000000E+00  0.75510737525E+03  0.75510737525E+03  0.00000000000E+00 0.  1.
         21   -1    0    0  501  502  0.00000000000E+00 -0.00000000000E+00 -0.84194120365E+03  0.84194120365E+03  0.00000000000E+00 0. -1.
        -13    1    1    2    0    0  0.33368395177E+02  0.68696977011E+02  0.38172255727E+03  0.38928761391E+03  0.10566000000E+00 0.  1.
         13    1    1    2    0    0  0.48408141825E+03  0.59491298725E+02  0.15107583457E+02  0.48795725670E+03  0.10566000000E+00 0. -1.
          4    1    1    2  501    0 -0.51744981343E+03 -0.12818827574E+03 -0.48366396912E+03  0.71980370830E+03  0.00000000000E+00 0.  1.
</event>
<event>
 5    1  0.8445827E-005  0.1303428E+03  0.7818608E-02  0.1122295E+00
         21   -1    0    0  501  502  0.00000000000E+00  0.00000000000E+00  0.48342182906E+03  0.48342182906E+03  0.00000000000E+00 0. -1.
          4   -1    0    0  502    0 -0.00000000000E+00 -0.00000000000E+00 -0.87284997483E+02  0.87284997483E+02  0.00000000000E+00 0.  1.
        -13    1    1    2    0    0 -0.12781768621E+03 -0.35946399743E+02  0.14483546539E+02  0.13356380067E+03  0.10566000000E+00 0.  1.
         13    1    1    2    0    0  0.97192528472E+02  0.94881751520E+02  0.18451619829E+03  0.22911825103E+03  0.10566000000E+00 0. -1.
          4    1    1    2  501    0  0.30625157742E+02 -0.58935351777E+02  0.19713708675E+03  0.20802477484E+03  0.00000000000E+00 0.  1.
</event>
<event>
 5    1  0.8445827E-005  0.4930704E+03  0.7818608E-02  0.9676315E-01
          4   -1    0    0  502    0 -0.00000000000E+00  0.00000000000E+00  0.77132724452E+03  0.77132724452E+03  0.00000000000E+00 0.  1.
         21   -1    0    0  501  502  0.00000000000E+00 -0.00000000000E+00 -0.57113791679E+03  0.57113791679E+03  0.00000000000E+00 0.  1.
        -13    1    1    2    0    0 -0.35558079038E+03 -0.35024783961E+03 -0.46150136792E+02  0.50123955743E+03  0.10566000000E+00 0.  1.
         13    1    1    2    0    0 -0.14726827044E+03  0.21011149015E+03  0.18349707631E+03  0.31544566878E+03  0.10566000000E+00 0. -1.
          4    1    1    2  501    0  0.50284906082E+03  0.14013634946E+03  0.62842388209E+02  0.52577993511E+03  0.00000000000E+00 0.  1.
</event>
<event>
 5    1  0.8445827E-005  0.3778644E+03  0.7818608E-02  0.9808566E-01
         21   -1    0    0  501  502  0.00000000000E+00  0.00000000000E+00  0.42723685178E+03  0.42723685178E+03  0.00000000000E+00 0.  1.
          4   -1    0    0  502    0 -0.00000000000E+00 -0.00000000000E+00 -0.13126271422E+04  0.13126271422E+04  0.00000000000E+00 0.  1.
        -13    1    1    2    0    0 -0.26973275747E+03  0.23586345674E+03 -0.63807258372E+03  0.73179502864E+03  0.10566000000E+00 0.  1.
         13    1    1    2    0    0 -0.10995661526E+03 -0.37058344016E+03 -0.41905257937E+03  0.57011193532E+03  0.10566000000E+00 0. -1.
          4    1    1    2  501    0  0.37968937273E+03  0.13471998342E+03  0.17173487263E+03  0.43795703006E+03  0.00000000000E+00 0.  1.
</event>
<event>
 5    1  0.8445827E-005  0.4862554E+03  0.7818608E-02  0.9508617E-01
         21   -1    0    0  501  502  0.00000000000E+00  0.00000000000E+00  0.54153201443E+03  0.54153201443E+03  0.00000000000E+00 0.  1.
         -4   -1    0    0    0  501 -0.00000000000E+00 -0.00000000000E+00 -0.16126307689E+04  0.16126307689E+04  0.00000000000E+00 0. -1.
        -13    1    1    2    0    0 -0.93878785700E+02 -0.47473300619E+03 -0.86049713619E+03  0.98723856597E+03  0.10566000000E+00 0.  1.
         13    1    1    2    0    0 -0.37515835128E+02  0.51832263640E+03  0.32552368731E+03  0.61321405353E+03  0.10566000000E+00 0. -1.
         -4    1    1    2    0  502  0.13139462083E+03 -0.43589630206E+02 -0.53612530561E+03  0.55371016385E+03  0.00000000000E+00 0. -1.
</event>
<event>
 5    1  0.8445827E-005  0.4045598E+03  0.7818608E-02  0.9715969E-01
          4   -1    0    0  502    0 -0.00000000000E+00  0.00000000000E+00  0.14667772123E+04  0.14667772123E+04  0.00000000000E+00 0.  1.
         21   -1    0    0  501  502  0.00000000000E+00 -0.00000000000E+00 -0.40118307079E+03  0.40118307079E+03  0.00000000000E+00 0.  1.
        -13    1    1    2    0    0 -0.47591726974E+03  0.20209096769E+02 -0.71898497010E+02  0.48174169455E+03  0.10566000000E+00 0.  1.
         13    1    1    2    0    0  0.26680006474E+03 -0.32260958617E+03  0.52024020734E+03  0.66776425790E+03  0.10566000000E+00 0. -1.
          4    1    1    2  501    0  0.20911720500E+03  0.30240048940E+03  0.61725243122E+03  0.71845433067E+03  0.00000000000E+00 0.  1.
</event>
<event>
 5    1  0.8445827E-005  0.4709499E+03  0.7818608E-02  0.9944034E-01
         21   -1    0    0  501  502  0.00000000000E+00  0.00000000000E+00  0.39472645149E+03  0.39472645149E+03  0.00000000000E+00 0. -1.
         -4   -1    0    0    0  501 -0.00000000000E+00 -0.00000000000E+00 -0.82085113880E+03  0.82085113880E+03  0.00000000000E+00 0. -1.
        -13    1    1    2    0    0 -0.11826031628E+03 -0.19616824039E+01 -0.96000012919E+02  0.15233307011E+03  0.10566000000E+00 0.  1.
         13    1    1    2    0    0  0.15358031834E+03  0.45736362783E+03  0.27329529159E+02  0.48323422537E+03  0.10566000000E+00 0. -1.
         -4    1    1    2    0  502 -0.35320002062E+02 -0.45540194543E+03 -0.35745420355E+03  0.58001029481E+03  0.00000000000E+00 0. -1.
</event>
<event>
 5    1  0.8445827E-005  0.2873765E+03  0.7818608E-02  0.1012656E+00
         -4   -1    0    0    0  501 -0.00000000000E+00  0.00000000000E+00  0.11615130680E+04  0.11615130680E+04  0.00000000000E+00 0. -1.
         21   -1    0    0  501  502  0.00000000000E+00 -0.00000000000E+00 -0.48455519835E+03  0.48455519835E+03  0.00000000000E+00 0. -1.
        -13    1    1    2    0    0 -0.25056951626E+03  0.11961806584E+03  0.54305920897E+03  0.60992366716E+03  0.10566000000E+00 0.  1.
         13    1    1    2    0    0  0.40584893450E+03 -0.11131555291E+03 -0.33769436283E+03  0.53957576281E+03  0.10566000000E+00 0. -1.
         -4    1    1    2    0  502 -0.15527941824E+03 -0.83025129224E+01  0.47159302348E+03  0.49656883636E+03  0.00000000000E+00 0. -1.
</event>
<event>
 5    1  0.8445827E-005  0.3199964E+03  0.7818608E-02  0.9993767E-01
         21   -1    0    0  501  502  0.00000000000E+00  0.00000000000E+00  0.23834889515E+03  0.23834889515E+03  0.00000000000E+00 0. -1.
          4   -1    0    0  502    0 -0.00000000000E+00 -0.00000000000E+00 -0.67070480664E+03  0.67070480664E+03  0.00000000000E+00 0.  1.
        -13    1    1    2    0    0  0.22597265278E+03  0.22440408923E+03 -0.30613686676E+03  0.44174724382E+03  0.10566000000E+00 0.  1.
         13    1    1    2    0    0 -0.22118107709E+03 -0.23409981727E+03 -0.20892751809E+03  0.38389388154E+03  0.10566000000E+00 0. -1.
          4    1    1    2  501    0 -0.47915756902E+01  0.96957280435E+01  0.82708473359E+02  0.83412576422E+02  0.00000000000E+00 0.  1.
</event>
<event>
 5    1  0.8445827E-005  0.3348366E+03  0.7818608E-02  0.1048436E+00
         21   -1    0    0  501  502  0.00000000000E+00  0.00000000000E+00  0.29577526704E+03  0.29577526704E+03  0.00000000000E+00 0.  1.
          4   -1    0    0  502    0 -0.00000000000E+00 -0.00000000000E+00 -0.10306550024E+04  0.10306550024E+04  0.00000000000E+00 0.  1.
        -13    1    1    2    0    0 -0.73808489161E+02 -0.31852139888E+03  0.12861790143E+03  0.35134904347E+03  0.10566000000E+00 0.  1.
         13    1    1    2    0    0 -0.79736771554E+01 -0.59658176015E+02 -0.17831507811E+03  0.18819924478E+03  0.10566000000E+00 0. -1.
          4    1    1    2  501    0  0.81782166317E+02  0.37817957489E+03 -0.68518255865E+03  0.78688198116E+03  0.00000000000E+00 0.  1.
</event>
<event>
 5    1  0.8445827E-005  0.5344139E+02  0.7818608E-02  0.1331829E+00
         21   -1    0    0  501  502  0.00000000000E+00  0.00000000000E+00  0.10120609708E+03  0.10120609708E+03  0.00000000000E+00 0.  1.
          4   -1    0    0  502    0 -0.00000000000E+00 -0.00000000000E+00 -0.60258164107E+02  0.60258164107E+02  0.00000000000E+00 0.  1.
        -13    1    1    2    0    0  0.34936674182E+02  0.46753442083E+02  0.72791760862E+02  0.93301163781E+02  0.10566000000E+00 0.  1.
         13    1    1    2    0    0 -0.14330188136E+02 -0.12618905602E+02 -0.17162106925E+02  0.25673724871E+02  0.10566000000E+00 0. -1.
          4    1    1    2  501    0 -0.20606486046E+02 -0.34134536481E+02 -0.14681720964E+02  0.42489372534E+02  0.00000000000E+00 0.  1.
</event>
<event>
 5    1  0.8445827E-005  0.5299870E+03  0.7818608E-02  0.9471967E-01
         21   -1    0    0  501  502  0.00000000000E+00  0.00000000000E+00  0.56820831468E+03  0.56820831468E+03  0.00000000000E+00 0.  1.
          4   -1    0    0  502    0 -0.00000000000E+00 -0.00000000000E+00 -0.14157712036E+04  0.14157712036E+04  0.00000000000E+00 0.  1.
        -13    1    1    2    0    0 -0.31929302670E+03  0.34366483840E+03 -0.72798683548E+02  0.47471382700E+03  0.10566000000E+00 0.  1.
         13    1    1    2    0    0 -0.35058797267E+03 -0.47325802165E+03 -0.50408806853E+03  0.77523536661E+03  0.10566000000E+00 0. -1.
          4    1    1    2  501    0  0.66988099936E+03  0.12959318325E+03 -0.27067613681E+03  0.73403032464E+03  0.00000000000E+00 0.  1.
</event>
<event>
 5    1  0.8445827E-005  0.3516729E+03  0.7818608E-02  0.1001415E+00
         21   -1    0    0  501  502  0.00000000000E+00  0.00000000000E+00  0.19591595578E+03  0.19591595578E+03  0.00000000000E+00 0. -1.
         -4   -1    0    0    0  501 -0.00000000000E+00 -0.00000000000E+00 -0.21016454799E+04  0.21016454799E+04  0.00000000000E+00 0. -1.
        -13    1    1    2    0    0 -0.20213158338E+03 -0.10000627131E+03 -0.42082207284E+03  0.47744073921E+03  0.10566000000E+00 0.  1.
         13    1    1    2    0    0 -0.13214484172E+03  0.32695637670E+03 -0.84556063719E+02  0.36264648149E+03  0.10566000000E+00 0. -1.
         -4    1    1    2    0  502  0.33427642511E+03 -0.22695010539E+03 -0.14003513876E+04  0.14574742150E+04  0.00000000000E+00 0. -1.
</event>
<event>
 5    1  0.8445827E-005  0.2576308E+03  0.7818608E-02  0.1066637E+00
         -4   -1    0    0    0  501 -0.00000000000E+00  0.00000000000E+00  0.16184271590E+04  0.16184271590E+04  0.00000000000E+00 0. -1.
         21   -1    0    0  501  502  0.00000000000E+00 -0.00000000000E+00 -0.20125106028E+03  0.20125106028E+03  0.00000000000E+00 0. -1.
        -13    1    1    2    0    0 -0.76955306082E+02  0.91148817754E+01  0.15518566314E+03  0.17345835642E+03  0.10566000000E+00 0.  1.
         13    1    1    2    0    0  0.26114856202E+03  0.26154396563E+02 -0.92900040301E+02  0.27841166024E+03  0.10566000000E+00 0. -1.
         -4    1    1    2    0  502 -0.18419325594E+03 -0.35269278339E+02  0.13548904759E+04  0.13678082026E+04  0.00000000000E+00 0. -1.
</event>
<event>
 5    1  0.8445827E-005  0.3523250E+03  0.7818608E-02  0.1001063E+00
          4   -1    0    0  502    0 -0.00000000000E+00  0.00000000000E+00  0.13342904639E+04  0.13342904639E+04  0.00000000000E+00 0.  1.
         21   -1    0    0  501  502  0.00000000000E+00 -0.00000000000E+00 -0.32861173730E+03  0.32861173730E+03  0.00000000000E+00 0.  1.
        -13    1    1    2    0    0 -0.18716506090E+03  0.25141397107E+03  0.79501516625E+03  0.85456940655E+03  0.10566000000E+00 0.  1.
         13    1    1    2    0    0  0.19499579387E+03  0.11593864031E+03  0.34855104498E+03  0.41587614750E+03  0.10566000000E+00 0. -1.
          4    1    1    2  501    0 -0.78307329653E+01 -0.36735261138E+03 -0.13788748464E+03  0.39245664714E+03  0.00000000000E+00 0.  1.
</event>
<event>
 5    1  0.9305342E-005  0.4787301E+03  0.7818608E-02  0.9714220E-01
         21   -1    0    0  501  502  0.00000000000E+00  0.00000000000E+00  0.31081178091E+03  0.31081178091E+03  0.00000000000E+00 0. -1.
         -4   -1    0    0    0  501 -0.00000000000E+00 -0.00000000000E+00 -0.18459104723E+04  0.18459104723E+04  0.00000000000E+00 0. -1.
        -13    1    1    2    0    0  0.15848908234E+03 -0.18766749863E+03 -0.93520158577E+03  0.96692290099E+03  0.10566000000E+00 0.  1.
         13    1    1    2    0    0  0.28228330118E+03 -0.16592321826E+03 -0.52645393627E+03  0.61997430162E+03  0.10566000000E+00 0. -1.
         -4    1    1    2    0  502 -0.44077238353E+03  0.35359071689E+03 -0.73443169325E+02  0.56982505058E+03  0.00000000000E+00 0. -1.
</event>
<event>
 5    1  0.8445827E-005  0.3736310E+03  0.7818608E-02  0.1022693E+00
         21   -1    0    0  501  502  0.00000000000E+00  0.00000000000E+00  0.85928873203E+02  0.85928873203E+02  0.00000000000E+00 0.  1.
          4   -1    0    0  502    0 -0.00000000000E+00 -0.00000000000E+00 -0.35246799359E+04  0.35246799359E+04  0.00000000000E+00 0.  1.
        -13    1    1    2    0    0 -0.36739559096E+03  0.10786625417E+03 -0.45863777513E+03  0.59746403154E+03  0.10566000000E+00 0.  1.
         13    1    1    2    0    0  0.32315613554E+02 -0.89510305780E+02 -0.39302253962E+03  0.40437992227E+03  0.10566000000E+00 0. -1.
          4    1    1    2  501    0  0.33507997741E+03 -0.18355948386E+02 -0.25870907479E+04  0.26087648553E+04  0.00000000000E+00 0.  1.
</event>
<event>
 5    1  0.8445827E-005  0.9062472E+02  0.7818608E-02  0.1181074E+00
         21   -1    0    0  501  502  0.00000000000E+00  0.00000000000E+00  0.90148061861E+03  0.90148061861E+03  0.00000000000E+00 0.  1.
         -4   -1    0    0    0  501 -0.00000000000E+00 -0.00000000000E+00 -0.43197006658E+02  0.43197006658E+02  0.00000000000E+00 0. -1.
        -13    1    1    2    0    0 -0.79792582203E+02 -0.58816049117E+02  0.47525081907E+03  0.48547866688E+03  0.10566000000E+00 0.  1.
         13    1    1    2    0    0  0.65595548029E+02  0.61257120781E+02  0.15133595360E+02  0.91017842427E+02  0.10566000000E+00 0. -1.
         -4    1    1    2    0  502  0.14197034174E+02 -0.24410716643E+01  0.36789919752E+03  0.36818111596E+03  0.00000000000E+00 0. -1.
</event>
<event>
 5    1  0.8445827E-005  0.5013295E+03  0.7818608E-02  0.9597139E-01
         -4   -1    0    0    0  501 -0.00000000000E+00  0.00000000000E+00  0.25667102732E+04  0.25667102732E+04  0.00000000000E+00 0. -1.
         21   -1    0    0  501  502  0.00000000000E+00 -0.00000000000E+00 -0.23122817590E+03  0.23122817590E+03  0.00000000000E+00 0. -1.
        -13    1    1    2    0    0  0.16257028134E+03 -0.27889120567E+03  0.10899741581E+04  0.11367730985E+04  0.10566000000E+00 0.  1.
         13    1    1    2    0    0 -0.54920589733E+03  0.19290121962E+03  0.34317192701E+03  0.67572552182E+03  0.10566000000E+00 0. -1.
         -4    1    1    2    0  502  0.38663561599E+03  0.85989986057E+02  0.90233601214E+03  0.98543982874E+03  0.00000000000E+00 0. -1.
</event>
<event>
 5    1  0.8445827E-005  0.6410446E+02  0.7818608E-02  0.1243101E+00
         21   -1    0    0  501  502  0.00000000000E+00  0.00000000000E+00  0.32397508899E+03  0.32397508899E+03  0.00000000000E+00 0.  1.
         -4   -1    0    0    0  501 -0.00000000000E+00 -0.00000000000E+00 -0.71921439115E+02  0.71921439115E+02  0.00000000000E+00 0. -1.
        -13    1    1    2    0    0 -0.34588509442E+02 -0.37810268664E+02  0.23825592597E+03  0.24370449078E+03  0.10566000000E+00 0.  1.
         13    1    1    2    0    0  0.16616656889E+02  0.63204042629E+02 -0.49286621917E+02  0.81853812097E+02  0.10566000000E+00 0. -1.
         -4    1    1    2    0  502  0.17971852553E+02 -0.25393773965E+02  0.63084345817E+02  0.70338225223E+02  0.00000000000E+00 0. -1.
</event>
<event>
 5    1  0.8445827E-005  0.4821875E+03  0.7818608E-02  0.1026794E+00
         21   -1    0    0  501  502  0.00000000000E+00  0.00000000000E+00  0.55164124159E+03  0.55164124159E+03  0.00000000000E+00 0.  1.
          4   -1    0    0  502    0 -0.00000000000E+00 -0.00000000000E+00 -0.47083897231E+03  0.47083897231E+03  0.00000000000E+00 0.  1.
        -13    1    1    2    0    0 -0.46926730142E+03  0.16159361858E+03  0.60191204790E+01  0.49634719575E+03  0.10566000000E+00 0.  1.
         13    1    1    2    0    0  0.14765240181E+02 -0.36046370574E+02 -0.22061847057E+02  0.44767057183E+02  0.10566000000E+00 0. -1.
          4    1    1    2  501    0  0.45450206124E+03 -0.12554724801E+03  0.96844995860E+02  0.48136596097E+03  0.00000000000E+00 0.  1.
</event>
<event>
 5    1  0.8445827E-005  0.3433847E+03  0.7818608E-02  0.9908534E-01
         -4   -1    0    0    0  501 -0.00000000000E+00  0.00000000000E+00  0.18253186597E+04  0.18253186597E+04  0.00000000000E+00 0. -1.
         21   -1    0    0  501  502  0.00000000000E+00 -0.00000000000E+00 -0.80417552036E+02  0.80417552036E+02  0.00000000000E+00 0.  1.
        -13    1    1    2    0    0 -0.96132346980E+02  0.32607442800E+03  0.93688542001E+03  0.99665453499E+03  0.10566000000E+00 0.  1.
         13    1    1    2    0    0  0.15201899583E+03 -0.31573028297E+03  0.75020465807E+03  0.82801112724E+03  0.10566000000E+00 0. -1.
         -4    1    1    2    0  502 -0.55886648853E+02 -0.10344145029E+02  0.57811029610E+02  0.81070549529E+02  0.00000000000E+00 0. -1.
</event>
<event>
 5    1  0.8445827E-005  0.4932834E+03  0.7818608E-02  0.9569754E-01
         21   -1    0    0  501  502  0.00000000000E+00  0.00000000000E+00  0.41931744357E+03  0.41931744357E+03  0.00000000000E+00 0.  1.
          4   -1    0    0  502    0 -0.00000000000E+00 -0.00000000000E+00 -0.19377357615E+04  0.19377357615E+04  0.00000000000E+00 0.  1.
        -13    1    1    2    0    0 -0.43334462670E+03  0.30648844088E+03 -0.62014897000E+02  0.53438617918E+03  0.10566000000E+00 0.  1.
         13    1    1    2    0    0  0.31585108935E+03  0.19967069974E+03 -0.11723848957E+04  0.12304944753E+04  0.10566000000E+00 0. -1.
          4    1    1    2  501    0  0.11749353736E+03 -0.50615914062E+03 -0.28401852521E+03  0.59217255055E+03  0.00000000000E+00 0.  1.
</event>
<event>
 5    1  0.8445827E-005  0.1818799E+02  0.7818608E-02  0.1555637E+00
         -4   -1    0    0    0  501 -0.00000000000E+00  0.00000000000E+00  0.14276400715E+02  0.14276400715E+02  0.00000000000E+00 0. -1.
         21   -1    0    0  501  502  0.00000000000E+00 -0.00000000000E+00 -0.71286894869E+02  0.71286894869E+02  0.00000000000E+00 0.  1.
        -13    1    1    2    0    0 -0.11291338010E+02  0.28540114804E+02 -0.28055332699E+02  0.41582993206E+02  0.10566000000E+00 0.  1.
         13    1    1    2    0    0  0.89761791257E+01 -0.79664499310E+01 -0.74362121358E+01  0.14118942282E+02  0.10566000000E+00 0. -1.
         -4    1    1    2    0  502  0.23151588843E+01 -0.20573664873E+02 -0.21518949319E+02  0.29861360095E+02  0.00000000000E+00 0. -1.
</event>
<event>
 5    1  0.8445827E-005  0.4905044E+03  0.7818608E-02  0.9520978E-01
         21   -1    0    0  501  502  0.00000000000E+00  0.00000000000E+00  0.25692667781E+03  0.25692667781E+03  0.00000000000E+00 0. -1.
         -4   -1    0    0    0  501 -0.00000000000E+00 -0.00000000000E+00 -0.25610142232E+04  0.25610142232E+04  0.00000000000E+00 0. -1.
        -13    1    1    2    0    0  0.41209437984E+03  0.18808008910E+03 -0.31862356314E+03  0.55382026323E+03  0.10566000000E+00 0.  1.
         13    1    1    2    0    0  0.14529157390E+03 -0.41866667377E+03 -0.11598526952E+04  0.12416318742E+04  0.10566000000E+00 0. -1.
         -4    1    1    2    0  502 -0.55738595373E+03  0.23058658467E+03 -0.82561128708E+03  0.10224887637E+04  0.00000000000E+00 0. -1.
</event>
<event>
 5    1  0.8445827E-005  0.4039773E+03  0.7818608E-02  0.9918371E-01
         21   -1    0    0  501  502  0.00000000000E+00  0.00000000000E+00  0.24586198085E+03  0.24586198085E+03  0.00000000000E+00 0. -1.
         -4   -1    0    0    0  501 -0.00000000000E+00 -0.00000000000E+00 -0.20369676043E+04  0.20369676043E+04  0.00000000000E+00 0. -1.
        -13    1    1    2    0    0  0.17543342084E+03  0.10426760109E+03 -0.89130924871E+03  0.91437454349E+03  0.10566000000E+00 0.  1.
         13    1    1    2    0    0  0.12957171404E+02  0.38030236396E+03 -0.66525544558E+02  0.38629449332E+03  0.10566000000E+00 0. -1.
         -4    1    1    2    0  502 -0.18839059225E+03 -0.48456996505E+03 -0.83327083021E+03  0.98216054836E+03  0.00000000000E+00 0. -1.
</event>
<event>
 5    1  0.8445827E-005  0.2719735E+03  0.7818608E-02  0.1019595E+00
         21   -1    0    0  501  502  0.00000000000E+00  0.00000000000E+00  0.49923227074E+03  0.49923227074E+03  0.00000000000E+00 0. -1.
         -4   -1    0    0    0  501 -0.00000000000E+00 -0.00000000000E+00 -0.17653259809E+04  0.17653259809E+04  0.00000000000E+00 0. -1.
        -13    1    1    2    0    0  0.34183543315E+03 -0.11238294461E+03 -0.11350524751E+04  0.11907247885E+04  0.10566000000E+00 0.  1.
         13    1    1    2    0    0 -0.12632563573E+03  0.19036829126E+03 -0.55039945449E+03  0.59593441185E+03  0.10566000000E+00 0. -1.
         -4    1    1    2    0  502 -0.21550979743E+03 -0.77985346652E+02  0.41935821938E+03  0.47789905131E+03  0.00000000000E+00 0. -1.
</event>
<event>
 5    1  0.8445827E-005  0.6969039E+03  0.7818608E-02  0.9127481E-01
         -4   -1    0    0    0  501 -0.00000000000E+00  0.00000000000E+00  0.10992290881E+04  0.10992290881E+04  0.00000000000E+00 0. -1.
         21   -1    0    0  501  502  0.00000000000E+00 -0.00000000000E+00 -0.84683104811E+03  0.84683104811E+03  0.00000000000E+00 0. -1.
        -13    1    1    2    0    0 -0.63084300897E+03  0.93039044253E+02  0.23562799047E+03  0.67980859570E+03  0.10566000000E+00 0.  1.
         13    1    1    2    0    0  0.79060953315E+03  0.24462183516E+03  0.19817099410E+03  0.85098474147E+03  0.10566000000E+00 0. -1.
         -4    1    1    2    0  502 -0.15976652418E+03 -0.33766087941E+03 -0.18140094454E+03  0.41526679907E+03  0.00000000000E+00 0. -1.
</event>
<event>
 5    1  0.8445827E-005  0.3951337E+03  0.7818608E-02  0.9743206E-01
         -4   -1    0    0    0  501 -0.00000000000E+00  0.00000000000E+00  0.44390580212E+03  0.44390580212E+03  0.00000000000E+00 0. -1.
         21   -1    0    0  501  502  0.00000000000E+00 -0.00000000000E+00 -0.12199150227E+04  0.12199150227E+04  0.00000000000E+00 0. -1.
        -13    1    1    2    0    0  0.22030932354E+03 -0.26585281699E+03  0.77902687398E+01  0.34536157544E+03  0.10566000000E+00 0.  1.
         13    1    1    2    0    0 -0.94742062377E+02  0.49481240148E+03 -0.12285034057E+02  0.50395069626E+03  0.10566000000E+00 0. -1.
         -4    1    1    2    0  502 -0.12556726116E+03 -0.22895958448E+03 -0.77151445527E+03  0.81450855311E+03  0.00000000000E+00 0. -1.
</event>
<event>
 5    1  0.8445827E-005  0.4745784E+03  0.7818608E-02  0.9724139E-01
         -4   -1    0    0    0  501 -0.00000000000E+00  0.00000000000E+00  0.31949395762E+03  0.31949395762E+03  0.00000000000E+00 0. -1.
         21   -1    0    0  501  502  0.00000000000E+00 -0.00000000000E+00 -0.12594698333E+04  0.12594698333E+04  0.00000000000E+00 0. -1.
        -13    1    1    2    0    0  0.66778161266E+02 -0.23428048595E+03 -0.19696198068E+03  0.31327416414E+03  0.10566000000E+00 0.  1.
         13    1    1    2    0    0  0.31332858324E+03 -0.16057988553E+03 -0.12335427908E+02  0.35229657202E+03  0.10566000000E+00 0. -1.
         -4    1    1    2    0  502 -0.38010674451E+03  0.39486037148E+03 -0.73067846706E+03  0.91339305472E+03  0.00000000000E+00 0. -1.
</event>
<event>
 5    1  0.8445827E-005  0.8053044E+02  0.7818608E-02  0.1201526E+00
         21   -1    0    0  501  502  0.00000000000E+00  0.00000000000E+00  0.93216919964E+02  0.93216919964E+02  0.00000000000E+00 0.  1.
         -4   -1    0    0    0  501 -0.00000000000E+00 -0.00000000000E+00 -0.12556431596E+03  0.12556431596E+03  0.00000000000E+00 0. -1.
        -13    1    1    2    0    0  0.33088193588E+02 -0.70330266955E+02 -0.66156535887E+02  0.10206798425E+03  0.10566000000E+00 0.  1.
         13    1    1    2    0    0 -0.23070432283E+02  0.88218710050E+02  0.26720180887E+02  0.95019813088E+02  0.10566000000E+00 0. -1.
         -4    1    1    2    0  502 -0.10017761305E+02 -0.17888443095E+02  0.70889590023E+01  0.21693438585E+02  0.00000000000E+00 0. -1.
</event>
<event>
 5    1  0.8445827E-005  0.1233359E+03  0.7818608E-02  0.1130851E+00
         21   -1    0    0  501  502  0.00000000000E+00  0.00000000000E+00  0.73576813156E+03  0.73576813156E+03  0.00000000000E+00 0.  1.
         -4   -1    0    0    0  501 -0.00000000000E+00 -0.00000000000E+00 -0.34187747141E+02  0.34187747141E+02  0.00000000000E+00 0. -1.
        -13    1    1    2    0    0  0.10247210087E+03 -0.60734958152E+02  0.51339666345E+03  0.52703454517E+03  0.10566000000E+00 0.  1.
         13    1    1    2    0    0 -0.92352718454E+02  0.84619329079E+02  0.13759209247E+03  0.18606732796E+03  0.10566000000E+00 0. -1.
         -4    1    1    2    0  502 -0.10119382419E+02 -0.23884370927E+02  0.50591628502E+02  0.56854005572E+02  0.00000000000E+00 0. -1.
</event>
<event>
 5    1  0.8445827E-005  0.4188697E+03  0.7818608E-02  0.9851379E-01
         21   -1    0    0  501  502  0.00000000000E+00  0.00000000000E+00  0.29428060957E+03  0.29428060957E+03  0.00000000000E+00 0. -1.
         -4   -1    0    0    0  501 -0.00000000000E+00 -0.00000000000E+00 -0.13075778239E+04  0.13075778239E+04  0.00000000000E+00 0. -1.
        -13    1    1    2    0    0 -0.21563324931E+03 -0.77767971378E+02 -0.19200895132E+03  0.29902007313E+03  0.10566000000E+00 0.  1.
         13    1    1    2    0    0 -0.18746820767E+03 -0.32586335825E+03 -0.11129283733E+03  0.39206806035E+03  0.10566000000E+00 0. -1.
         -4    1    1    2    0  502  0.40310145698E+03  0.40363132963E+03 -0.70999542567E+03  0.91077029999E+03  0.00000000000E+00 0. -1.
</event>
<event>
 5    1  0.8445827E-005  0.2990170E+02  0.7818608E-02  0.1405700E+00
         21   -1    0    0  501  502  0.00000000000E+00  0.00000000000E+00  0.91134109313E+02  0.91134109313E+02  0.00000000000E+00 0. -1.
          4   -1    0    0  502    0 -0.00000000000E+00 -0.00000000000E+00 -0.78080719493E+02  0.78080719493E+02  0.00000000000E+00 0.  1.
        -13    1    1    2    0    0 -0.13742813006E+02 -0.27953759367E+02 -0.69696309657E+02  0.76340450063E+02  0.10566000000E+00 0.  1.
         13    1    1    2    0    0  0.17237152498E+02  0.12744136686E+02  0.24425554218E+02  0.32498481642E+02  0.10566000000E+00 0. -1.
          4    1    1    2  501    0 -0.34943394926E+01  0.15209622681E+02  0.58324145259E+02  0.60375897101E+02  0.00000000000E+00 0.  1.
</event>
<event>
 5    1  0.8445827E-005  0.3332811E+03  0.7818608E-02  0.1029181E+00
         21   -1    0    0  501  502  0.00000000000E+00  0.00000000000E+00  0.14772873081E+03  0.14772873081E+03  0.00000000000E+00 0. -1.
         -4   -1    0    0    0  501 -0.00000000000E+00 -0.00000000000E+00 -0.22958421510E+04  0.22958421510E+04  0.00000000000E+00 0. -1.
        -13    1    1    2    0    0 -0.59324769611E+02 -0.92092149329E+02 -0.59279181275E+03  0.60282877892E+03  0.10566000000E+00 0.  1.
         13    1    1    2    0    0  0.34386793079E+03 -0.80011788834E+02 -0.14493369929E+04  0.14917187303E+04  0.10566000000E+00 0. -1.
         -4    1    1    2    0  502 -0.28454316118E+03  0.17210393816E+03 -0.10598461454E+03  0.34902337261E+03  0.00000000000E+00 0. -1.
</event>
<event>
 5    1  0.8445827E-005  0.4707446E+03  0.7818608E-02  0.9648107E-01
         21   -1    0    0  501  502  0.00000000000E+00  0.00000000000E+00  0.30282295049E+03  0.30282295049E+03  0.00000000000E+00 0.  1.
          4   -1    0    0  502    0 -0.00000000000E+00 -0.00000000000E+00 -0.20804745561E+04  0.20804745561E+04  0.00000000000E+00 0.  1.
        -13    1    1    2    0    0  0.66685012866E+02  0.46709308521E+03 -0.28442313453E+03  0.55092592225E+03  0.10566000000E+00 0.  1.
         13    1    1    2    0    0  0.30980347347E+03 -0.99987914875E+02 -0.11715565277E+04  0.12159442767E+04  0.10566000000E+00 0. -1.
          4    1    1    2  501    0 -0.37648848634E+03 -0.36710517034E+03 -0.32167194337E+03  0.61642730763E+03  0.00000000000E+00 0.  1.
</event>
<event>
 5    1  0.8445827E-005  0.1909179E+03  0.7818608E-02  0.1066547E+00
         21   -1    0    0  501  502  0.00000000000E+00  0.00000000000E+00  0.59029940332E+03  0.59029940332E+03  0.00000000000E+00 0. -1.
          4   -1    0    0  502    0 -0.00000000000E+00 -0.00000000000E+00 -0.42058073099E+03  0.42058073099E+03  0.00000000000E+00 0.  1.
        -13    1    1    2    0    0 -0.10470373696E+03  0.15515168165E+03 -0.34507798606E+03  0.39257323455E+03  0.10566000000E+00 0.  1.
         13    1    1    2    0    0  0.14862755574E+03 -0.18370439704E+03  0.23361035173E+03  0.33228190353E+03  0.10566000000E+00 0. -1.
          4    1    1    2  501    0 -0.43923818774E+02  0.28552715389E+02  0.28118630667E+03  0.28602499623E+03  0.00000000000E+00 0.  1.
</event>
<event>
 5    1  0.8445827E-005  0.3614763E+03  0.7818608E-02  0.1060903E+00
          4   -1    0    0  502    0 -0.00000000000E+00  0.00000000000E+00  0.38038838457E+03  0.38038838457E+03  0.00000000000E+00 0.  1.
         21   -1    0    0  501  502  0.00000000000E+00 -0.00000000000E+00 -0.72912319407E+03  0.72912319407E+03  0.00000000000E+00 0.  1.
        -13    1    1    2    0    0  0.14281846880E+03  0.33261173214E+03 -0.53832537928E+03  0.64870787302E+03  0.10566000000E+00 0.  1.
         13    1    1    2    0    0  0.29124407813E+02 -0.15781898991E+02  0.75911491408E+02  0.82824302943E+02  0.10566000000E+00 0. -1.
          4    1    1    2  501    0 -0.17194287661E+03 -0.31682983315E+03  0.11367907837E+03  0.37797940268E+03  0.00000000000E+00 0.  1.
</event>
<event>
 5    1  0.8445827E-005  0.4409291E+03  0.7818608E-02  0.9738184E-01
         21   -1    0    0  501  502  0.00000000000E+00  0.00000000000E+00  0.35547273755E+03  0.35547273755E+03  0.00000000000E+00 0. -1.
         -4   -1    0    0    0  501 -0.00000000000E+00 -0.00000000000E+00 -0.15314812377E+04  0.15314812377E+04  0.00000000000E+00 0. -1.
        -13    1    1    2    0    0  0.10668726035E+03 -0.26894976673E+03 -0.73124104864E+03  0.78640296981E+03  0.10566000000E+00 0.  1.
         13    1    1    2    0    0 -0.38818180738E+03 -0.17949977913E+03 -0.31404927630E+02  0.42882580021E+03  0.10566000000E+00 0. -1.
         -4    1    1    2    0  502  0.28149454703E+03  0.44844954586E+03 -0.41336252388E+03  0.67172520522E+03  0.00000000000E+00 0. -1.
</event>
<event>
 5    1  0.8445827E-005  0.2027364E+03  0.7818608E-02  0.1058276E+00
         21   -1    0    0  501  502  0.00000000000E+00  0.00000000000E+00  0.12857635835E+04  0.12857635835E+04  0.00000000000E+00 0.  1.
         -4   -1    0    0    0  501 -0.00000000000E+00 -0.00000000000E+00 -0.76360166397E+02  0.76360166397E+02  0.00000000000E+00 0. -1.
        -13    1    1    2    0    0 -0.11363558681E+02 -0.18127730281E+03  0.53555865352E+03  0.56552071006E+03  0.10566000000E+00 0.  1.
         13    1    1    2    0    0  0.12869400015E+02  0.20924220622E+03  0.11901187558E+03  0.24106380901E+03  0.10566000000E+00 0. -1.
         -4    1    1    2    0  502 -0.15058413343E+01 -0.27964903408E+02  0.55483288800E+03  0.55553923083E+03  0.00000000000E+00 0. -1.
</event>
<event>
 5    1  0.8445827E-005  0.3632528E+03  0.7818608E-02  0.9841623E-01
         21   -1    0    0  501  502  0.00000000000E+00  0.00000000000E+00  0.23399159593E+03  0.23399159593E+03  0.00000000000E+00 0.  1.
         -4   -1    0    0    0  501 -0.00000000000E+00 -0.00000000000E+00 -0.11953912917E+04  0.11953912917E+04  0.00000000000E+00 0. -1.
        -13    1    1    2    0    0  0.20261135348E+03 -0.32199543914E+03  0.13864210893E+00  0.38043718769E+03  0.10566000000E+00 0.  1.
         13    1    1    2    0    0 -0.20384202312E+03  0.29714005150E+03 -0.95835212542E+03  0.10238567224E+04  0.10566000000E+00 0. -1.
         -4    1    1    2    0  502  0.12306696433E+01  0.24855387647E+02 -0.31862124470E+01  0.25088977512E+02  0.00000000000E+00 0. -1.
</event>
<event>
 5    1  0.8445827E-005  0.4579282E+03  0.7818608E-02  0.9691249E-01
         21   -1    0    0  501  502  0.00000000000E+00  0.00000000000E+00  0.56505542195E+03  0.56505542195E+03  0.00000000000E+00 0.  1.
          4   -1    0    0  502    0 -0.00000000000E+00 -0.00000000000E+00 -0.81365879776E+03  0.81365879776E+03  0.00000000000E+00 0.  1.
        -13    1    1    2    0    0 -0.68577637455E+02 -0.25202721016E+03 -0.42971680218E+03  0.50286891757E+03  0.10566000000E+00 0.  1.
         13    1    1    2    0    0 -0.21152758228E+03 -0.21836417765E+03  0.17826090230E+02  0.30454000198E+03  0.10566000000E+00 0. -1.
          4    1    1    2  501    0  0.28010521974E+03  0.47039138781E+03  0.16328733614E+03  0.57130530016E+03  0.00000000000E+00 0.  1.
</event>
<event>
 5    1  0.8445827E-005  0.1343651E+03  0.7818608E-02  0.1120837E+00
          4   -1    0    0  502    0 -0.00000000000E+00  0.00000000000E+00  0.66479814221E+03  0.66479814221E+03  0.00000000000E+00 0.  1.
         21   -1    0    0  501  502  0.00000000000E+00 -0.00000000000E+00 -0.71170085434E+02  0.71170085434E+02  0.00000000000E+00 0.  1.
        -13    1    1    2    0    0  0.16132584873E+03 -0.15060979820E+02  0.30254946985E+03  0.34320410174E+03  0.10566000000E+00 0.  1.
         13    1    1    2    0    0 -0.78553347177E+02 -0.95417382457E+02  0.16208518392E+03  0.20383013329E+03  0.10566000000E+00 0. -1.
          4    1    1    2  501    0 -0.82772501552E+02  0.11047836228E+03  0.12899340301E+03  0.18893399261E+03  0.00000000000E+00 0.  1.
</event>
<event>
 5    1  0.8445827E-005  0.4751498E+03  0.7818608E-02  0.9856021E-01
         21   -1    0    0  501  502  0.00000000000E+00  0.00000000000E+00  0.37546626325E+03  0.37546626325E+03  0.00000000000E+00 0. -1.
         -4   -1    0    0    0  501 -0.00000000000E+00 -0.00000000000E+00 -0.11621834282E+04  0.11621834282E+04  0.00000000000E+00 0. -1.
        -13    1    1    2    0    0  0.12520477047E+03  0.90688384200E+02 -0.41938917015E+03  0.44697640293E+03  0.10566000000E+00 0.  1.
         13    1    1    2    0    0  0.12420493326E+03  0.36549175962E+03 -0.41718536735E+03  0.56837904051E+03  0.10566000000E+00 0. -1.
         -4    1    1    2    0  502 -0.24940970373E+03 -0.45618014382E+03  0.49857372533E+02  0.52229424803E+03  0.00000000000E+00 0. -1.
</event>
<event>
 5    1  0.8445827E-005  0.4671094E+03  0.7818608E-02  0.9742026E-01
         21   -1    0    0  501  502  0.00000000000E+00  0.00000000000E+00  0.82446383295E+03  0.82446383295E+03  0.00000000000E+00 0.  1.
          4   -1    0    0  502    0 -0.00000000000E+00 -0.00000000000E+00 -0.14463794276E+04  0.14463794276E+04  0.00000000000E+00 0.  1.
        -13    1    1    2    0    0  0.41951242346E+03 -0.44832676045E+03  0.20257190376E+03  0.64654693947E+03  0.10566000000E+00 0.  1.
         13    1    1    2    0    0 -0.21840075288E+03  0.99874613202E+02 -0.11069603803E+04  0.11327114027E+04  0.10566000000E+00 0. -1.
          4    1    1    2  501    0 -0.20111167059E+03  0.34845214725E+03  0.28247288185E+03  0.49158491835E+03  0.00000000000E+00 0.  1.
</event>
<event>
 5    1  0.8445827E-005  0.3913993E+03  0.7818608E-02  0.9754218E-01
          4   -1    0    0  502    0 -0.00000000000E+00  0.00000000000E+00  0.27979889569E+03  0.27979889569E+03  0.00000000000E+00 0.  1.
         21   -1    0    0  501  502  0.00000000000E+00 -0.00000000000E+00 -0.23665182370E+04  0.23665182370E+04  0.00000000000E+00 0.  1.
        -13    1    1    2    0    0  0.37172089343E+03 -0.28588591461E+03 -0.29839053109E+03  0.55582740036E+03  0.10566000000E+00 0.  1.
         13    1    1    2    0    0 -0.21235177144E+03  0.28771106756E+03 -0.69492923258E+02  0.36428040131E+03  0.10566000000E+00 0. -1.
          4    1    1    2  501    0 -0.15936912199E+03 -0.18251529506E+01 -0.17188358870E+04  0.17262093310E+04  0.00000000000E+00 0.  1.
</event>
<event>
 5    1  0.8445827E-005  0.5053760E+03  0.7818608E-02  0.9575467E-01
         21   -1    0    0  501  502  0.00000000000E+00  0.00000000000E+00  0.16963589276E+04  0.16963589276E+04  0.00000000000E+00 0. -1.
         -4   -1    0    0    0  501 -0.00000000000E+00 -0.00000000000E+00 -0.29252240133E+03  0.29252240133E+03  0.00000000000E+00 0. -1.
        -13    1    1    2    0    0 -0.19550484974E+03  0.27872355696E+03  0.34228015330E+03  0.48276773089E+03  0.10566000000E+00 0.  1.
         13    1    1    2    0    0  0.46497075799E+03  0.20996700519E+03  0.51998000278E+03  0.72846630911E+03  0.10566000000E+00 0. -1.
         -4    1    1    2    0  502 -0.26946590825E+03 -0.48869056215E+03  0.54157637020E+03  0.77764728894E+03  0.00000000000E+00 0. -1.
</event>
<event>
 5    1  0.8445827E-005  0.4798751E+03  0.7818608E-02  0.9637832E-01
         21   -1    0    0  501  502  0.00000000000E+00  0.00000000000E+00  0.54425119341E+03  0.54425119341E+03  0.00000000000E+00 0.  1.
          4   -1    0    0  502    0 -0.00000000000E+00 -0.00000000000E+00 -0.33753582756E+04  0.33753582756E+04  0.00000000000E+00 0.  1.
        -13    1    1    2    0    0  0.55511205197E+02 -0.27427528251E+03 -0.45140051675E+03  0.53110343831E+03  0.10566000000E+00 0.  1.
         13    1    1    2    0    0  0.53195610053E+03  0.31529895460E+03 -0.26638213020E+04  0.27346543957E+04  0.10566000000E+00 0. -1.
          4    1    1    2  501    0 -0.58746730573E+03 -0.41023672091E+02  0.28411473662E+03  0.65385163496E+03  0.00000000000E+00 0.  1.
</event>
<event>
 5    1  0.8445827E-005  0.3880567E+03  0.7818608E-02  0.9925553E-01
         21   -1    0    0  501  502  0.00000000000E+00  0.00000000000E+00  0.23984306889E+03  0.23984306889E+03  0.00000000000E+00 0. -1.
         -4   -1    0    0    0  501 -0.00000000000E+00 -0.00000000000E+00 -0.16398686810E+04  0.16398686810E+04  0.00000000000E+00 0. -1.
        -13    1    1    2    0    0  0.21744176518E+00 -0.22480068490E+03 -0.37160903540E+03  0.43431403566E+03  0.10566000000E+00 0.  1.
         13    1    1    2    0    0 -0.56490241699E+02 -0.20171711344E+03 -0.99174155166E+03  0.10136233313E+04  0.10566000000E+00 0. -1.
         -4    1    1    2    0  502  0.56272799934E+02  0.42651779835E+03 -0.36675025053E+02  0.43177438296E+03  0.00000000000E+00 0. -1.
</event>
<event>
 5    1  0.8445827E-005  0.1325209E+03  0.7818608E-02  0.1119754E+00
         21   -1    0    0  501  502  0.00000000000E+00  0.00000000000E+00  0.24318324031E+02  0.24318324031E+02  0.00000000000E+00 0. -1.
          4   -1    0    0  502    0 -0.00000000000E+00 -0.00000000000E+00 -0.10784137449E+04  0.10784137449E+04  0.00000000000E+00 0.  1.
        -13    1    1    2    0    0 -0.12341196170E+03 -0.54355106935E+02 -0.70160374626E+03  0.71444581172E+03  0.10566000000E+00 0.  1.
         13    1    1    2    0    0  0.10267208397E+03  0.79655202972E+02 -0.27417184690E+03  0.30340850512E+03  0.10566000000E+00 0. -1.
          4    1    1    2  501    0  0.20739877737E+02 -0.25300096037E+02 -0.78319827700E+02  0.84877752085E+02  0.00000000000E+00 0.  1.
</event>
<event>
 5    1  0.8445827E-005  0.1263454E+03  0.7818608E-02  0.1127102E+00
         21   -1    0    0  501  502  0.00000000000E+00  0.00000000000E+00  0.84982715882E+02  0.84982715882E+02  0.00000000000E+00 0.  1.
          4   -1    0    0  502    0 -0.00000000000E+00 -0.00000000000E+00 -0.50974571524E+03  0.50974571524E+03  0.00000000000E+00 0.  1.
        -13    1    1    2    0    0  0.87033986603E+02 -0.89181578481E+02 -0.40144709734E+03  0.42034277904E+03  0.10566000000E+00 0.  1.
         13    1    1    2    0    0 -0.89322681385E+02  0.10130988011E+03 -0.50765246121E+02  0.14428913540E+03  0.10566000000E+00 0. -1.
          4    1    1    2  501    0  0.22886947811E+01 -0.12128301630E+02  0.27449344105E+02  0.30096516676E+02  0.00000000000E+00 0.  1.
</event>
<event>
 5    1  0.8445827E-005  0.3978563E+03  0.7818608E-02  0.9859514E-01
         -4   -1    0    0    0  501 -0.00000000000E+00  0.00000000000E+00  0.35212990585E+03  0.35212990585E+03  0.00000000000E+00 0. -1.
         21   -1    0    0  501  502  0.00000000000E+00 -0.00000000000E+00 -0.14723477650E+04  0.14723477650E+04  0.00000000000E+00 0. -1.
        -13    1    1    2    0    0  0.21309079905E+03 -0.14941524199E+03  0.51143896572E+02  0.26523256305E+03  0.10566000000E+00 0.  1.
         13    1    1    2    0    0  0.75611661416E+02 -0.19290900366E+03  0.86137466486E+02  0.22438957492E+03  0.10566000000E+00 0. -1.
         -4    1    1    2    0  502 -0.28870246047E+03  0.34232424565E+03 -0.12574992222E+04  0.13348555329E+04  0.00000000000E+00 0. -1.
</event>
<event>
 5    1  0.8445827E-005  0.1746445E+03  0.7818608E-02  0.1083657E+00
          4   -1    0    0  502    0 -0.00000000000E+00  0.00000000000E+00  0.82096464782E+02  0.82096464782E+02  0.00000000000E+00 0.  1.
         21   -1    0    0  501  502  0.00000000000E+00 -0.00000000000E+00 -0.14600971680E+04  0.14600971680E+04  0.00000000000E+00 0.  1.
        -13    1    1    2    0    0 -0.41363798830E+02 -0.88135400229E+01  0.66109834072E+01  0.42806058064E+02  0.10566000000E+00 0.  1.
         13    1    1    2    0    0 -0.13155064607E+03  0.13186919942E+03 -0.13046878501E+03  0.22741410084E+03  0.10566000000E+00 0. -1.
          4    1    1    2  501    0  0.17291444490E+03 -0.12305565940E+03 -0.12541429016E+04  0.12719734739E+04  0.00000000000E+00 0.  1.
</event>
<event>
 5    1  0.8445827E-005  0.4920972E+03  0.7818608E-02  0.1009658E+00
         21   -1    0    0  501  502  0.00000000000E+00  0.00000000000E+00  0.71216580212E+03  0.71216580212E+03  0.00000000000E+00 0. -1.
         -4   -1    0    0    0  501 -0.00000000000E+00 -0.00000000000E+00 -0.39765024648E+03  0.39765024648E+03  0.00000000000E+00 0. -1.
        -13    1    1    2    0    0  0.21214677432E+02 -0.59330143791E+02 -0.17715786658E+02  0.65452186837E+02  0.10566000000E+00 0.  1.
         13    1    1    2    0    0 -0.26630033039E+03 -0.38872366417E+03  0.92474068901E+02  0.48018060939E+03  0.10566000000E+00 0. -1.
         -4    1    1    2    0  502  0.24508565296E+03  0.44805380796E+03  0.23975727339E+03  0.56418325237E+03  0.00000000000E+00 0. -1.
</event>
<event>
 5    1  0.8445827E-005  0.4892839E+03  0.7818608E-02  0.9899200E-01
         21   -1    0    0  501  502  0.00000000000E+00  0.00000000000E+00  0.17788831118E+03  0.17788831118E+03  0.00000000000E+00 0.  1.
          4   -1    0    0  502    0 -0.00000000000E+00 -0.00000000000E+00 -0.21685330958E+04  0.21685330958E+04  0.00000000000E+00 0.  1.
        -13    1    1    2    0    0 -0.37580326367E+03  0.29372712071E+03 -0.44261702524E+03  0.65070235640E+03  0.10566000000E+00 0.  1.
         13    1    1    2    0    0  0.49789183456E+02  0.11188087703E+03 -0.61786165676E+03  0.62988041047E+03  0.10566000000E+00 0. -1.
          4    1    1    2  501    0  0.32601408021E+03 -0.40560799774E+03 -0.93016610265E+03  0.10658386402E+04  0.00000000000E+00 0.  1.
</event>
<event>
 5    1  0.8445827E-005  0.4263855E+03  0.7818608E-02  0.9728501E-01
         -4   -1    0    0    0  501 -0.00000000000E+00  0.00000000000E+00  0.25605631241E+04  0.25605631241E+04  0.00000000000E+00 0. -1.
         21   -1    0    0  501  502  0.00000000000E+00 -0.00000000000E+00 -0.25976518201E+03  0.25976518201E+03  0.00000000000E+00 0. -1.
        -13    1    1    2    0    0 -0.67641504661E+02  0.32387788069E+03  0.13772660239E+04  0.14164511874E+04  0.10566000000E+00 0.  1.
         13    1    1    2    0    0  0.31200704445E+03 -0.58515206625E+03  0.76548944921E+03  0.10127810447E+04  0.10566000000E+00 0. -1.
         -4    1    1    2    0  502 -0.24436553979E+03  0.26127418557E+03  0.15804246900E+03  0.39109607398E+03  0.00000000000E+00 0. -1.
</event>
<event>
 5    1  0.8445827E-005  0.6589810E+03  0.7818608E-02  0.9184705E-01
         21   -1    0    0  501  502  0.00000000000E+00  0.00000000000E+00  0.63617860194E+03  0.63617860194E+03  0.00000000000E+00 0. -1.
          4   -1    0    0  502    0 -0.00000000000E+00 -0.00000000000E+00 -0.10783934049E+04  0.10783934049E+04  0.00000000000E+00 0.  1.
        -13    1    1    2    0    0 -0.64861281007E+03 -0.38499431869E+03 -0.16567890215E+03  0.77224912599E+03  0.10566000000E+00 0.  1.
         13    1    1    2    0    0  0.60204965015E+03  0.11129515393E+03 -0.25700673110E+03  0.66400516830E+03  0.10566000000E+00 0. -1.
          4    1    1    2  501    0  0.46563159912E+02  0.27369916477E+03 -0.19529169709E+02  0.27831771256E+03  0.00000000000E+00 0.  1.
</event>
<event>
 5    1  0.8445827E-005  0.1118658E+03  0.7818608E-02  0.1146289E+00
          4   -1    0    0  502    0 -0.00000000000E+00  0.00000000000E+00  0.16291037574E+03  0.16291037574E+03  0.00000000000E+00 0.  1.
         21   -1    0    0  501  502  0.00000000000E+00 -0.00000000000E+00 -0.26760238372E+03  0.26760238372E+03  0.00000000000E+00 0.  1.
        -13    1    1    2    0    0  0.51282854234E+01  0.10528873883E+03  0.82630821597E+02  0.13393984351E+03  0.10566000000E+00 0.  1.
         13    1    1    2    0    0  0.25892396563E+02 -0.13550006288E+03 -0.40908254789E+02  0.14388947048E+03  0.10566000000E+00 0. -1.
          4    1    1    2  501    0 -0.31020681986E+02  0.30211324052E+02 -0.14641457479E+03  0.15268344548E+03  0.00000000000E+00 0.  1.
</event>
<event>
 5    1  0.8445827E-005  0.1967597E+03  0.7818608E-02  0.1062380E+00
         21   -1    0    0  501  502  0.00000000000E+00  0.00000000000E+00  0.51221090829E+03  0.51221090829E+03  0.00000000000E+00 0. -1.
         -4   -1    0    0    0  501 -0.00000000000E+00 -0.00000000000E+00 -0.13620881780E+04  0.13620881780E+04  0.00000000000E+00 0. -1.
        -13    1    1    2    0    0 -0.10703495960E+03  0.16645029692E+03 -0.81590892003E+03  0.83956510222E+03  0.10566000000E+00 0.  1.
         13    1    1    2    0    0 -0.25813537080E+02 -0.19334140914E+03  0.47211036967E+03  0.51081841343E+03  0.10566000000E+00 0. -1.
         -4    1    1    2    0  502  0.13284849668E+03  0.26891112222E+02 -0.50607871932E+03  0.52391557062E+03  0.00000000000E+00 0. -1.
</event>
<event>
 5    1  0.8445827E-005  0.4135468E+03  0.7818608E-02  0.9826163E-01
          4   -1    0    0  502    0 -0.00000000000E+00  0.00000000000E+00  0.14241970600E+04  0.14241970600E+04  0.00000000000E+00 0.  1.
         21   -1    0    0  501  502  0.00000000000E+00 -0.00000000000E+00 -0.28892340072E+03  0.28892340072E+03  0.00000000000E+00 0.  1.
        -13    1    1    2    0    0 -0.13681713406E+03  0.44265073673E+03  0.46253900522E+02  0.46561576152E+03  0.10566000000E+00 0.  1.
         13    1    1    2    0    0 -0.55955492823E+02 -0.25332748768E+03  0.22901556089E+03  0.34605486774E+03  0.10566000000E+00 0. -1.
          4    1    1    2  501    0  0.19277262688E+03 -0.18932324904E+03  0.86000419785E+03  0.90144983145E+03  0.00000000000E+00 0.  1.
</event>
<event>
 5    1  0.8445827E-005  0.4653097E+03  0.7818608E-02  0.1004731E+00
         -4   -1    0    0    0  501 -0.00000000000E+00  0.00000000000E+00  0.45722430104E+03  0.45722430104E+03  0.00000000000E+00 0. -1.
         21   -1    0    0  501  502  0.00000000000E+00 -0.00000000000E+00 -0.76787918514E+03  0.76787918514E+03  0.00000000000E+00 0. -1.
        -13    1    1    2    0    0  0.81528558762E+02 -0.31469424495E+02 -0.18327012846E+03  0.20303985255E+03  0.10566000000E+00 0.  1.
         13    1    1    2    0    0 -0.29256365895E+03  0.42292155672E+03  0.97983214357E+02  0.52350440221E+03  0.10566000000E+00 0. -1.
         -4    1    1    2    0  502  0.21103510019E+03 -0.39145213223E+03 -0.22536796999E+03  0.49855923142E+03  0.00000000000E+00 0. -1.
</event>
<event>
 5    1  0.8445827E-005  0.9948628E+02  0.7818608E-02  0.1165408E+00
         21   -1    0    0  501  502  0.00000000000E+00  0.00000000000E+00  0.95079259118E+02  0.95079259118E+02  0.00000000000E+00 0.  1.
         -4   -1    0    0    0  501 -0.00000000000E+00 -0.00000000000E+00 -0.46253439596E+03  0.46253439596E+03  0.00000000000E+00 0. -1.
        -13    1    1    2    0    0  0.11356137611E+03 -0.41291612349E+02 -0.28537454145E+02  0.12415949761E+03  0.10566000000E+00 0.  1.
         13    1    1    2    0    0 -0.93591433023E+02  0.24727854345E+02 -0.37596375690E+03  0.38822619796E+03  0.10566000000E+00 0. -1.
         -4    1    1    2    0  502 -0.19969943085E+02  0.16563758004E+02  0.37046074211E+02  0.45227959500E+02  0.00000000000E+00 0. -1.
</event>
<event>
 5    1  0.8445827E-005  0.5548333E+03  0.7818608E-02  0.9365259E-01
         21   -1    0    0  501  502  0.00000000000E+00  0.00000000000E+00  0.63245544354E+03  0.63245544354E+03  0.00000000000E+00 0. -1.
         -4   -1    0    0    0  501 -0.00000000000E+00 -0.00000000000E+00 -0.11543106277E+04  0.11543106277E+04  0.00000000000E+00 0. -1.
        -13    1    1    2    0    0 -0.44516653875E+03  0.27965108572E+03 -0.54576093474E+03  0.75778162159E+03  0.10566000000E+00 0.  1.
         13    1    1    2    0    0  0.43930176672E+03 -0.55335608557E+03  0.15823680499E+03  0.72403583979E+03  0.10566000000E+00 0. -1.
         -4    1    1    2    0  502  0.58647720311E+01  0.27370499985E+03 -0.13433105446E+03  0.30494860991E+03  0.00000000000E+00 0. -1.
</event>
<event>
 5    1  0.8445827E-005  0.2326178E+03  0.7818608E-02  0.1039816E+00
         21   -1    0    0  501  502  0.00000000000E+00  0.00000000000E+00  0.45731605167E+02  0.45731605167E+02  0.00000000000E+00 0.  1.
         -4   -1    0    0    0  501 -0.00000000000E+00 -0.00000000000E+00 -0.18508094997E+04  0.18508094997E+04  0.00000000000E+00 0. -1.
        -13    1    1    2    0    0  0.21644869999E+03 -0.11426998231E+03 -0.11178742586E+04  0.11443559489E+04  0.10566000000E+00 0.  1.
         13    1    1    2    0    0 -0.15074155779E+03  0.16158126677E+03 -0.55203976378E+03  0.59462545773E+03  0.10566000000E+00 0. -1.
         -4    1    1    2    0  502 -0.65707142191E+02 -0.47311284460E+02 -0.13516387211E+03  0.15755969820E+03  0.00000000000E+00 0. -1.
</event>
<event>
 5    1  0.8445827E-005  0.4986067E+03  0.7818608E-02  0.9781539E-01
         21   -1    0    0  501  502  0.00000000000E+00  0.00000000000E+00  0.28001739061E+03  0.28001739061E+03  0.00000000000E+00 0. -1.
         -4   -1    0    0    0  501 -0.00000000000E+00 -0.00000000000E+00 -0.18909287453E+04  0.18909287453E+04  0.00000000000E+00 0. -1.
        -13    1    1    2    0    0  0.17192653978E+03 -0.12215926190E+02 -0.93701312658E+03  0.95273373745E+03  0.10566000000E+00 0.  1.
         13    1    1    2    0    0 -0.16128791705E+03 -0.48619824236E+03 -0.28705571695E+03  0.58719972655E+03  0.10566000000E+00 0. -1.
         -4    1    1    2    0  502 -0.10638622724E+02  0.49841416855E+03 -0.38684251119E+03  0.63101267195E+03  0.00000000000E+00 0. -1.
</event>
<event>
 5    1  0.8445827E-005  0.3440373E+03  0.7818608E-02  0.9906261E-01
         -4   -1    0    0    0  501 -0.00000000000E+00  0.00000000000E+00  0.46260028576E+03  0.46260028576E+03  0.00000000000E+00 0. -1.
         21   -1    0    0  501  502  0.00000000000E+00 -0.00000000000E+00 -0.34796039075E+03  0.34796039075E+03  0.00000000000E+00 0.  1.
        -13    1    1    2    0    0 -0.14992712409E+03 -0.31438478387E+03 -0.11032975247E+03  0.36536091787E+03  0.10566000000E+00 0.  1.
         13    1    1    2    0    0  0.13997637512E+03  0.31257795060E+03  0.24612360959E+03  0.42175253781E+03  0.10566000000E+00 0. -1.
         -4    1    1    2    0  502  0.99507489703E+01  0.18068332669E+01 -0.21153962108E+02  0.23447220825E+02  0.00000000000E+00 0. -1.
</event>
<event>
 5    1  0.8445827E-005  0.1034860E+03  0.7818608E-02  0.1158913E+00
         21   -1    0    0  501  502  0.00000000000E+00  0.00000000000E+00  0.54520542171E+03  0.54520542171E+03  0.00000000000E+00 0. -1.
          4   -1    0    0  502    0 -0.00000000000E+00 -0.00000000000E+00 -0.10097695791E+03  0.10097695791E+03  0.00000000000E+00 0.  1.
        -13    1    1    2    0    0 -0.90944663903E+02  0.46606594505E+02 -0.59857333560E+02  0.11843149112E+03  0.10566000000E+00 0.  1.
         13    1    1    2    0    0  0.99617732676E+02 -0.61246464869E+02  0.28573801839E+03  0.30874107022E+03  0.10566000000E+00 0. -1.
          4    1    1    2  501    0 -0.86730687734E+01  0.14639870364E+02  0.21834777896E+03  0.21900981828E+03  0.00000000000E+00 0.  1.
</event>
<event>
 5    1  0.8445827E-005  0.4841041E+03  0.7818608E-02  0.9513510E-01
          4   -1    0    0  502    0 -0.00000000000E+00  0.00000000000E+00  0.26170129775E+04  0.26170129775E+04  0.00000000000E+00 0.  1.
         21   -1    0    0  501  502  0.00000000000E+00 -0.00000000000E+00 -0.28842881569E+03  0.28842881569E+03  0.00000000000E+00 0.  1.
        -13    1    1    2    0    0  0.57627627721E+03  0.14342517263E+03  0.99459535871E+03  0.11583976289E+04  0.10566000000E+00 0.  1.
         13    1    1    2    0    0 -0.33697099100E+03 -0.30632932215E+03  0.13806509093E+04  0.14538170610E+04  0.10566000000E+00 0. -1.
          4    1    1    2  501    0 -0.23930528621E+03  0.16290414952E+03 -0.46662106229E+02  0.29322710328E+03  0.00000000000E+00 0.  1.
</event>
<event>
 5    1  0.8445827E-005  0.7894150E+02  0.7818608E-02  0.1205046E+00
          4   -1    0    0  502    0 -0.00000000000E+00  0.00000000000E+00  0.12356443957E+03  0.12356443957E+03  0.00000000000E+00 0.  1.
         21   -1    0    0  501  502  0.00000000000E+00 -0.00000000000E+00 -0.82787941526E+02  0.82787941526E+02  0.00000000000E+00 0. -1.
        -13    1    1    2    0    0 -0.15831514012E+02  0.76306750327E+02  0.65745252875E+02  0.10195982749E+03  0.10566000000E+00 0.  1.
         13    1    1    2    0    0  0.26704202139E+02 -0.77366901040E+02 -0.54531357855E+01  0.82027432255E+02  0.10566000000E+00 0. -1.
          4    1    1    2  501    0 -0.10872688127E+02  0.10601507131E+01 -0.19515619044E+02  0.22365121357E+02  0.00000000000E+00 0.  1.
</event>
<event>
 5    1  0.8445827E-005  0.4418819E+02  0.7818608E-02  0.1317449E+00
         21   -1    0    0  501  502  0.00000000000E+00  0.00000000000E+00  0.39801742307E+03  0.39801742307E+03  0.00000000000E+00 0. -1.
         -4   -1    0    0    0  501 -0.00000000000E+00 -0.00000000000E+00 -0.32646717082E+02  0.32646717082E+02  0.00000000000E+00 0. -1.
        -13    1    1    2    0    0 -0.15273831779E+02  0.72572044591E+02  0.25534521632E+03  0.26589693916E+03  0.10566000000E+00 0.  1.
         13    1    1    2    0    0  0.28688669927E+02 -0.31537297705E+02 -0.40207852861E+01  0.42823110666E+02  0.10566000000E+00 0. -1.
         -4    1    1    2    0  502 -0.13414838148E+02 -0.41034746886E+02  0.11404627495E+03  0.12194409032E+03  0.00000000000E+00 0. -1.
</event>
<event>
 5    1  0.8445827E-005  0.5241931E+03  0.7818608E-02  0.9426466E-01
         21   -1    0    0  501  502  0.00000000000E+00  0.00000000000E+00  0.97614672626E+03  0.97614672626E+03  0.00000000000E+00 0.  1.
         -4   -1    0    0    0  501 -0.00000000000E+00 -0.00000000000E+00 -0.22308124259E+04  0.22308124259E+04  0.00000000000E+00 0. -1.
        -13    1    1    2    0    0 -0.27162930067E+03  0.45529540247E+03 -0.18131444531E+04  0.18890656948E+04  0.10566000000E+00 0.  1.
         13    1    1    2    0    0  0.51078914642E+03 -0.24767041471E+03 -0.10996131564E+03  0.57821941210E+03  0.10566000000E+00 0. -1.
         -4    1    1    2    0  502 -0.23915984575E+03 -0.20762498775E+03  0.66844006903E+03  0.73967404527E+03  0.00000000000E+00 0. -1.
</event>
<event>
 5    1  0.8445827E-005  0.4390066E+02  0.7818608E-02  0.1318833E+00
         21   -1    0    0  501  502  0.00000000000E+00  0.00000000000E+00  0.50640546609E+03  0.50640546609E+03  0.00000000000E+00 0. -1.
          4   -1    0    0  502    0 -0.00000000000E+00 -0.00000000000E+00 -0.12073667646E+02  0.12073667646E+02  0.00000000000E+00 0.  1.
        -13    1    1    2    0    0  0.31878459494E+02  0.28956224620E+02  0.39305492804E+02  0.58306363740E+02  0.10566000000E+00 0.  1.
         13    1    1    2    0    0 -0.29145601332E+02 -0.39156333526E+02  0.24140488239E+03  0.24629050517E+03  0.10566000000E+00 0. -1.
          4    1    1    2  501    0 -0.27328581623E+01  0.10200108906E+02  0.21362142324E+03  0.21388226482E+03  0.00000000000E+00 0.  1.
</event>
<event>
 5    1  0.8445827E-005  0.4843016E+02  0.7818608E-02  0.1298316E+00
         -4   -1    0    0    0  501 -0.00000000000E+00  0.00000000000E+00  0.28111111775E+02  0.28111111775E+02  0.00000000000E+00 0. -1.
         21   -1    0    0  501  502  0.00000000000E+00 -0.00000000000E+00 -0.30328861185E+03  0.30328861185E+03  0.00000000000E+00 0. -1.
        -13    1    1    2    0    0  0.37189924296E+02 -0.32199930224E+02 -0.61247516999E+01  0.49572671130E+02  0.10566000000E+00 0.  1.
         13    1    1    2    0    0 -0.51770110002E+02  0.58736122407E+01 -0.14194388883E+03  0.15120424052E+03  0.10566000000E+00 0. -1.
         -4    1    1    2    0  502  0.14580185706E+02  0.26326317983E+02 -0.12710885955E+03  0.13062281198E+03  0.00000000000E+00 0. -1.
</event>
<event>
 5    1  0.8445827E-005  0.2814277E+03  0.7818608E-02  0.1015280E+00
         21   -1    0    0  501  502  0.00000000000E+00  0.00000000000E+00  0.13110422447E+03  0.13110422447E+03  0.00000000000E+00 0. -1.
         -4   -1    0    0    0  501 -0.00000000000E+00 -0.00000000000E+00 -0.31774281500E+04  0.31774281500E+04  0.00000000000E+00 0. -1.
        -13    1    1    2    0    0  0.19823904401E+03 -0.96014143613E+02 -0.97912058052E+03  0.10035908313E+04  0.10566000000E+00 0.  1.
         13    1    1    2    0    0 -0.31243090302E+03  0.16893642575E+03 -0.21272819569E+04  0.21567292646E+04  0.10566000000E+00 0. -1.
         -4    1    1    2    0  502  0.11419185901E+03 -0.72922282134E+02  0.60078611984E+02  0.14821227855E+03  0.00000000000E+00 0. -1.
</event>
<event>
 5    1  0.2449234E-004  0.4993066E+03  0.7818608E-02  0.1024771E+00
         21   -1    0    0  501  502  0.00000000000E+00  0.00000000000E+00  0.31773140512E+03  0.31773140512E+03  0.00000000000E+00 0.  1.
          4   -1    0    0  502    0 -0.00000000000E+00 -0.00000000000E+00 -0.99988262125E+03  0.99988262125E+03  0.00000000000E+00 0.  1.
        -13    1    1    2    0    0 -0.42994107209E+03  0.23022801690E+03 -0.22003431946E+03  0.53504147329E+03  0.10566000000E+00 0.  1.
         13    1    1    2    0    0 -0.34645033318E+02 -0.13993786623E+02 -0.20661359968E+03  0.20996498550E+03  0.10566000000E+00 0. -1.
          4    1    1    2  501    0  0.46458610541E+03 -0.21623423028E+03 -0.25550329700E+03  0.57260756759E+03  0.00000000000E+00 0.  1.
</event>
<event>
 5    1  0.8445827E-005  0.4456480E+03  0.7818608E-02  0.9605786E-01
         21   -1    0    0  501  502  0.00000000000E+00  0.00000000000E+00  0.99276675177E+03  0.99276675177E+03  0.00000000000E+00 0.  1.
          4   -1    0    0  502    0 -0.00000000000E+00 -0.00000000000E+00 -0.70850724945E+03  0.70850724945E+03  0.00000000000E+00 0.  1.
        -13    1    1    2    0    0  0.66006947788E+02  0.27097235946E+03  0.69861749815E+03  0.75222959038E+03  0.10566000000E+00 0.  1.
         13    1    1    2    0    0 -0.31713398440E+03 -0.39013079238E+03 -0.71753687975E+02  0.50786277884E+03  0.10566000000E+00 0. -1.
          4    1    1    2  501    0  0.25112703661E+03  0.11915843293E+03 -0.34260430785E+03  0.44118163200E+03  0.00000000000E+00 0.  1.
</event>
<event>
 5    1  0.8445827E-005  0.4156130E+03  0.7818608E-02  0.1022837E+00
          4   -1    0    0  502    0 -0.00000000000E+00  0.00000000000E+00  0.45517391983E+03  0.45517391983E+03  0.00000000000E+00 0.  1.
         21   -1    0    0  501  502  0.00000000000E+00 -0.00000000000E+00 -0.51901704657E+03  0.51901704657E+03  0.00000000000E+00 0.  1.
        -13    1    1    2    0    0  0.25402146020E+03  0.27672586517E+03  0.61295527799E+02  0.38060643661E+03  0.10566000000E+00 0.  1.
         13    1    1    2    0    0  0.60648550163E+02  0.32546498913E+02  0.81252493818E+02  0.10648708910E+03  0.10566000000E+00 0. -1.
          4    1    1    2  501    0 -0.31467001036E+03 -0.30927236408E+03 -0.20639114836E+03  0.48709744069E+03  0.00000000000E+00 0.  1.
</event>
<event>
 5    1  0.8445827E-005  0.3047913E+03  0.7818608E-02  0.1005347E+00
         21   -1    0    0  501  502  0.00000000000E+00  0.00000000000E+00  0.26491596856E+04  0.26491596856E+04  0.00000000000E+00 0.  1.
         -4   -1    0    0    0  501 -0.00000000000E+00 -0.00000000000E+00 -0.45410624014E+02  0.45410624014E+02  0.00000000000E+00 0. -1.
        -13    1    1    2    0    0 -0.26494424842E+03  0.14340167644E+03  0.12743288958E+04  0.13094554751E+04  0.10566000000E+00 0.  1.
         13    1    1    2    0    0  0.27474407850E+03 -0.13737242434E+03  0.82128188377E+03  0.87684630090E+03  0.10566000000E+00 0. -1.
         -4    1    1    2    0  502 -0.97998300779E+01 -0.60292520917E+01  0.50813828205E+03  0.50826853359E+03  0.00000000000E+00 0. -1.
</event>
<event>
 5    1  0.8445827E-005  0.5040620E+03  0.7818608E-02  0.9620098E-01
         -4   -1    0    0    0  501 -0.00000000000E+00  0.00000000000E+00  0.26731373473E+04  0.26731373473E+04  0.00000000000E+00 0. -1.
         21   -1    0    0  501  502  0.00000000000E+00 -0.00000000000E+00 -0.17526734622E+03  0.17526734622E+03  0.00000000000E+00 0. -1.
        -13    1    1    2    0    0 -0.26772142943E+03 -0.11838698026E+03  0.80365017551E+03  0.85530337111E+03  0.10566000000E+00 0.  1.
         13    1    1    2    0    0  0.96917636833E+02 -0.44294799462E+03  0.87405212150E+03  0.98466394091E+03  0.10566000000E+00 0. -1.
         -4    1    1    2    0  502  0.17080379260E+03  0.56133497488E+03  0.82016770405E+03  0.10084373815E+04  0.00000000000E+00 0. -1.
</event>
<event>
 5    1  0.8445827E-005  0.1427522E+03  0.7818608E-02  0.1108488E+00
          4   -1    0    0  502    0 -0.00000000000E+00  0.00000000000E+00  0.69906008081E+02  0.69906008081E+02  0.00000000000E+00 0.  1.
         21   -1    0    0  501  502  0.00000000000E+00 -0.00000000000E+00 -0.68918751480E+03  0.68918751480E+03  0.00000000000E+00 0.  1.
        -13    1    1    2    0    0  0.12193299197E+03 -0.92425996448E+02 -0.12808937697E+03  0.19954227373E+03  0.10566000000E+00 0.  1.
         13    1    1    2    0    0 -0.75193606702E+02  0.11530235439E+03 -0.11384244480E+03  0.17863041404E+03  0.10566000000E+00 0. -1.
          4    1    1    2  501    0 -0.46739385268E+02 -0.22876357944E+02 -0.37734968495E+03  0.38092083511E+03  0.00000000000E+00 0.  1.
</event>
<event>
 5    1  0.8445827E-005  0.4768881E+03  0.7818608E-02  0.1003997E+00
         21   -1    0    0  501  502  0.00000000000E+00  0.00000000000E+00  0.62243440957E+03  0.62243440957E+03  0.00000000000E+00 0. -1.
         -4   -1    0    0    0  501 -0.00000000000E+00 -0.00000000000E+00 -0.53770064885E+03  0.53770064885E+03  0.00000000000E+00 0. -1.
        -13    1    1    2    0    0  0.43022441765E+02 -0.71139125191E+02 -0.94929943951E+02  0.12618799884E+03  0.10566000000E+00 0.  1.
         13    1    1    2    0    0  0.28336209377E+01 -0.45316551028E+03  0.22450036651E+03  0.50573454978E+03  0.10566000000E+00 0. -1.
         -4    1    1    2    0  502 -0.45856062703E+02  0.52430463547E+03 -0.44836661837E+02  0.52821250980E+03  0.00000000000E+00 0. -1.
</event>
<event>
 5    1  0.8445827E-005  0.1580459E+03  0.7818608E-02  0.1093437E+00
         21   -1    0    0  501  502  0.00000000000E+00  0.00000000000E+00  0.17384896963E+03  0.17384896963E+03  0.00000000000E+00 0. -1.
          4   -1    0    0  502    0 -0.00000000000E+00 -0.00000000000E+00 -0.27709883060E+03  0.27709883060E+03  0.00000000000E+00 0.  1.
        -13    1    1    2    0    0 -0.69445273582E+02 -0.15500965036E+03 -0.18328449879E+03  0.24988768755E+03  0.10566000000E+00 0.  1.
         13    1    1    2    0    0  0.22722932523E+02  0.12665414675E+03  0.45874989075E+02  0.13660940795E+03  0.10566000000E+00 0. -1.
          4    1    1    2  501    0  0.46722341059E+02  0.28355503603E+02  0.34159648742E+02  0.64450704734E+02  0.00000000000E+00 0.  1.
</event>
<event>
 5    1  0.8445827E-005  0.6261796E+03  0.7818608E-02  0.9237549E-01
         21   -1    0    0  501  502  0.00000000000E+00  0.00000000000E+00  0.25119233044E+03  0.25119233044E+03  0.00000000000E+00 0.  1.
         -4   -1    0    0    0  501 -0.00000000000E+00 -0.00000000000E+00 -0.24885508543E+04  0.24885508543E+04  0.00000000000E+00 0. -1.
        -13    1    1    2    0    0  0.62213891108E+03 -0.15134636347E+03 -0.10704263253E+04  0.12473071296E+04  0.10566000000E+00 0.  1.
         13    1    1    2    0    0 -0.53166642099E+03  0.33653846293E+03 -0.11143444475E+04  0.12797229697E+04  0.10566000000E+00 0. -1.
         -4    1    1    2    0  502 -0.90472490091E+02 -0.18519209946E+03 -0.52587750997E+02  0.21271308545E+03  0.00000000000E+00 0. -1.
</event>
<event>
 5    1  0.8445827E-005  0.4895476E+03  0.7818608E-02  0.9547060E-01
         -4   -1    0    0    0  501 -0.00000000000E+00  0.00000000000E+00  0.16630616251E+04  0.16630616251E+04  0.00000000000E+00 0. -1.
         21   -1    0    0  501  502  0.00000000000E+00 -0.00000000000E+00 -0.33565949032E+03  0.33565949032E+03  0.00000000000E+00 0. -1.
        -13    1    1    2    0    0 -0.37399014386E+03  0.17925734835E+03  0.45336962778E+03  0.61444760168E+03  0.10566000000E+00 0.  1.
         13    1    1    2    0    0  0.24535830860E+03 -0.59154092566E+03  0.49037309840E+03  0.80658982955E+03  0.10566000000E+00 0. -1.
         -4    1    1    2    0  502  0.12863183526E+03  0.41228357731E+03  0.38365940855E+03  0.57768368415E+03  0.00000000000E+00 0. -1.
</event>
<event>
 5    1  0.8445827E-005  0.3601316E+02  0.7818608E-02  0.1362248E+00
          4   -1    0    0  502    0 -0.00000000000E+00  0.00000000000E+00  0.50397271838E+02  0.50397271838E+02  0.00000000000E+00 0.  1.
         21   -1    0    0  501  502  0.00000000000E+00 -0.00000000000E+00 -0.64685388492E+02  0.64685388492E+02  0.00000000000E+00 0.  1.
        -13    1    1    2    0    0 -0.40652374574E+02 -0.36088555399E+02 -0.12070076689E+02  0.55683905256E+02  0.10566000000E+00 0.  1.
         13    1    1    2    0    0  0.24984606918E+02  0.16967095771E+02  0.10012792057E+02  0.31817920903E+02  0.10566000000E+00 0. -1.
          4    1    1    2  501    0  0.15667767655E+02  0.19121459628E+02 -0.12230832022E+02  0.27580834171E+02  0.00000000000E+00 0.  1.
</event>
<event>
 5    1  0.8445827E-005  0.5002497E+03  0.7818608E-02  0.9646210E-01
          4   -1    0    0  502    0 -0.00000000000E+00  0.00000000000E+00  0.19551382737E+04  0.19551382737E+04  0.00000000000E+00 0.  1.
         21   -1    0    0  501  502  0.00000000000E+00 -0.00000000000E+00 -0.22259843586E+03  0.22259843586E+03  0.00000000000E+00 0.  1.
        -13    1    1    2    0    0 -0.22479194118E+03  0.37329733516E+03  0.70605670035E+03  0.82969777180E+03  0.10566000000E+00 0.  1.
         13    1    1    2    0    0  0.17757855101E+03  0.20746589781E+03  0.46257722153E+03  0.53717216754E+03  0.10566000000E+00 0. -1.
          4    1    1    2  501    0  0.47213390173E+02 -0.58076323297E+03  0.56390591595E+03  0.81086677021E+03  0.00000000000E+00 0.  1.
</event>
<event>
 5    1  0.8445827E-005  0.1411911E+03  0.7818608E-02  0.1110140E+00
         21   -1    0    0  501  502  0.00000000000E+00  0.00000000000E+00  0.22326503642E+03  0.22326503642E+03  0.00000000000E+00 0.  1.
          4   -1    0    0  502    0 -0.00000000000E+00 -0.00000000000E+00 -0.19707446842E+03  0.19707446842E+03  0.00000000000E+00 0.  1.
        -13    1    1    2    0    0  0.10780779222E+03 -0.87754827276E+02 -0.83847720815E+02  0.16233878533E+03  0.10566000000E+00 0.  1.
         13    1    1    2    0    0 -0.10366546922E+03  0.10227582397E+03 -0.13114688269E+01  0.14563174376E+03  0.10566000000E+00 0. -1.
          4    1    1    2  501    0 -0.41423229975E+01 -0.14520996692E+02  0.11134975764E+03  0.11236897575E+03  0.00000000000E+00 0.  1.
</event>
<event>
 5    1  0.8445827E-005  0.4823732E+03  0.7818608E-02  0.9541182E-01
         21   -1    0    0  501  502  0.00000000000E+00  0.00000000000E+00  0.25902400020E+03  0.25902400020E+03  0.00000000000E+00 0.  1.
         -4   -1    0    0    0  501 -0.00000000000E+00 -0.00000000000E+00 -0.26238632766E+04  0.26238632766E+04  0.00000000000E+00 0. -1.
        -13    1    1    2    0    0  0.45055260920E+02 -0.50145673381E+03 -0.11873962934E+04  0.12897281888E+04  0.10566000000E+00 0.  1.
         13    1    1    2    0    0 -0.11284509103E+03 -0.25695200305E+03 -0.50294214669E+03  0.57594197670E+03  0.10566000000E+00 0. -1.
         -4    1    1    2    0  502  0.67789830107E+02  0.75840873686E+03 -0.67450083633E+03  0.10172171112E+04  0.00000000000E+00 0. -1.
</event>
<event>
 5    1  0.8445827E-005  0.1517004E+03  0.7818608E-02  0.1099447E+00
         21   -1    0    0  501  502  0.00000000000E+00  0.00000000000E+00  0.39544267655E+03  0.39544267655E+03  0.00000000000E+00 0.  1.
         -4   -1    0    0    0  501 -0.00000000000E+00 -0.00000000000E+00 -0.10139161131E+03  0.10139161131E+03  0.00000000000E+00 0. -1.
        -13    1    1    2    0    0 -0.14193178628E+03 -0.30024869089E+02  0.13074997831E+03  0.19529898288E+03  0.10566000000E+00 0.  1.
         13    1    1    2    0    0  0.15322443778E+03  0.25376518249E+02  0.18715844103E+02  0.15643525816E+03  0.10566000000E+00 0. -1.
         -4    1    1    2    0  502 -0.11292651495E+02  0.46483508404E+01  0.14458524283E+03  0.14510004682E+03  0.00000000000E+00 0. -1.
</event>
<event>
 5    1  0.8445827E-005  0.1922676E+03  0.7818608E-02  0.1065570E+00
         -4   -1    0    0    0  501 -0.00000000000E+00  0.00000000000E+00  0.44923060577E+03  0.44923060577E+03  0.00000000000E+00 0. -1.
         21   -1    0    0  501  502  0.00000000000E+00 -0.00000000000E+00 -0.21118867755E+03  0.21118867755E+03  0.00000000000E+00 0.  1.
        -13    1    1    2    0    0 -0.15128263669E+03 -0.19358887514E+03  0.25055026574E+02  0.24696326501E+03  0.10566000000E+00 0.  1.
         13    1    1    2    0    0  0.33016507250E+02  0.17974728118E+03  0.22935543840E+03  0.29326285672E+03  0.10566000000E+00 0. -1.
         -4    1    1    2    0  502  0.11826612944E+03  0.13841593968E+02 -0.16368536761E+02  0.12019316159E+03  0.00000000000E+00 0. -1.
</event>
<event>
 5    1  0.8445827E-005  0.4980293E+03  0.7818608E-02  0.9706149E-01
         -4   -1    0    0    0  501 -0.00000000000E+00  0.00000000000E+00  0.14891482368E+04  0.14891482368E+04  0.00000000000E+00 0. -1.
         21   -1    0    0  501  502  0.00000000000E+00 -0.00000000000E+00 -0.37127978032E+03  0.37127978032E+03  0.00000000000E+00 0. -1.
        -13    1    1    2    0    0 -0.22333010083E+03 -0.21690989877E+02  0.73387906942E+03  0.76741470710E+03  0.10566000000E+00 0.  1.
         13    1    1    2    0    0  0.58899094682E+03  0.12311746445E+03  0.80440853882E+02  0.60707412037E+03  0.10566000000E+00 0. -1.
         -4    1    1    2    0  502 -0.36566084599E+03 -0.10142647457E+03  0.30354853315E+03  0.48593918963E+03  0.00000000000E+00 0. -1.
</event>
<event>
 5    1  0.8445827E-005  0.1162441E+03  0.7818608E-02  0.1140166E+00
         21   -1    0    0  501  502  0.00000000000E+00  0.00000000000E+00  0.56497069592E+03  0.56497069592E+03  0.00000000000E+00 0.  1.
         -4   -1    0    0    0  501 -0.00000000000E+00 -0.00000000000E+00 -0.65674490972E+02  0.65674490972E+02  0.00000000000E+00 0. -1.
        -13    1    1    2    0    0 -0.55782548935E+02  0.96829070618E+02  0.17055319256E+03  0.20390184977E+03  0.10566000000E+00 0.  1.
         13    1    1    2    0    0  0.49742034765E+02 -0.10708816602E+03  0.22416942636E+02  0.12018600503E+03  0.10566000000E+00 0. -1.
         -4    1    1    2    0  502  0.60405141704E+01  0.10259095402E+02  0.30632606975E+03  0.30655733209E+03  0.00000000000E+00 0. -1.
</event>
<event>
 5    1  0.8445827E-005  0.1498321E+03  0.7818608E-02  0.1152726E+00
          4   -1    0    0  502    0 -0.00000000000E+00  0.00000000000E+00  0.32225294850E+03  0.32225294850E+03  0.00000000000E+00 0.  1.
         21   -1    0    0  501  502  0.00000000000E+00 -0.00000000000E+00 -0.10618526213E+04  0.10618526213E+04  0.00000000000E+00 0.  1.
        -13    1    1    2    0    0  0.95638445204E+02  0.71612352763E+02  0.22122305019E+03  0.25142531768E+03  0.10566000000E+00 0.  1.
         13    1    1    2    0    0  0.39376639578E+02 -0.49473705943E+01  0.75596135594E+02  0.85380226640E+02  0.10566000000E+00 0. -1.
          4    1    1    2  501    0 -0.13501508478E+03 -0.66664982168E+02 -0.10364188586E+04  0.10473000255E+04  0.00000000000E+00 0.  1.
</event>
<event>
 5    1  0.8445827E-005  0.4122364E+03  0.7818608E-02  0.9751107E-01
         21   -1    0    0  501  502  0.00000000000E+00  0.00000000000E+00  0.37463804653E+03  0.37463804653E+03  0.00000000000E+00 0. -1.
         -4   -1    0    0    0  501 -0.00000000000E+00 -0.00000000000E+00 -0.13501001796E+04  0.13501001796E+04  0.00000000000E+00 0. -1.
        -13    1    1    2    0    0 -0.11233237708E+03  0.31943238706E+03 -0.54744089684E+03  0.64369803444E+03  0.10566000000E+00 0.  1.
         13    1    1    2    0    0  0.36376643508E+03  0.66827768403E+02 -0.49223671816E+03  0.61570201218E+03  0.10566000000E+00 0. -1.
         -4    1    1    2    0  502 -0.25143405800E+03 -0.38626015547E+03  0.64215481896E+02  0.46533817954E+03  0.00000000000E+00 0. -1.
</event>
<event>
 5    1  0.8445827E-005  0.4888209E+03  0.7818608E-02  0.9752489E-01
         21   -1    0    0  501  502  0.00000000000E+00  0.00000000000E+00  0.12057012749E+04  0.12057012749E+04  0.00000000000E+00 0.  1.
         -4   -1    0    0    0  501 -0.00000000000E+00 -0.00000000000E+00 -0.32406514498E+03  0.32406514498E+03  0.00000000000E+00 0. -1.
        -13    1    1    2    0    0 -0.57029844625E+02 -0.19391172251E+03  0.29201001925E+03  0.35513943995E+03  0.10566000000E+00 0.  1.
         13    1    1    2    0    0 -0.21342489338E+03  0.50639426461E+03  0.51801715479E+03  0.75520005307E+03  0.10566000000E+00 0. -1.
         -4    1    1    2    0  502  0.27045473801E+03 -0.31248254210E+03  0.71608955911E+02  0.41942692688E+03  0.00000000000E+00 0. -1.
</event>
<event>
 5    1  0.8445827E-005  0.1031985E+03  0.7818608E-02  0.1159369E+00
         21   -1    0    0  501  502  0.00000000000E+00  0.00000000000E+00  0.29827303125E+03  0.29827303125E+03  0.00000000000E+00 0.  1.
          4   -1    0    0  502    0 -0.00000000000E+00 -0.00000000000E+00 -0.25860725576E+03  0.25860725576E+03  0.00000000000E+00 0.  1.
        -13    1    1    2    0    0 -0.66499874768E+02  0.79572342181E+02 -0.23040164360E+03  0.25266364899E+03  0.10566000000E+00 0.  1.
         13    1    1    2    0    0  0.39172943941E+02 -0.91810625605E+02  0.14789295718E+03  0.17842659123E+03  0.10566000000E+00 0. -1.
          4    1    1    2  501    0  0.27326930828E+02  0.12238283424E+02  0.12217446191E+03  0.12579004679E+03  0.00000000000E+00 0.  1.
</event>
<event>
 5    1  0.8445827E-005  0.4796149E+03  0.7818608E-02  0.9547105E-01
          4   -1    0    0  502    0 -0.00000000000E+00  0.00000000000E+00  0.38043182771E+03  0.38043182771E+03  0.00000000000E+00 0.  1.
         21   -1    0    0  501  502  0.00000000000E+00 -0.00000000000E+00 -0.22051188856E+04  0.22051188856E+04  0.00000000000E+00 0.  1.
        -13    1    1    2    0    0 -0.21370692471E+03  0.24391195752E+03 -0.45794700151E+03  0.56114094490E+03  0.10566000000E+00 0.  1.
         13    1    1    2    0    0  0.66608893385E+01  0.50014838032E+03 -0.56356105210E+02  0.50335751862E+03  0.10566000000E+00 0. -1.
          4    1    1    2  501    0  0.20704603537E+03 -0.74406033784E+03 -0.13103839511E+04  0.15210522498E+04  0.00000000000E+00 0.  1.
</event>
<event>
 5    1  0.8445827E-005  0.4542797E+03  0.7818608E-02  0.9730870E-01
          4   -1    0    0  502    0 -0.00000000000E+00  0.00000000000E+00  0.67717286539E+03  0.67717286539E+03  0.00000000000E+00 0.  1.
         21   -1    0    0  501  502  0.00000000000E+00 -0.00000000000E+00 -0.62521238702E+03  0.62521238702E+03  0.00000000000E+00 0.  1.
        -13    1    1    2    0    0  0.52806933201E+03 -0.60519157574E+02 -0.27105365483E+03  0.59664887732E+03  0.10566000000E+00 0.  1.
         13    1    1    2    0    0 -0.26755476369E+03 -0.45215099187E+02 -0.79600636526E+01  0.27146515530E+03  0.10566000000E+00 0. -1.
          4    1    1    2  501    0 -0.26051456832E+03  0.10573425676E+03  0.33097419685E+03  0.43427121979E+03  0.00000000000E+00 0.  1.
</event>
<event>
 5    1  0.8445827E-005  0.1063343E+03  0.7818608E-02  0.1154480E+00
         21   -1    0    0  501  502  0.00000000000E+00  0.00000000000E+00  0.10145286975E+03  0.10145286975E+03  0.00000000000E+00 0.  1.
         -4   -1    0    0    0  501 -0.00000000000E+00 -0.00000000000E+00 -0.16669481664E+03  0.16669481664E+03  0.00000000000E+00 0. -1.
        -13    1    1    2    0    0 -0.11128944492E+03 -0.41079906113E+02 -0.59527771331E+00  0.11863079177E+03  0.10566000000E+00 0.  1.
         13    1    1    2    0    0  0.97115851600E+02  0.28388783729E+02 -0.76725578562E+02  0.12698124760E+03  0.10566000000E+00 0. -1.
         -4    1    1    2    0  502  0.14173593317E+02  0.12691122385E+02  0.12078909385E+02  0.22535647025E+02  0.00000000000E+00 0. -1.
</event>
<event>
 5    1  0.8445827E-005  0.1263023E+03  0.7818608E-02  0.1127155E+00
          4   -1    0    0  502    0 -0.00000000000E+00  0.00000000000E+00  0.69682172424E+02  0.69682172424E+02  0.00000000000E+00 0.  1.
         21   -1    0    0  501  502  0.00000000000E+00 -0.00000000000E+00 -0.80187481231E+03  0.80187481231E+03  0.00000000000E+00 0.  1.
        -13    1    1    2    0    0  0.73698497586E+02 -0.10337568452E+03 -0.36505360864E+02  0.13210092063E+03  0.10566000000E+00 0.  1.
         13    1    1    2    0    0 -0.81620391598E+02  0.95012107193E+02 -0.15791209344E+03  0.20155750856E+03  0.10566000000E+00 0. -1.
          4    1    1    2  501    0  0.79218940115E+01  0.83635773231E+01 -0.53777518558E+03  0.53789855555E+03  0.00000000000E+00 0.  1.
</event>
<event>
 5    1  0.8445827E-005  0.3995654E+03  0.7818608E-02  0.9730302E-01
         -4   -1    0    0    0  501 -0.00000000000E+00  0.00000000000E+00  0.13935116173E+04  0.13935116173E+04  0.00000000000E+00 0. -1.
         21   -1    0    0  501  502  0.00000000000E+00 -0.00000000000E+00 -0.39793897444E+03  0.39793897444E+03  0.00000000000E+00 0. -1.
        -13    1    1    2    0    0  0.22589482478E+02 -0.36833891637E+03  0.47489744788E+03  0.60142450831E+03  0.10566000000E+00 0.  1.
         13    1    1    2    0    0 -0.38871630937E+03  0.35455506367E+03  0.61732133809E+03  0.81110745772E+03  0.10566000000E+00 0. -1.
         -4    1    1    2    0  502  0.36612682689E+03  0.13783852704E+02 -0.96646143072E+02  0.37891862574E+03  0.00000000000E+00 0. -1.
</event>
<event>
 5    1  0.8445827E-005  0.2035980E+03  0.7818608E-02  0.1057697E+00
         -4   -1    0    0    0  501 -0.00000000000E+00  0.00000000000E+00  0.73008571987E+03  0.73008571987E+03  0.00000000000E+00 0. -1.
         21   -1    0    0  501  502  0.00000000000E+00 -0.00000000000E+00 -0.14779242977E+03  0.14779242977E+03  0.00000000000E+00 0.  1.
        -13    1    1    2    0    0  0.10610605267E+03  0.17735879482E+03 -0.15132268063E+02  0.20722845658E+03  0.10566000000E+00 0.  1.
         13    1    1    2    0    0 -0.90504275898E+02 -0.18195920486E+03  0.61440115036E+03  0.64713905841E+03  0.10566000000E+00 0. -1.
         -4    1    1    2    0  502 -0.15601776774E+02  0.46004100405E+01 -0.16975592197E+02  0.23510634647E+02  0.00000000000E+00 0. -1.
</event>
<event>
 5    1  0.8445827E-005  0.4530684E+03  0.7818608E-02  0.9656694E-01
         21   -1    0    0  501  502  0.00000000000E+00  0.00000000000E+00  0.22927745010E+03  0.22927745010E+03  0.00000000000E+00 0.  1.
         -4   -1    0    0    0  501 -0.00000000000E+00 -0.00000000000E+00 -0.25001829134E+04  0.25001829134E+04  0.00000000000E+00 0. -1.
        -13    1    1    2    0    0 -0.35427466071E+03  0.21782565778E+01 -0.10412256786E+04  0.10998482646E+04  0.10566000000E+00 0.  1.
         13    1    1    2    0    0  0.23719784215E+03  0.45114856691E+03 -0.96610976907E+03  0.10923213551E+04  0.10566000000E+00 0. -1.
         -4    1    1    2    0  502  0.11707681855E+03 -0.45332682348E+03 -0.26357001564E+03  0.53729074390E+03  0.00000000000E+00 0. -1.
</event>
<event>
 5    1  0.8445827E-005  0.4616474E+03  0.7818608E-02  0.9826891E-01
          4   -1    0    0  502    0 -0.00000000000E+00  0.00000000000E+00  0.15545232071E+04  0.15545232071E+04  0.00000000000E+00 0.  1.
         21   -1    0    0  501  502  0.00000000000E+00 -0.00000000000E+00 -0.24363582037E+03  0.24363582037E+03  0.00000000000E+00 0.  1.
        -13    1    1    2    0    0  0.17554909837E+03 -0.35786365968E+03  0.77885502166E+03  0.87492802034E+03  0.10566000000E+00 0.  1.
         13    1    1    2    0    0  0.18534820429E+03  0.15973388506E+02  0.34523153200E+03  0.39216568925E+03  0.10566000000E+00 0. -1.
          4    1    1    2  501    0 -0.36089730266E+03  0.34189027117E+03  0.18680083304E+03  0.53106531784E+03  0.00000000000E+00 0.  1.
</event>
<event>
 5    1  0.8445827E-005  0.3625972E+03  0.7818608E-02  0.9845965E-01
         -4   -1    0    0    0  501 -0.00000000000E+00  0.00000000000E+00  0.18874677273E+04  0.18874677273E+04  0.00000000000E+00 0. -1.
         21   -1    0    0  501  502  0.00000000000E+00 -0.00000000000E+00 -0.32894498586E+03  0.32894498586E+03  0.00000000000E+00 0. -1.
        -13    1    1    2    0    0  0.24086020820E+03  0.27285304693E+03  0.84789222227E+03  0.92270453389E+03  0.10566000000E+00 0.  1.
         13    1    1    2    0    0 -0.42869292362E+03  0.51332627818E+02  0.79950941645E+03  0.90864073187E+03  0.10566000000E+00 0. -1.
         -4    1    1    2    0  502  0.18783271542E+03 -0.32418567475E+03 -0.88878897248E+02  0.38506744743E+03  0.00000000000E+00 0. -1.
</event>
<event>
 5    1  0.9017575E-005  0.4967641E+03  0.7818608E-02  0.9633676E-01
          4   -1    0    0  502    0 -0.00000000000E+00  0.00000000000E+00  0.40126290232E+03  0.40126290232E+03  0.00000000000E+00 0.  1.
         21   -1    0    0  501  502  0.00000000000E+00 -0.00000000000E+00 -0.13638511021E+04  0.13638511021E+04  0.00000000000E+00 0.  1.
        -13    1    1    2    0    0  0.12116804385E+03 -0.31149340433E+03 -0.10771946023E+03  0.35115997645E+03  0.10566000000E+00 0.  1.
         13    1    1    2    0    0  0.78028600590E+02 -0.28084292901E+03  0.68088253107E+02  0.29932797173E+03  0.10566000000E+00 0. -1.
          4    1    1    2  501    0 -0.19919664444E+03  0.59233633333E+03 -0.92295699266E+03  0.11146260562E+04  0.00000000000E+00 0.  1.
</event>
<event>
 5    1  0.8445827E-005  0.4890804E+03  0.7818608E-02  0.9936782E-01
         21   -1    0    0  501  502  0.00000000000E+00  0.00000000000E+00  0.39359107985E+04  0.39359107985E+04  0.00000000000E+00 0.  1.
          4   -1    0    0  502    0 -0.00000000000E+00 -0.00000000000E+00 -0.10775462493E+03  0.10775462493E+03  0.00000000000E+00 0.  1.
        -13    1    1    2    0    0 -0.42016407327E+03 -0.23637065909E+03  0.22208409975E+04  0.22725632410E+04  0.10566000000E+00 0.  1.
         13    1    1    2    0    0 -0.64014330678E+02  0.87202448666E+02  0.26906542836E+02  0.11147230507E+03  0.10566000000E+00 0. -1.
          4    1    1    2  501    0  0.48417840395E+03  0.14916821042E+03  0.15804086333E+04  0.16596298774E+04  0.00000000000E+00 0.  1.
</event>
<event>
 5    1  0.1068586E-004  0.1220063E+04  0.7818608E-02  0.8591605E-01
         -4   -1    0    0    0  501 -0.00000000000E+00  0.00000000000E+00  0.24788567914E+04  0.24788567914E+04  0.00000000000E+00 0. -1.
         21   -1    0    0  501  502  0.00000000000E+00 -0.00000000000E+00 -0.96268746306E+03  0.96268746306E+03  0.00000000000E+00 0. -1.
        -13    1    1    2    0    0  0.40089745741E+03 -0.11654297426E+04  0.13903115889E+04  0.18579320713E+04  0.10566000000E+00 0.  1.
         13    1    1    2    0    0 -0.66553042770E+03  0.10215054660E+04  0.27144943025E+03  0.12490352163E+04  0.10566000000E+00 0. -1.
         -4    1    1    2    0  502  0.26463297029E+03  0.14392427660E+03 -0.14559169077E+03  0.33457696690E+03  0.00000000000E+00 0. -1.
</event>
<event>
 5    1  0.8445827E-005  0.4446492E+03  0.7818608E-02  0.9608313E-01
         -4   -1    0    0    0  501 -0.00000000000E+00  0.00000000000E+00  0.14721296495E+04  0.14721296495E+04  0.00000000000E+00 0. -1.
         21   -1    0    0  501  502  0.00000000000E+00 -0.00000000000E+00 -0.34757572666E+03  0.34757572666E+03  0.00000000000E+00 0. -1.
        -13    1    1    2    0    0 -0.11267568804E+03 -0.34629609263E+03  0.29167724199E+03  0.46657520198E+03  0.10566000000E+00 0.  1.
         13    1    1    2    0    0 -0.47961420503E+02  0.65927089889E+03  0.32837097208E+03  0.73808259866E+03  0.10566000000E+00 0. -1.
         -4    1    1    2    0  502  0.16063710854E+03 -0.31297480626E+03  0.50450570880E+03  0.61504757556E+03  0.00000000000E+00 0. -1.
</event>
<event>
 5    1  0.8445827E-005  0.3135045E+02  0.7818608E-02  0.1394382E+00
          4   -1    0    0  502    0 -0.00000000000E+00  0.00000000000E+00  0.75025733086E+02  0.75025733086E+02  0.00000000000E+00 0.  1.
         21   -1    0    0  501  502  0.00000000000E+00 -0.00000000000E+00 -0.10422359952E+03  0.10422359952E+03  0.00000000000E+00 0.  1.
        -13    1    1    2    0    0  0.27877774473E+02  0.13042704526E+02  0.48475786722E+02  0.57421211353E+02  0.10566000000E+00 0.  1.
         13    1    1    2    0    0 -0.37265964074E+02  0.35081628716E+01  0.42981047058E+01  0.37676838419E+02  0.10566000000E+00 0. -1.
          4    1    1    2  501    0  0.93881896014E+01 -0.16550867397E+02 -0.81971757858E+02  0.84151282829E+02  0.00000000000E+00 0.  1.
</event>
<event>
 5    1  0.8445827E-005  0.3610937E+03  0.7818608E-02  0.1012900E+00
         21   -1    0    0  501  502  0.00000000000E+00  0.00000000000E+00  0.11962301487E+03  0.11962301487E+03  0.00000000000E+00 0. -1.
         -4   -1    0    0    0  501 -0.00000000000E+00 -0.00000000000E+00 -0.30447277838E+04  0.30447277838E+04  0.00000000000E+00 0. -1.
        -13    1    1    2    0    0 -0.12425913803E+03 -0.72243348817E+02 -0.24843916382E+03  0.28702171366E+03  0.10566000000E+00 0.  1.
         13    1    1    2    0    0 -0.30117262929E+03  0.18038666006E+03 -0.30397846746E+03  0.46437831517E+03  0.10566000000E+00 0. -1.
         -4    1    1    2    0  502  0.42543176732E+03 -0.10814331125E+03 -0.23726871376E+04  0.24129507698E+04  0.00000000000E+00 0. -1.
</event>
<event>
 5    1  0.8445827E-005  0.1625911E+03  0.7818608E-02  0.1106951E+00
          4   -1    0    0  502    0 -0.00000000000E+00  0.00000000000E+00  0.68056623825E+03  0.68056623825E+03  0.00000000000E+00 0.  1.
         21   -1    0    0  501  502  0.00000000000E+00 -0.00000000000E+00 -0.10890877497E+03  0.10890877497E+03  0.00000000000E+00 0.  1.
        -13    1    1    2    0    0  0.13048745305E+03 -0.59033461317E+02  0.47370770967E+02  0.15085067472E+03  0.10566000000E+00 0.  1.
         13    1    1    2    0    0  0.88489469353E+02  0.47987001262E+02  0.33223740461E+03  0.34715247754E+03  0.10566000000E+00 0. -1.
          4    1    1    2  501    0 -0.21897692240E+03  0.11046460055E+02  0.19204928770E+03  0.29147186096E+03  0.00000000000E+00 0.  1.
</event>
<event>
 5    1  0.8445827E-005  0.1125873E+03  0.7818608E-02  0.1145259E+00
          4   -1    0    0  502    0 -0.00000000000E+00  0.00000000000E+00  0.10024584806E+03  0.10024584806E+03  0.00000000000E+00 0.  1.
         21   -1    0    0  501  502  0.00000000000E+00 -0.00000000000E+00 -0.18804420040E+03  0.18804420040E+03  0.00000000000E+00 0. -1.
        -13    1    1    2    0    0 -0.11237903399E+03 -0.39787274597E+01 -0.52782202184E+01  0.11257330201E+03  0.10566000000E+00 0.  1.
         13    1    1    2    0    0  0.11282547191E+03 -0.64154619398E+01 -0.23038670429E+02  0.11533228846E+03  0.10566000000E+00 0. -1.
          4    1    1    2  501    0 -0.44643791937E+00  0.10394189399E+02 -0.59481461701E+02  0.60384457985E+02  0.00000000000E+00 0.  1.
</event>
<event>
 5    1  0.8445827E-005  0.5370333E+03  0.7818608E-02  0.9400298E-01
         21   -1    0    0  501  502  0.00000000000E+00  0.00000000000E+00  0.24050505563E+03  0.24050505563E+03  0.00000000000E+00 0. -1.
         -4   -1    0    0    0  501 -0.00000000000E+00 -0.00000000000E+00 -0.29787618053E+04  0.29787618053E+04  0.00000000000E+00 0. -1.
        -13    1    1    2    0    0 -0.47785475616E+03 -0.15028805737E+03 -0.12451657274E+04  0.13421510228E+04  0.10566000000E+00 0.  1.
         13    1    1    2    0    0  0.65477530223E+03 -0.22640404315E+03 -0.11265850892E+04  0.13225669970E+04  0.10566000000E+00 0. -1.
         -4    1    1    2    0  502 -0.17692054607E+03  0.37669210051E+03 -0.36650593305E+03  0.55454884111E+03  0.00000000000E+00 0. -1.
</event>
<event>
 5    1  0.8445827E-005  0.3795303E+03  0.7818608E-02  0.9832098E-01
         -4   -1    0    0    0  501 -0.00000000000E+00  0.00000000000E+00  0.21029018530E+04  0.21029018530E+04  0.00000000000E+00 0. -1.
         21   -1    0    0  501  502  0.00000000000E+00 -0.00000000000E+00 -0.23478286561E+03  0.23478286561E+03  0.00000000000E+00 0. -1.
        -13    1    1    2    0    0  0.14507541865E+03  0.29521648172E+03  0.76451295958E+03  0.83227382796E+03  0.10566000000E+00 0.  1.
         13    1    1    2    0    0 -0.43146048107E+03 -0.25956975808E+02  0.10139390712E+04  0.11022270013E+04  0.10566000000E+00 0. -1.
         -4    1    1    2    0  502  0.28638506242E+03 -0.26925950591E+03  0.89666956692E+02  0.40318388934E+03  0.00000000000E+00 0. -1.
</event>
<event>
 5    1  0.8445827E-005  0.1243843E+03  0.7818608E-02  0.1129532E+00
          4   -1    0    0  502    0 -0.00000000000E+00  0.00000000000E+00  0.85615250742E+03  0.85615250742E+03  0.00000000000E+00 0.  1.
         21   -1    0    0  501  502  0.00000000000E+00 -0.00000000000E+00 -0.52206912704E+02  0.52206912704E+02  0.00000000000E+00 0. -1.
        -13    1    1    2    0    0 -0.10762426135E+03 -0.61977241834E+02  0.69799632194E+03  0.70895912206E+03  0.10566000000E+00 0.  1.
         13    1    1    2    0    0  0.95327713003E+02  0.84805864152E+02  0.11516753621E+03  0.17188071451E+03  0.10566000000E+00 0. -1.
          4    1    1    2  501    0  0.12296548347E+02 -0.22828622318E+02 -0.92182634356E+01  0.27519583554E+02  0.00000000000E+00 0.  1.
</event>
<event>
 5    1  0.8445827E-005  0.3917850E+02  0.7818608E-02  0.1343433E+00
         -4   -1    0    0    0  501 -0.00000000000E+00  0.00000000000E+00  0.36285673257E+02  0.36285673257E+02  0.00000000000E+00 0. -1.
         21   -1    0    0  501  502  0.00000000000E+00 -0.00000000000E+00 -0.61759599067E+03  0.61759599067E+03  0.00000000000E+00 0. -1.
        -13    1    1    2    0    0 -0.39412032977E+02 -0.53502854288E+00 -0.60339244613E+02  0.72072395572E+02  0.10566000000E+00 0.  1.
         13    1    1    2    0    0  0.37042025784E+02  0.13726929990E+02  0.17475019285E+02  0.43196385777E+02  0.10566000000E+00 0. -1.
         -4    1    1    2    0  502  0.23700071922E+01 -0.13191901447E+02 -0.53844609209E+03  0.53861288258E+03  0.00000000000E+00 0. -1.
</event>
<event>
 5    1  0.8445827E-005  0.7938456E+02  0.7818608E-02  0.1210504E+00
         21   -1    0    0  501  502  0.00000000000E+00  0.00000000000E+00  0.11851615103E+03  0.11851615103E+03  0.00000000000E+00 0.  1.
          4   -1    0    0  502    0 -0.00000000000E+00 -0.00000000000E+00 -0.16479937875E+03  0.16479937875E+03  0.00000000000E+00 0.  1.
        -13    1    1    2    0    0 -0.78091913560E+02  0.61510780708E+02 -0.83912408599E+02  0.13008930236E+03  0.10566000000E+00 0.  1.
         13    1    1    2    0    0  0.66510885085E+02  0.17058850437E+02  0.23410327031E+02  0.72544860526E+02  0.10566000000E+00 0. -1.
          4    1    1    2  501    0  0.11581028475E+02 -0.78569631146E+02  0.14218853852E+02  0.80681366894E+02  0.00000000000E+00 0.  1.
</event>
<event>
 5    1  0.8445827E-005  0.4314948E+03  0.7818608E-02  0.1025685E+00
         -4   -1    0    0    0  501 -0.00000000000E+00  0.00000000000E+00  0.26126614786E+04  0.26126614786E+04  0.00000000000E+00 0. -1.
         21   -1    0    0  501  502  0.00000000000E+00 -0.00000000000E+00 -0.10572417659E+03  0.10572417659E+03  0.00000000000E+00 0. -1.
        -13    1    1    2    0    0 -0.55559529282E+02 -0.88949600678E+01  0.11760774867E+03  0.13037474955E+03  0.10566000000E+00 0.  1.
         13    1    1    2    0    0  0.15692537749E+03 -0.40490335148E+03  0.55414161512E+03  0.70402076597E+03  0.10566000000E+00 0. -1.
         -4    1    1    2    0  502 -0.10136584821E+03  0.41379831155E+03  0.18351879383E+04  0.18839901397E+04  0.00000000000E+00 0. -1.
</event>
<event>
 5    1  0.8445827E-005  0.1752836E+03  0.7818608E-02  0.1078542E+00
         21   -1    0    0  501  502  0.00000000000E+00  0.00000000000E+00  0.10260574297E+04  0.10260574297E+04  0.00000000000E+00 0.  1.
          4   -1    0    0  502    0 -0.00000000000E+00 -0.00000000000E+00 -0.21687156953E+03  0.21687156953E+03  0.00000000000E+00 0.  1.
        -13    1    1    2    0    0  0.85990282487E+02 -0.15781227783E+03 -0.13327739513E+03  0.22374520986E+03  0.10566000000E+00 0.  1.
         13    1    1    2    0    0 -0.14793566512E+03  0.91108228084E+02  0.17591185882E+03  0.24724615968E+03  0.10566000000E+00 0. -1.
          4    1    1    2  501    0  0.61945382637E+02  0.66704049747E+02  0.76655139653E+03  0.77193762974E+03  0.00000000000E+00 0.  1.
</event>
<event>
 5    1  0.8445827E-005  0.4407356E+03  0.7818608E-02  0.9995685E-01
         21   -1    0    0  501  502  0.00000000000E+00  0.00000000000E+00  0.11207230233E+04  0.11207230233E+04  0.00000000000E+00 0.  1.
          4   -1    0    0  502    0 -0.00000000000E+00 -0.00000000000E+00 -0.29855824644E+03  0.29855824644E+03  0.00000000000E+00 0.  1.
        -13    1    1    2    0    0  0.43767479842E+03  0.53353390161E+02  0.20752667961E+03  0.48731216620E+03  0.10566000000E+00 0.  1.
         13    1    1    2    0    0  0.31721474690E+01 -0.12166477548E+03 -0.49933897661E+02  0.13155145537E+03  0.10566000000E+00 0. -1.
          4    1    1    2  501    0 -0.44084694589E+03  0.68311385314E+02  0.66457199495E+03  0.80041764819E+03  0.00000000000E+00 0.  1.
</event>
<event>
 5    1  0.8445827E-005  0.4467464E+03  0.7818608E-02  0.9670330E-01
         -4   -1    0    0    0  501 -0.00000000000E+00  0.00000000000E+00  0.30949104060E+04  0.30949104060E+04  0.00000000000E+00 0. -1.
         21   -1    0    0  501  502  0.00000000000E+00 -0.00000000000E+00 -0.22277675446E+03  0.22277675446E+03  0.00000000000E+00 0. -1.
        -13    1    1    2    0    0  0.40756546632E+01  0.35224439679E+03  0.17325425790E+04  0.17679922299E+04  0.10566000000E+00 0.  1.
         13    1    1    2    0    0  0.25402419453E+03  0.11371947869E+03  0.94085756787E+03  0.98115920493E+03  0.10566000000E+00 0. -1.
         -4    1    1    2    0  502 -0.25809984919E+03 -0.46596387548E+03  0.19873350473E+03  0.56853572562E+03  0.00000000000E+00 0. -1.
</event>
<event>
 5    1  0.8445827E-005  0.4953034E+03  0.7818608E-02  0.9522298E-01
         21   -1    0    0  501  502  0.00000000000E+00  0.00000000000E+00  0.30007999617E+03  0.30007999617E+03  0.00000000000E+00 0. -1.
          4   -1    0    0  502    0 -0.00000000000E+00 -0.00000000000E+00 -0.19959174666E+04  0.19959174666E+04  0.00000000000E+00 0.  1.
        -13    1    1    2    0    0  0.20662963153E+03  0.44180162828E+03 -0.66045116578E+03  0.82102389546E+03  0.10566000000E+00 0.  1.
         13    1    1    2    0    0  0.34378479684E+03 -0.27115662678E+03 -0.64255855363E+03  0.77755733473E+03  0.10566000000E+00 0. -1.
          4    1    1    2  501    0 -0.55041442838E+03 -0.17064500150E+03 -0.39282775105E+03  0.69741623260E+03  0.00000000000E+00 0.  1.
</event>
<event>
 5    1  0.8445827E-005  0.9968201E+01  0.7818608E-02  0.1735056E+00
         -4   -1    0    0    0  501 -0.00000000000E+00  0.00000000000E+00  0.28050566588E+02  0.28050566588E+02  0.00000000000E+00 0. -1.
         21   -1    0    0  501  502  0.00000000000E+00 -0.00000000000E+00 -0.40545767280E+02  0.40545767280E+02  0.00000000000E+00 0. -1.
        -13    1    1    2    0    0 -0.81889395969E+01 -0.80436090464E+01  0.16077833097E+02  0.19755157791E+02  0.10566000000E+00 0.  1.
         13    1    1    2    0    0 -0.17413059079E+01  0.10060497686E+02  0.66528957910E+01  0.12186793934E+02  0.10566000000E+00 0. -1.
         -4    1    1    2    0  502  0.99302455048E+01 -0.20168886392E+01 -0.35225929580E+02  0.36654382143E+02  0.00000000000E+00 0. -1.
</event>
<event>
 5    1  0.8445827E-005  0.5017796E+03  0.7818608E-02  0.9669867E-01
          4   -1    0    0  502    0 -0.00000000000E+00  0.00000000000E+00  0.13588066344E+04  0.13588066344E+04  0.00000000000E+00 0.  1.
         21   -1    0    0  501  502  0.00000000000E+00 -0.00000000000E+00 -0.49643567216E+03  0.49643567216E+03  0.00000000000E+00 0.  1.
        -13    1    1    2    0    0 -0.32244936949E+03 -0.37996261306E+03  0.76309191266E+01  0.49840086808E+03  0.10566000000E+00 0.  1.
         13    1    1    2    0    0  0.20222274482E+03 -0.14530561118E+03  0.77263395716E+03  0.81177028899E+03  0.10566000000E+00 0. -1.
          4    1    1    2  501    0  0.12022662467E+03  0.52526822424E+03  0.82106085977E+02  0.54507114951E+03  0.00000000000E+00 0.  1.
</event>
<event>
 5    1  0.8445827E-005  0.4919052E+03  0.7818608E-02  0.9554344E-01
         -4   -1    0    0    0  501 -0.00000000000E+00  0.00000000000E+00  0.12005758788E+04  0.12005758788E+04  0.00000000000E+00 0. -1.
         21   -1    0    0  501  502  0.00000000000E+00 -0.00000000000E+00 -0.69123706919E+03  0.69123706919E+03  0.00000000000E+00 0. -1.
        -13    1    1    2    0    0 -0.12754268922E+03  0.37725520883E+03  0.68668373723E+03  0.79380299590E+03  0.10566000000E+00 0.  1.
         13    1    1    2    0    0 -0.43188363734E+03 -0.24677483659E+03 -0.16282041876E+03  0.52338494066E+03  0.10566000000E+00 0. -1.
         -4    1    1    2    0  502  0.55942632656E+03 -0.13048037224E+03 -0.14524508876E+02  0.57462501141E+03  0.00000000000E+00 0. -1.
</event>
<event>
 5    1  0.8445827E-005  0.1477320E+03  0.7818608E-02  0.1103370E+00
         21   -1    0    0  501  502  0.00000000000E+00  0.00000000000E+00  0.33917038515E+02  0.33917038515E+02  0.00000000000E+00 0.  1.
         -4   -1    0    0    0  501 -0.00000000000E+00 -0.00000000000E+00 -0.88312695904E+03  0.88312695904E+03  0.00000000000E+00 0. -1.
        -13    1    1    2    0    0 -0.53125428000E+01  0.13951554839E+03 -0.46052641775E+03  0.48122489956E+03  0.10566000000E+00 0.  1.
         13    1    1    2    0    0 -0.10364096766E+02 -0.16115894227E+03 -0.36848799926E+03  0.40232205500E+03  0.10566000000E+00 0. -1.
         -4    1    1    2    0  502  0.15676639567E+02  0.21643393884E+02 -0.20195503520E+02  0.33497042994E+02  0.00000000000E+00 0. -1.
</event>
<event>
 5    1  0.8445827E-005  0.3751385E+03  0.7818608E-02  0.1003655E+00
         21   -1    0    0  501  502  0.00000000000E+00  0.00000000000E+00  0.15662017156E+03  0.15662017156E+03  0.00000000000E+00 0.  1.
          4   -1    0    0  502    0 -0.00000000000E+00 -0.00000000000E+00 -0.23791797945E+04  0.23791797945E+04  0.00000000000E+00 0.  1.
        -13    1    1    2    0    0  0.35853454136E+03 -0.24487707664E+03 -0.14090304195E+04  0.14744078588E+04  0.10566000000E+00 0.  1.
         13    1    1    2    0    0 -0.15977867166E+03 -0.65552468566E+02 -0.62292380250E+03  0.64642124419E+03  0.10566000000E+00 0. -1.
          4    1    1    2  501    0 -0.19875586970E+03  0.31042954521E+03 -0.19060540094E+03  0.41497086301E+03  0.00000000000E+00 0.  1.
</event>
<event>
 5    1  0.8445827E-005  0.5013057E+03  0.7818608E-02  0.9812643E-01
         21   -1    0    0  501  502  0.00000000000E+00  0.00000000000E+00  0.12077230897E+04  0.12077230897E+04  0.00000000000E+00 0. -1.
         -4   -1    0    0    0  501 -0.00000000000E+00 -0.00000000000E+00 -0.52885554461E+03  0.52885554461E+03  0.00000000000E+00 0. -1.
        -13    1    1    2    0    0 -0.47752124696E+01 -0.15242177855E+03 -0.29394379812E+03  0.33114674820E+03  0.10566000000E+00 0.  1.
         13    1    1    2    0    0  0.41214700692E+03  0.36658138026E+03  0.57935481590E+03  0.79993692097E+03  0.10566000000E+00 0. -1.
         -4    1    1    2    0  502 -0.40737179445E+03 -0.21415960171E+03  0.39345652728E+03  0.60549496511E+03  0.00000000000E+00 0. -1.
</event>
<event>
 5    1  0.8445827E-005  0.4081201E+03  0.7818608E-02  0.1072541E+00
         21   -1    0    0  501  502  0.00000000000E+00  0.00000000000E+00  0.11968661076E+04  0.11968661076E+04  0.00000000000E+00 0.  1.
          4   -1    0    0  502    0 -0.00000000000E+00 -0.00000000000E+00 -0.23286900990E+03  0.23286900990E+03  0.00000000000E+00 0.  1.
        -13    1    1    2    0    0 -0.20328362482E+03 -0.33911069652E+03  0.24371494060E+02  0.39612406832E+03  0.10566000000E+00 0.  1.
         13    1    1    2    0    0 -0.12258930753E+02 -0.10983629812E+02  0.17704455675E+02  0.24173961649E+02  0.10566000000E+00 0. -1.
          4    1    1    2  501    0  0.21554255557E+03  0.35009432634E+03  0.92192114794E+03  0.10094370875E+04  0.00000000000E+00 0.  1.
</event>
<event>
 5    1  0.8445827E-005  0.2024225E+03  0.7818608E-02  0.1058488E+00
         21   -1    0    0  501  502  0.00000000000E+00  0.00000000000E+00  0.79187796013E+02  0.79187796013E+02  0.00000000000E+00 0.  1.
          4   -1    0    0  502    0 -0.00000000000E+00 -0.00000000000E+00 -0.10204470217E+04  0.10204470217E+04  0.00000000000E+00 0.  1.
        -13    1    1    2    0    0 -0.13027884649E+03  0.18960573395E+03 -0.27335401723E+03  0.35727488309E+03  0.10566000000E+00 0.  1.
         13    1    1    2    0    0  0.15705591764E+03 -0.11670901624E+03 -0.62221521601E+03  0.65225711337E+03  0.10566000000E+00 0. -1.
          4    1    1    2  501    0 -0.26777071149E+02 -0.72896717707E+02 -0.45689992485E+02  0.90102821293E+02  0.00000000000E+00 0.  1.
</event>
<event>
 5    1  0.8445827E-005  0.5010976E+03  0.7818608E-02  0.9708754E-01
          4   -1    0    0  502    0 -0.00000000000E+00  0.00000000000E+00  0.13033907867E+04  0.13033907867E+04  0.00000000000E+00 0.  1.
         21   -1    0    0  501  502  0.00000000000E+00 -0.00000000000E+00 -0.61718032432E+03  0.61718032432E+03  0.00000000000E+00 0.  1.
        -13    1    1    2    0    0 -0.50277029981E+03  0.16328865570E+03 -0.64025803429E+02  0.53248518676E+03  0.10566000000E+00 0.  1.
         13    1    1    2    0    0  0.13401110490E+03  0.17232206112E+03  0.85171747019E+03  0.87924770639E+03  0.10566000000E+00 0. -1.
          4    1    1    2  501    0  0.36875919490E+03 -0.33561071683E+03 -0.10148120443E+03  0.50883821783E+03  0.00000000000E+00 0.  1.
</event>
<event>
 5    1  0.8445827E-005  0.9866343E+03  0.7818608E-02  0.8787252E-01
         -4   -1    0    0    0  501 -0.00000000000E+00  0.00000000000E+00  0.27636805358E+04  0.27636805358E+04  0.00000000000E+00 0. -1.
         21   -1    0    0  501  502  0.00000000000E+00 -0.00000000000E+00 -0.50399103477E+03  0.50399103477E+03  0.00000000000E+00 0.  1.
        -13    1    1    2    0    0  0.83400691292E+03 -0.49485579882E+03  0.10410988840E+04  0.14227918645E+04  0.10566000000E+00 0.  1.
         13    1    1    2    0    0 -0.70393741066E+03  0.74132649981E+03  0.11836565763E+04  0.15640127107E+04  0.10566000000E+00 0. -1.
         -4    1    1    2    0  502 -0.13006950227E+03 -0.24647070099E+03  0.34934040778E+02  0.28086699534E+03  0.00000000000E+00 0. -1.
</event>
<event>
 5    1  0.8445827E-005  0.2089907E+03  0.7818608E-02  0.1054141E+00
         21   -1    0    0  501  502  0.00000000000E+00  0.00000000000E+00  0.57848095579E+03  0.57848095579E+03  0.00000000000E+00 0. -1.
          4   -1    0    0  502    0 -0.00000000000E+00 -0.00000000000E+00 -0.25614441686E+03  0.25614441686E+03  0.00000000000E+00 0.  1.
        -13    1    1    2    0    0  0.22160545277E+03  0.62936638459E+02 -0.11600576027E+03  0.25792895289E+03  0.10566000000E+00 0.  1.
         13    1    1    2    0    0 -0.17527914354E+03  0.73168231969E+02  0.11301874939E+03  0.22101949509E+03  0.10566000000E+00 0. -1.
          4    1    1    2  501    0 -0.46326309228E+02 -0.13610487043E+03  0.32532354982E+03  0.35567692467E+03  0.00000000000E+00 0.  1.
</event>
<event>
 5    1  0.8445827E-005  0.2545270E+03  0.7818608E-02  0.1028073E+00
         21   -1    0    0  501  502  0.00000000000E+00  0.00000000000E+00  0.33349015650E+03  0.33349015650E+03  0.00000000000E+00 0. -1.
          4   -1    0    0  502    0 -0.00000000000E+00 -0.00000000000E+00 -0.50027436802E+03  0.50027436802E+03  0.00000000000E+00 0.  1.
        -13    1    1    2    0    0 -0.16808955020E+02  0.25441438762E+03  0.35867095761E+02  0.25747947748E+03  0.10566000000E+00 0.  1.
         13    1    1    2    0    0  0.41736410895E+02 -0.25123269226E+03 -0.34662964741E+03  0.43013011669E+03  0.10566000000E+00 0. -1.
          4    1    1    2  501    0 -0.24927455876E+02 -0.31816953639E+01  0.14397834012E+03  0.14615493035E+03  0.00000000000E+00 0.  1.
</event>
<event>
 5    1  0.8445827E-005  0.4673211E+03  0.7818608E-02  0.9824311E-01
         21   -1    0    0  501  502  0.00000000000E+00  0.00000000000E+00  0.40659760445E+03  0.40659760445E+03  0.00000000000E+00 0.  1.
          4   -1    0    0  502    0 -0.00000000000E+00 -0.00000000000E+00 -0.15386480075E+04  0.15386480075E+04  0.00000000000E+00 0.  1.
        -13    1    1    2    0    0  0.37519285294E+03  0.20029485450E+03 -0.32745011391E+02  0.42656764126E+03  0.10566000000E+00 0.  1.
         13    1    1    2    0    0  0.18334311889E+02  0.17998822815E+03 -0.92766973276E+03  0.94514710681E+03  0.10566000000E+00 0. -1.
          4    1    1    2  501    0 -0.39352716483E+03 -0.38028308265E+03 -0.17163565888E+03  0.57353086387E+03  0.00000000000E+00 0.  1.
</event>
<event>
 5    1  0.8445827E-005  0.1047732E+04  0.7818608E-02  0.8730991E-01
         21   -1    0    0  501  502  0.00000000000E+00  0.00000000000E+00  0.62482084546E+03  0.62482084546E+03  0.00000000000E+00 0.  1.
         -4   -1    0    0    0  501 -0.00000000000E+00 -0.00000000000E+00 -0.39809023135E+04  0.39809023135E+04  0.00000000000E+00 0. -1.
        -13    1    1    2    0    0 -0.13831282035E+03 -0.11151774335E+04 -0.27844647921E+04  0.30026647055E+04  0.10566000000E+00 0.  1.
         13    1    1    2    0    0  0.54214677906E+03  0.76506178527E+03 -0.50335967619E+03  0.10642432241E+04  0.10566000000E+00 0. -1.
         -4    1    1    2    0  502 -0.40383395871E+03  0.35011564819E+03 -0.68256999784E+02  0.53881522931E+03  0.00000000000E+00 0. -1.
</event>
<event>
 5    1  0.8445827E-005  0.7268260E+02  0.7818608E-02  0.1219860E+00
         21   -1    0    0  501  502  0.00000000000E+00  0.00000000000E+00  0.16854760793E+02  0.16854760793E+02  0.00000000000E+00 0.  1.
         -4   -1    0    0    0  501 -0.00000000000E+00 -0.00000000000E+00 -0.58435607022E+03  0.58435607022E+03  0.00000000000E+00 0. -1.
        -13    1    1    2    0    0 -0.49042845562E+01  0.61397428115E+02 -0.11613129636E+03  0.13145411878E+03  0.10566000000E+00 0.  1.
         13    1    1    2    0    0  0.85665475798E+01 -0.77056380967E+02 -0.44616876381E+03  0.45285499727E+03  0.10566000000E+00 0. -1.
         -4    1    1    2    0  502 -0.36622630236E+01  0.15658952852E+02 -0.52012492538E+01  0.16901714963E+02  0.00000000000E+00 0. -1.
</event>
<event>
 5    1  0.8445827E-005  0.2170679E+03  0.7818608E-02  0.1049026E+00
         21   -1    0    0  501  502  0.00000000000E+00  0.00000000000E+00  0.94563941915E+03  0.94563941915E+03  0.00000000000E+00 0. -1.
          4   -1    0    0  502    0 -0.00000000000E+00 -0.00000000000E+00 -0.73497789730E+02  0.73497789730E+02  0.00000000000E+00 0.  1.
        -13    1    1    2    0    0 -0.22818063112E+03 -0.42230970287E+02  0.34996217531E+03  0.41990878841E+03  0.10566000000E+00 0.  1.
         13    1    1    2    0    0  0.20558616690E+03 -0.39317405020E+02  0.36941518322E+03  0.42459288632E+03  0.10566000000E+00 0. -1.
          4    1    1    2  501    0  0.22594464218E+02  0.81548375307E+02  0.15276427088E+03  0.17463553415E+03  0.00000000000E+00 0.  1.
</event>
<event>
 5    1  0.8445827E-005  0.6126607E+02  0.7818608E-02  0.1251697E+00
         21   -1    0    0  501  502  0.00000000000E+00  0.00000000000E+00  0.98297616830E+02  0.98297616830E+02  0.00000000000E+00 0.  1.
         -4   -1    0    0    0  501 -0.00000000000E+00 -0.00000000000E+00 -0.88300932428E+02  0.88300932428E+02  0.00000000000E+00 0. -1.
        -13    1    1    2    0    0  0.53450381471E+01 -0.48789865706E+02  0.91494255592E+01  0.49927383072E+02  0.10566000000E+00 0.  1.
         13    1    1    2    0    0 -0.26602115657E+02  0.64710414239E+02 -0.45354931383E+02  0.83379801111E+02  0.10566000000E+00 0. -1.
         -4    1    1    2    0  502  0.21257077510E+02 -0.15920548534E+02  0.46202190226E+02  0.53291365075E+02  0.00000000000E+00 0. -1.
</event>
<event>
 5    1  0.8445827E-005  0.3306559E+03  0.7818608E-02  0.9953989E-01
         -4   -1    0    0    0  501 -0.00000000000E+00  0.00000000000E+00  0.16807641283E+04  0.16807641283E+04  0.00000000000E+00 0. -1.
         21   -1    0    0  501  502  0.00000000000E+00 -0.00000000000E+00 -0.46198688607E+03  0.46198688607E+03  0.00000000000E+00 0. -1.
        -13    1    1    2    0    0 -0.43263693311E+03 -0.36906176289E+03  0.16010559081E+03  0.59077500970E+03  0.10566000000E+00 0.  1.
         13    1    1    2    0    0  0.23635046232E+03  0.19935698174E+03  0.12118401894E+04  0.12506643846E+04  0.10566000000E+00 0. -1.
         -4    1    1    2    0  502  0.19628647079E+03  0.16970478114E+03 -0.15316853796E+03  0.30131162005E+03  0.00000000000E+00 0. -1.
</event>
<event>
 5    1  0.8445827E-005  0.3328704E+03  0.7818608E-02  0.9945925E-01
         -4   -1    0    0    0  501 -0.00000000000E+00  0.00000000000E+00  0.20197249766E+04  0.20197249766E+04  0.00000000000E+00 0. -1.
         21   -1    0    0  501  502  0.00000000000E+00 -0.00000000000E+00 -0.21720936141E+03  0.21720936141E+03  0.00000000000E+00 0. -1.
        -13    1    1    2    0    0  0.22493831985E+03  0.12445752818E+03  0.65647231583E+03  0.70501265000E+03  0.10566000000E+00 0.  1.
         13    1    1    2    0    0 -0.45052097334E+03 -0.16389206625E+03  0.12037987660E+04  0.12957473662E+04  0.10566000000E+00 0. -1.
         -4    1    1    2    0  502  0.22558265349E+03  0.39434538070E+02 -0.57755466658E+02  0.23617432180E+03  0.00000000000E+00 0. -1.
</event>
<event>
 5    1  0.8445827E-005  0.1226008E+03  0.7818608E-02  0.1131784E+00
         21   -1    0    0  501  502  0.00000000000E+00  0.00000000000E+00  0.14574911704E+03  0.14574911704E+03  0.00000000000E+00 0. -1.
         -4   -1    0    0    0  501 -0.00000000000E+00 -0.00000000000E+00 -0.19305193673E+03  0.19305193673E+03  0.00000000000E+00 0. -1.
        -13    1    1    2    0    0  0.98256309096E+02  0.84983495224E+02 -0.34538802770E+02  0.13442260524E+03  0.10566000000E+00 0.  1.
         13    1    1    2    0    0 -0.91192847118E+02 -0.74738832998E+02 -0.75770948479E+02  0.14015447307E+03  0.10566000000E+00 0. -1.
         -4    1    1    2    0  502 -0.70634619785E+01 -0.10244662226E+02  0.63006931564E+02  0.64223975464E+02  0.00000000000E+00 0. -1.
</event>
<event>
 5    1  0.8445827E-005  0.2006625E+03  0.7818608E-02  0.1163595E+00
         21   -1    0    0  501  502  0.00000000000E+00  0.00000000000E+00  0.93661232884E+03  0.93661232884E+03  0.00000000000E+00 0.  1.
          4   -1    0    0  502    0 -0.00000000000E+00 -0.00000000000E+00 -0.53491034074E+02  0.53491034074E+02  0.00000000000E+00 0.  1.
        -13    1    1    2    0    0 -0.20070847366E+03 -0.44842377977E+02  0.55785648530E+03  0.59455748218E+03  0.10566000000E+00 0.  1.
         13    1    1    2    0    0  0.11107142297E+02  0.60901258853E+01 -0.42881164850E+01  0.13373756029E+02  0.10566000000E+00 0. -1.
          4    1    1    2  501    0  0.18960133137E+03  0.38752252092E+02  0.32955292596E+03  0.38217212471E+03  0.00000000000E+00 0.  1.
</event>
<event>
 5    1  0.8445827E-005  0.3291836E+02  0.7818608E-02  0.1415632E+00
         21   -1    0    0  501  502  0.00000000000E+00  0.00000000000E+00  0.12853326027E+03  0.12853326027E+03  0.00000000000E+00 0.  1.
         -4   -1    0    0    0  501 -0.00000000000E+00 -0.00000000000E+00 -0.20778290835E+02  0.20778290835E+02  0.00000000000E+00 0. -1.
        -13    1    1    2    0    0 -0.58573810861E+01 -0.18104951474E+02  0.29420494460E+02  0.35038191154E+02  0.10566000000E+00 0.  1.
         13    1    1    2    0    0  0.30649446831E+02 -0.58448611735E+01  0.29004910168E+01  0.31336480424E+02  0.10566000000E+00 0. -1.
         -4    1    1    2    0  502 -0.24792065745E+02  0.23949812647E+02  0.75433983954E+02  0.82936879522E+02  0.00000000000E+00 0. -1.
</event>
<event>
 5    1  0.8445827E-005  0.4910173E+03  0.7818608E-02  0.9953880E-01
         21   -1    0    0  501  502  0.00000000000E+00  0.00000000000E+00  0.14190809279E+03  0.14190809279E+03  0.00000000000E+00 0. -1.
         -4   -1    0    0    0  501 -0.00000000000E+00 -0.00000000000E+00 -0.21641639595E+04  0.21641639595E+04  0.00000000000E+00 0. -1.
        -13    1    1    2    0    0 -0.80025491924E+02  0.61637510332E+02 -0.86189545171E+02  0.13278520587E+03  0.10566000000E+00 0.  1.
         13    1    1    2    0    0  0.31295031799E+03 -0.43810176184E+03 -0.93987912512E+03  0.10831638086E+04  0.10566000000E+00 0. -1.
         -4    1    1    2    0  502 -0.23292482607E+03  0.37646425151E+03 -0.99618719643E+03  0.10901230378E+04  0.00000000000E+00 0. -1.
</event>
<event>
 5    1  0.8445827E-005  0.4344568E+03  0.7818608E-02  0.9634507E-01
          4   -1    0    0  502    0 -0.00000000000E+00  0.00000000000E+00  0.38507856236E+04  0.38507856236E+04  0.00000000000E+00 0.  1.
         21   -1    0    0  501  502  0.00000000000E+00 -0.00000000000E+00 -0.13419193121E+03  0.13419193121E+03  0.00000000000E+00 0.  1.
        -13    1    1    2    0    0 -0.34604482012E+03  0.47175761059E+03  0.17419009485E+04  0.18375312749E+04  0.10566000000E+00 0.  1.
         13    1    1    2    0    0  0.28114156471E+03 -0.25182350676E+03  0.18466137491E+04  0.18847912371E+04  0.10566000000E+00 0. -1.
          4    1    1    2  501    0  0.64903255407E+02 -0.21993410383E+03  0.12807899476E+03  0.26265504277E+03  0.00000000000E+00 0.  1.
</event>
<event>
 5    1  0.8445827E-005  0.5061327E+03  0.7818608E-02  0.9464631E-01
         21   -1    0    0  501  502  0.00000000000E+00  0.00000000000E+00  0.11944409121E+04  0.11944409121E+04  0.00000000000E+00 0. -1.
         -4   -1    0    0    0  501 -0.00000000000E+00 -0.00000000000E+00 -0.24302703935E+04  0.24302703935E+04  0.00000000000E+00 0. -1.
        -13    1    1    2    0    0  0.12160662771E+03 -0.55129948758E+03 -0.33807955639E+03  0.65804034414E+03  0.10566000000E+00 0.  1.
         13    1    1    2    0    0 -0.94838985154E+02  0.48541595974E+03 -0.18992783276E+04  0.19626210190E+04  0.10566000000E+00 0. -1.
         -4    1    1    2    0  502 -0.26767642555E+02  0.65883527832E+02  0.10015284026E+04  0.10040499426E+04  0.00000000000E+00 0. -1.
</event>
<event>
 5    1  0.8445827E-005  0.2889704E+03  0.7818608E-02  0.1011965E+00
         21   -1    0    0  501  502  0.00000000000E+00  0.00000000000E+00  0.54321039682E+02  0.54321039682E+02  0.00000000000E+00 0. -1.
          4   -1    0    0  502    0 -0.00000000000E+00 -0.00000000000E+00 -0.19671110459E+04  0.19671110459E+04  0.00000000000E+00 0.  1.
        -13    1    1    2    0    0  0.20485652289E+03 -0.21881594900E+03 -0.79415423912E+03  0.84883896069E+03  0.10566000000E+00 0.  1.
         13    1    1    2    0    0 -0.22995542637E+03  0.16591767398E+03 -0.10115774959E+04  0.10505699472E+04  0.10566000000E+00 0. -1.
          4    1    1    2  501    0  0.25098903477E+02  0.52898275019E+02 -0.10705827124E+03  0.12202317770E+03  0.00000000000E+00 0.  1.
</event>
<event>
 5    1  0.8445827E-005  0.5429461E+03  0.7818608E-02  0.9388504E-01
         21   -1    0    0  501  502  0.00000000000E+00  0.00000000000E+00  0.41274012351E+03  0.41274012351E+03  0.00000000000E+00 0. -1.
          4   -1    0    0  502    0 -0.00000000000E+00 -0.00000000000E+00 -0.17088829668E+04  0.17088829668E+04  0.00000000000E+00 0.  1.
        -13    1    1    2    0    0  0.59518801743E+03  0.12348746894E+03 -0.95885999469E+03  0.11353019121E+04  0.10566000000E+00 0.  1.
         13    1    1    2    0    0 -0.28152111502E+03 -0.39125588324E+03 -0.51909798074E+02  0.48479886827E+03  0.10566000000E+00 0. -1.
          4    1    1    2  501    0 -0.31366690240E+03  0.26776841430E+03 -0.28537305048E+03  0.50152230987E+03  0.00000000000E+00 0.  1.
</event>
<event>
 5    1  0.8445827E-005  0.4536871E+03  0.7818608E-02  0.9795641E-01
          4   -1    0    0  502    0 -0.00000000000E+00  0.00000000000E+00  0.15331807370E+04  0.15331807370E+04  0.00000000000E+00 0.  1.
         21   -1    0    0  501  502  0.00000000000E+00 -0.00000000000E+00 -0.28066355996E+03  0.28066355996E+03  0.00000000000E+00 0.  1.
        -13    1    1    2    0    0  0.30429815556E+03 -0.31604733683E+03  0.14511571155E+03  0.46210590507E+03  0.10566000000E+00 0.  1.
         13    1    1    2    0    0  0.17707687820E+03  0.12717799366E+03  0.54889006402E+03  0.59060204571E+03  0.10566000000E+00 0. -1.
          4    1    1    2  501    0 -0.48137503376E+03  0.18886934317E+03  0.55851140149E+03  0.76113634620E+03  0.00000000000E+00 0.  1.
</event>
<event>
 5    1  0.8445827E-005  0.3130315E+03  0.7818608E-02  0.1004949E+00
         21   -1    0    0  501  502  0.00000000000E+00  0.00000000000E+00  0.14985901953E+04  0.14985901953E+04  0.00000000000E+00 0. -1.
         -4   -1    0    0    0  501 -0.00000000000E+00 -0.00000000000E+00 -0.53126928275E+03  0.53126928275E+03  0.00000000000E+00 0. -1.
        -13    1    1    2    0    0 -0.19918890104E+03 -0.26066842191E+03 -0.25960640692E+03  0.41835360899E+03  0.10566000000E+00 0.  1.
         13    1    1    2    0    0 -0.87518525653E+02  0.99740795656E+02 -0.14743995107E+03  0.19835893977E+03  0.10566000000E+00 0. -1.
         -4    1    1    2    0  502  0.28670742669E+03  0.16092762626E+03  0.13743672706E+04  0.14131469293E+04  0.00000000000E+00 0. -1.
</event>
<event>
 5    1  0.8445827E-005  0.9253247E+03  0.7818608E-02  0.8848107E-01
         -4   -1    0    0    0  501 -0.00000000000E+00  0.00000000000E+00  0.20841680896E+04  0.20841680896E+04  0.00000000000E+00 0. -1.
         21   -1    0    0  501  502  0.00000000000E+00 -0.00000000000E+00 -0.65270195282E+03  0.65270195282E+03  0.00000000000E+00 0. -1.
        -13    1    1    2    0    0  0.86832602075E+03 -0.80199227699E+01  0.10453245093E+04  0.13589546491E+04  0.10566000000E+00 0.  1.
         13    1    1    2    0    0 -0.10459435651E+04 -0.68531123347E+02  0.49146697617E+03  0.11576848691E+04  0.10566000000E+00 0. -1.
         -4    1    1    2    0  502  0.17761754436E+03  0.76551046117E+02 -0.10532534868E+03  0.22023052423E+03  0.00000000000E+00 0. -1.
</event>
<event>
 5    1  0.8445827E-005  0.1848444E+03  0.7818608E-02  0.1071054E+00
         -4   -1    0    0    0  501 -0.00000000000E+00  0.00000000000E+00  0.80630767431E+03  0.80630767431E+03  0.00000000000E+00 0. -1.
         21   -1    0    0  501  502  0.00000000000E+00 -0.00000000000E+00 -0.12764705736E+03  0.12764705736E+03  0.00000000000E+00 0. -1.
        -13    1    1    2    0    0 -0.38751736160E+02  0.17146216382E+03  0.35773581944E+03  0.39859239625E+03  0.10566000000E+00 0.  1.
         13    1    1    2    0    0  0.11255702267E+03 -0.16881651676E+03  0.38655007616E+03  0.43656508361E+03  0.10566000000E+00 0. -1.
         -4    1    1    2    0  502 -0.73805286513E+02 -0.26456470556E+01 -0.65625278650E+02  0.98797251801E+02  0.00000000000E+00 0. -1.
</event>
<event>
 5    1  0.8445827E-005  0.1332947E+03  0.7818608E-02  0.1118864E+00
         21   -1    0    0  501  502  0.00000000000E+00  0.00000000000E+00  0.43577899836E+02  0.43577899836E+02  0.00000000000E+00 0. -1.
         -4   -1    0    0    0  501 -0.00000000000E+00 -0.00000000000E+00 -0.62882143960E+03  0.62882143960E+03  0.00000000000E+00 0. -1.
        -13    1    1    2    0    0  0.64630025445E+02  0.10838298781E+03 -0.30808292296E+03  0.33292493271E+03  0.10566000000E+00 0.  1.
         13    1    1    2    0    0 -0.10923178286E+03 -0.10216596429E+03 -0.22922690769E+03  0.27370504749E+03  0.10566000000E+00 0. -1.
         -4    1    1    2    0  502  0.44601757413E+02 -0.62170235194E+01 -0.47933709120E+02  0.65769359246E+02  0.00000000000E+00 0. -1.
</event>
<event>
 5    1  0.8445827E-005  0.4653990E+03  0.7818608E-02  0.1008307E+00
         21   -1    0    0  501  502  0.00000000000E+00  0.00000000000E+00  0.11624719646E+04  0.11624719646E+04  0.00000000000E+00 0.  1.
          4   -1    0    0  502    0 -0.00000000000E+00 -0.00000000000E+00 -0.34862038512E+03  0.34862038512E+03  0.00000000000E+00 0.  1.
        -13    1    1    2    0    0 -0.30791391263E+03  0.32648148282E+03  0.66256395262E+03  0.80024504915E+03  0.10566000000E+00 0.  1.
         13    1    1    2    0    0  0.62847666973E+01  0.77544464911E+02 -0.11639076358E+03  0.13999808335E+03  0.10566000000E+00 0. -1.
          4    1    1    2  501    0  0.30162914593E+03 -0.40402594773E+03  0.26767839047E+03  0.57084921725E+03  0.00000000000E+00 0.  1.
</event>
<event>
 5    1  0.8445827E-005  0.4248977E+03  0.7818608E-02  0.1030007E+00
          4   -1    0    0  502    0 -0.00000000000E+00  0.00000000000E+00  0.61839360649E+03  0.61839360649E+03  0.00000000000E+00 0.  1.
         21   -1    0    0  501  502  0.00000000000E+00 -0.00000000000E+00 -0.46118346201E+03  0.46118346201E+03  0.00000000000E+00 0.  1.
        -13    1    1    2    0    0  0.37584953575E+03 -0.16657765935E+03  0.37024697159E+03  0.55325746380E+03  0.10566000000E+00 0.  1.
         13    1    1    2    0    0 -0.54267476547E+01 -0.51246348855E+02 -0.24406527263E+02  0.57020413872E+02  0.10566000000E+00 0. -1.
          4    1    1    2  501    0 -0.37042278809E+03  0.21782400821E+03 -0.18863029985E+03  0.46929919083E+03  0.00000000000E+00 0.  1.
</event>
<event>
 5    1  0.8445827E-005  0.7848758E+02  0.7818608E-02  0.1206068E+00
         21   -1    0    0  501  502  0.00000000000E+00  0.00000000000E+00  0.71261665794E+03  0.71261665794E+03  0.00000000000E+00 0. -1.
          4   -1    0    0  502    0 -0.00000000000E+00 -0.00000000000E+00 -0.70408158077E+02  0.70408158077E+02  0.00000000000E+00 0.  1.
        -13    1    1    2    0    0  0.74217859359E+02 -0.20797804350E+02 -0.39840088485E+02  0.86764526900E+02  0.10566000000E+00 0.  1.
         13    1    1    2    0    0 -0.98542048885E+02  0.30639701029E+02  0.40382499723E+03  0.41680207080E+03  0.10566000000E+00 0. -1.
          4    1    1    2  501    0  0.24324189526E+02 -0.98418966794E+01  0.27822359112E+03  0.27945821831E+03  0.00000000000E+00 0.  1.
</event>
<event>
 5    1  0.8445827E-005  0.2510961E+03  0.7818608E-02  0.1029826E+00
         21   -1    0    0  501  502  0.00000000000E+00  0.00000000000E+00  0.67437892855E+03  0.67437892855E+03  0.00000000000E+00 0.  1.
         -4   -1    0    0    0  501 -0.00000000000E+00 -0.00000000000E+00 -0.17918904791E+03  0.17918904791E+03  0.00000000000E+00 0. -1.
        -13    1    1    2    0    0  0.25439371304E+03 -0.60003588993E+02  0.19242331518E+03  0.32456638044E+03  0.10566000000E+00 0.  1.
         13    1    1    2    0    0 -0.24317403799E+03  0.37345248046E+02  0.21898348239E+02  0.24699762979E+03  0.10566000000E+00 0. -1.
         -4    1    1    2    0  502 -0.11219675045E+02  0.22658340948E+02  0.28086821722E+03  0.28200396623E+03  0.00000000000E+00 0. -1.
</event>
<event>
 5    1  0.8445827E-005  0.8489512E+02  0.7818608E-02  0.1192299E+00
         21   -1    0    0  501  502  0.00000000000E+00  0.00000000000E+00  0.26598288257E+03  0.26598288257E+03  0.00000000000E+00 0.  1.
          4   -1    0    0  502    0 -0.00000000000E+00 -0.00000000000E+00 -0.78963811648E+02  0.78963811648E+02  0.00000000000E+00 0.  1.
        -13    1    1    2    0    0  0.88620642148E+02  0.46224052619E+01  0.63950840742E+02  0.10938329873E+03  0.10566000000E+00 0.  1.
         13    1    1    2    0    0 -0.82297969267E+02 -0.15295286671E+02 -0.24699949490E+02  0.87275427290E+02  0.10566000000E+00 0. -1.
          4    1    1    2  501    0 -0.63226728809E+01  0.10672881409E+02  0.14776817967E+03  0.14828796820E+03  0.00000000000E+00 0.  1.
</event>
<event>
 5    1  0.8445827E-005  0.1187087E+03  0.7818608E-02  0.1136848E+00
         21   -1    0    0  501  502  0.00000000000E+00  0.00000000000E+00  0.66841131070E+03  0.66841131070E+03  0.00000000000E+00 0. -1.
          4   -1    0    0  502    0 -0.00000000000E+00 -0.00000000000E+00 -0.52284034331E+02  0.52284034331E+02  0.00000000000E+00 0.  1.
        -13    1    1    2    0    0 -0.29685967178E+02  0.11231622612E+03  0.38221770557E+02  0.12229924859E+03  0.10566000000E+00 0.  1.
         13    1    1    2    0    0  0.31412076949E+02 -0.12947119454E+03  0.44918724202E+03  0.46852822578E+03  0.10566000000E+00 0. -1.
          4    1    1    2  501    0 -0.17261097711E+01  0.17154968421E+02  0.12871826379E+03  0.12986787066E+03  0.00000000000E+00 0.  1.
</event>
<event>
 5    1  0.8445827E-005  0.5996679E+03  0.7818608E-02  0.9282808E-01
         21   -1    0    0  501  502  0.00000000000E+00  0.00000000000E+00  0.63650855941E+03  0.63650855941E+03  0.00000000000E+00 0.  1.
          4   -1    0    0  502    0 -0.00000000000E+00 -0.00000000000E+00 -0.14774115501E+04  0.14774115501E+04  0.00000000000E+00 0.  1.
        -13    1    1    2    0    0  0.57563654256E+03 -0.23008574259E+03 -0.42809309111E+03  0.75336616854E+03  0.10566000000E+00 0.  1.
         13    1    1    2    0    0 -0.54858868055E+03  0.21042440495E+03 -0.78852073544E+03  0.98335798772E+03  0.10566000000E+00 0. -1.
          4    1    1    2  501    0 -0.27047862013E+02  0.19661337640E+02  0.37571083582E+03  0.37719595330E+03  0.00000000000E+00 0.  1.
</event>
<event>
 5    1  0.8445827E-005  0.4960218E+03  0.7818608E-02  0.9556582E-01
         21   -1    0    0  501  502  0.00000000000E+00  0.00000000000E+00  0.46186704033E+03  0.46186704033E+03  0.00000000000E+00 0.  1.
         -4   -1    0    0    0  501 -0.00000000000E+00 -0.00000000000E+00 -0.15247238693E+04  0.15247238693E+04  0.00000000000E+00 0. -1.
        -13    1    1    2    0    0  0.38000000345E+03 -0.41514933212E+03 -0.35860182528E+03  0.66734118024E+03  0.10566000000E+00 0.  1.
         13    1    1    2    0    0 -0.21618031075E+03 -0.30364766717E+03 -0.17538902914E+03  0.41194314564E+03  0.10566000000E+00 0. -1.
         -4    1    1    2    0  502 -0.16381969270E+03  0.71879699929E+03 -0.52886597456E+03  0.90730658377E+03  0.00000000000E+00 0. -1.
</event>
<event>
 5    1  0.8445827E-005  0.1017975E+03  0.7818608E-02  0.1180045E+00
          4   -1    0    0  502    0 -0.00000000000E+00  0.00000000000E+00  0.28725749934E+03  0.28725749934E+03  0.00000000000E+00 0.  1.
         21   -1    0    0  501  502  0.00000000000E+00 -0.00000000000E+00 -0.25951614375E+03  0.25951614375E+03  0.00000000000E+00 0.  1.
        -13    1    1    2    0    0 -0.48892704782E+02  0.15184874462E+03  0.23413183651E+03  0.28331301745E+03  0.10566000000E+00 0.  1.
         13    1    1    2    0    0  0.21678072419E+01 -0.65471377743E+02 -0.79788596881E+02  0.10323483931E+03  0.10566000000E+00 0. -1.
          4    1    1    2  501    0  0.46724897540E+02 -0.86377366881E+02 -0.12660188404E+03  0.16022578632E+03  0.00000000000E+00 0.  1.
</event>
<event>
 5    1  0.8445827E-005  0.4353375E+03  0.7818608E-02  0.9672232E-01
          4   -1    0    0  502    0 -0.00000000000E+00  0.00000000000E+00  0.15495469546E+04  0.15495469546E+04  0.00000000000E+00 0.  1.
         21   -1    0    0  501  502  0.00000000000E+00 -0.00000000000E+00 -0.35345428976E+03  0.35345428976E+03  0.00000000000E+00 0.  1.
        -13    1    1    2    0    0  0.38834180785E+03 -0.13824909664E+03  0.82862620857E+02  0.42046212379E+03  0.10566000000E+00 0.  1.
         13    1    1    2    0    0 -0.70339967775E+02 -0.37156916854E+03  0.42152322473E+03  0.56629779995E+03  0.10566000000E+00 0. -1.
          4    1    1    2  501    0 -0.31800184007E+03  0.50981826519E+03  0.69170681928E+03  0.91624132064E+03  0.00000000000E+00 0.  1.
</event>
<event>
 5    1  0.8445827E-005  0.7290646E+02  0.7818608E-02  0.1219302E+00
         21   -1    0    0  501  502  0.00000000000E+00  0.00000000000E+00  0.18171637998E+03  0.18171637998E+03  0.00000000000E+00 0.  1.
          4   -1    0    0  502    0 -0.00000000000E+00 -0.00000000000E+00 -0.77677155977E+02  0.77677155977E+02  0.00000000000E+00 0.  1.
        -13    1    1    2    0    0  0.23901816302E+02 -0.85733549776E+02  0.54388401333E+02  0.10430554992E+03  0.10566000000E+00 0.  1.
         13    1    1    2    0    0  0.11348156055E+02  0.68727918745E+02 -0.22334199365E+02  0.73151453069E+02  0.10566000000E+00 0. -1.
          4    1    1    2  501    0 -0.35249972357E+02  0.17005631031E+02  0.71985022040E+02  0.81936532975E+02  0.00000000000E+00 0.  1.
</event>
<event>
 5    1  0.8445827E-005  0.4934647E+03  0.7818608E-02  0.9695328E-01
          4   -1    0    0  502    0 -0.00000000000E+00  0.00000000000E+00  0.15008954972E+04  0.15008954972E+04  0.00000000000E+00 0.  1.
         21   -1    0    0  501  502  0.00000000000E+00 -0.00000000000E+00 -0.56035038032E+03  0.56035038032E+03  0.00000000000E+00 0.  1.
        -13    1    1    2    0    0 -0.31353482597E+03  0.17465301999E+03  0.16026503282E+03  0.39305553857E+03  0.10566000000E+00 0.  1.
         13    1    1    2    0    0 -0.23111310053E+03  0.62910043075E+02  0.10048228065E+04  0.10329761964E+04  0.10566000000E+00 0. -1.
          4    1    1    2  501    0  0.54464792650E+03 -0.23756306307E+03 -0.22454272238E+03  0.63521414259E+03  0.00000000000E+00 0.  1.
</event>
<event>
 5    1  0.8445827E-005  0.4828644E+03  0.7818608E-02  0.9722862E-01
         -4   -1    0    0    0  501 -0.00000000000E+00  0.00000000000E+00  0.15442431714E+04  0.15442431714E+04  0.00000000000E+00 0. -1.
         21   -1    0    0  501  502  0.00000000000E+00 -0.00000000000E+00 -0.26697534709E+03  0.26697534709E+03  0.00000000000E+00 0. -1.
        -13    1    1    2    0    0  0.66900630926E+02  0.22246893569E+03  0.43181815259E+03  0.49034176840E+03  0.10566000000E+00 0.  1.
         13    1    1    2    0    0 -0.34792236726E+03  0.27245696592E+03  0.31325619221E+03  0.54167538715E+03  0.10566000000E+00 0. -1.
         -4    1    1    2    0  502  0.28102173633E+03 -0.49492590161E+03  0.53219347949E+03  0.77920136293E+03  0.00000000000E+00 0. -1.
</event>
<event>
 5    1  0.8445827E-005  0.3262948E+02  0.7818608E-02  0.1384960E+00
          4   -1    0    0  502    0 -0.00000000000E+00  0.00000000000E+00  0.13166166636E+02  0.13166166636E+02  0.00000000000E+00 0.  1.
         21   -1    0    0  501  502  0.00000000000E+00 -0.00000000000E+00 -0.22485612671E+03  0.22485612671E+03  0.00000000000E+00 0. -1.
        -13    1    1    2    0    0  0.32291417902E+02  0.81697704764E+00 -0.16251715603E+02  0.36159819492E+02  0.10566000000E+00 0.  1.
         13    1    1    2    0    0 -0.33947120798E+02 -0.13755055217E+02 -0.15886610427E+03  0.16303391918E+03  0.10566000000E+00 0. -1.
          4    1    1    2  501    0  0.16557028958E+01  0.12938078169E+02 -0.36572140197E+02  0.38828554665E+02  0.00000000000E+00 0.  1.
</event>
<event>
 5    1  0.8445827E-005  0.5509459E+02  0.7818608E-02  0.1272330E+00
         -4   -1    0    0    0  501 -0.00000000000E+00  0.00000000000E+00  0.13486054253E+03  0.13486054253E+03  0.00000000000E+00 0. -1.
         21   -1    0    0  501  502  0.00000000000E+00 -0.00000000000E+00 -0.14320811132E+03  0.14320811132E+03  0.00000000000E+00 0.  1.
        -13    1    1    2    0    0 -0.44462707781E+02 -0.49293802657E+01 -0.11137816713E+03  0.12002640730E+03  0.10566000000E+00 0.  1.
         13    1    1    2    0    0  0.53488668150E+02  0.15421886563E+02  0.12226753580E+03  0.13434371470E+03  0.10566000000E+00 0. -1.
         -4    1    1    2    0  502 -0.90259603692E+01 -0.10492506297E+02 -0.19236937461E+02  0.23698531850E+02  0.00000000000E+00 0. -1.
</event>
<event>
 5    1  0.8445827E-005  0.5028551E+03  0.7818608E-02  0.9688700E-01
         21   -1    0    0  501  502  0.00000000000E+00  0.00000000000E+00  0.33999700647E+03  0.33999700647E+03  0.00000000000E+00 0. -1.
         -4   -1    0    0    0  501 -0.00000000000E+00 -0.00000000000E+00 -0.15298204133E+04  0.15298204133E+04  0.00000000000E+00 0. -1.
        -13    1    1    2    0    0 -0.19413718887E+03  0.12637524437E+03 -0.67901022038E+03  0.71743629754E+03  0.10566000000E+00 0.  1.
         13    1    1    2    0    0  0.36892511557E+03  0.35985053814E+03 -0.23060661300E+03  0.56460390702E+03  0.10566000000E+00 0. -1.
         -4    1    1    2    0  502 -0.17478792670E+03 -0.48622578251E+03 -0.28020657342E+03  0.58777721518E+03  0.00000000000E+00 0. -1.
</event>
<event>
 5    1  0.8445827E-005  0.7409076E+03  0.7818608E-02  0.9065658E-01
          4   -1    0    0  502    0 -0.00000000000E+00  0.00000000000E+00  0.44619329521E+04  0.44619329521E+04  0.00000000000E+00 0.  1.
         21   -1    0    0  501  502  0.00000000000E+00 -0.00000000000E+00 -0.31208532142E+03  0.31208532142E+03  0.00000000000E+00 0. -1.
        -13    1    1    2    0    0  0.67641033871E+03 -0.25236702517E+03  0.25941491599E+04  0.26927365146E+04  0.10566000000E+00 0.  1.
         13    1    1    2    0    0 -0.55846052521E+03  0.71377782375E+03  0.10280009912E+04  0.13704535705E+04  0.10566000000E+00 0. -1.
          4    1    1    2  501    0 -0.11794981350E+03 -0.46141079859E+03  0.52769747953E+03  0.71082818843E+03  0.00000000000E+00 0.  1.
</event>
<event>
 5    1  0.8445827E-005  0.4855393E+03  0.7818608E-02  0.9894456E-01
         21   -1    0    0  501  502  0.00000000000E+00  0.00000000000E+00  0.30944217126E+03  0.30944217126E+03  0.00000000000E+00 0.  1.
          4   -1    0    0  502    0 -0.00000000000E+00 -0.00000000000E+00 -0.12131201549E+04  0.12131201549E+04  0.00000000000E+00 0.  1.
        -13    1    1    2    0    0  0.22120229644E+03  0.42011079470E+03 -0.41907727249E+03  0.63328453893E+03  0.10566000000E+00 0.  1.
         13    1    1    2    0    0  0.11576081577E+03 -0.53009385494E+02 -0.35099323592E+03  0.37337223283E+03  0.10566000000E+00 0. -1.
          4    1    1    2  501    0 -0.33696311221E+03 -0.36710140920E+03 -0.13360747522E+03  0.51590555440E+03  0.00000000000E+00 0.  1.
</event>
<event>
 5    1  0.8445827E-005  0.1501237E+03  0.7818608E-02  0.1100990E+00
         21   -1    0    0  501  502  0.00000000000E+00  0.00000000000E+00  0.18832786003E+03  0.18832786003E+03  0.00000000000E+00 0.  1.
         -4   -1    0    0    0  501 -0.00000000000E+00 -0.00000000000E+00 -0.21790958492E+03  0.21790958492E+03  0.00000000000E+00 0. -1.
        -13    1    1    2    0    0  0.15847950150E+03 -0.34390897220E+01 -0.66192866337E+02  0.17178209002E+03  0.10566000000E+00 0.  1.
         13    1    1    2    0    0 -0.14111958260E+03  0.18133572617E+02 -0.45400888580E+02  0.14934796583E+03  0.10566000000E+00 0. -1.
         -4    1    1    2    0  502 -0.17359918899E+02 -0.14694482895E+02  0.82012030026E+02  0.85107389108E+02  0.00000000000E+00 0. -1.
</event>
<event>
 5    1  0.8445827E-005  0.7395744E+02  0.7818608E-02  0.1216711E+00
         21   -1    0    0  501  502  0.00000000000E+00  0.00000000000E+00  0.27856957524E+03  0.27856957524E+03  0.00000000000E+00 0.  1.
         -4   -1    0    0    0  501 -0.00000000000E+00 -0.00000000000E+00 -0.37362087705E+02  0.37362087705E+02  0.00000000000E+00 0. -1.
        -13    1    1    2    0    0 -0.42059847910E+02  0.61258882379E+02  0.27557756650E+02  0.79253533626E+02  0.10566000000E+00 0.  1.
         13    1    1    2    0    0  0.27319028782E+02 -0.69260418854E+02  0.11768809880E+03  0.13926174893E+03  0.10566000000E+00 0. -1.
         -4    1    1    2    0  502  0.14740819128E+02  0.80015364745E+01  0.95961632083E+02  0.97416380381E+02  0.00000000000E+00 0. -1.
</event>
<event>
 5    1  0.8445827E-005  0.4876530E+03  0.7818608E-02  0.9513110E-01
         -4   -1    0    0    0  501 -0.00000000000E+00  0.00000000000E+00  0.24481952852E+04  0.24481952852E+04  0.00000000000E+00 0. -1.
         21   -1    0    0  501  502  0.00000000000E+00 -0.00000000000E+00 -0.64282127616E+03  0.64282127616E+03  0.00000000000E+00 0. -1.
        -13    1    1    2    0    0  0.94723227965E+02  0.46474252744E+03  0.19304904470E+04  0.19879012761E+04  0.10566000000E+00 0.  1.
         13    1    1    2    0    0 -0.15972970331E+03  0.20668388994E+03  0.22351112763E+03  0.34378633454E+03  0.10566000000E+00 0. -1.
         -4    1    1    2    0  502  0.65006475342E+02 -0.67142641738E+03 -0.34862756558E+03  0.75932895063E+03  0.00000000000E+00 0. -1.
</event>
<event>
 5    1  0.8445827E-005  0.4453665E+03  0.7818608E-02  0.1001918E+00
          4   -1    0    0  502    0 -0.00000000000E+00  0.00000000000E+00  0.44820870184E+03  0.44820870184E+03  0.00000000000E+00 0.  1.
         21   -1    0    0  501  502  0.00000000000E+00 -0.00000000000E+00 -0.12348124734E+04  0.12348124734E+04  0.00000000000E+00 0.  1.
        -13    1    1    2    0    0 -0.44510328640E+02  0.45894686138E+03 -0.20049023988E+03  0.50280188780E+03  0.10566000000E+00 0.  1.
         13    1    1    2    0    0  0.10729892077E+03 -0.20390713813E+02  0.22831303144E+03  0.25309225808E+03  0.10566000000E+00 0. -1.
          4    1    1    2  501    0 -0.62788592127E+02 -0.43855614756E+03 -0.81442656317E+03  0.92712702941E+03  0.00000000000E+00 0.  1.
</event>
<event>
 5    1  0.8445827E-005  0.4167063E+03  0.7818608E-02  0.9985829E-01
         21   -1    0    0  501  502  0.00000000000E+00  0.00000000000E+00  0.22333145043E+03  0.22333145043E+03  0.00000000000E+00 0. -1.
         -4   -1    0    0    0  501 -0.00000000000E+00 -0.00000000000E+00 -0.15503994234E+04  0.15503994234E+04  0.00000000000E+00 0. -1.
        -13    1    1    2    0    0  0.12880541587E+02 -0.14817591645E+03 -0.25582420127E+03  0.29591898163E+03  0.10566000000E+00 0.  1.
         13    1    1    2    0    0  0.15671550722E+03  0.49756027213E+03 -0.92665649571E+03  0.10633993826E+04  0.10566000000E+00 0. -1.
         -4    1    1    2    0  502 -0.16959604881E+03 -0.34938435568E+03 -0.14458727595E+03  0.41441250962E+03  0.00000000000E+00 0. -1.
</event>
<event>
 5    1  0.8445827E-005  0.6438441E+02  0.7818608E-02  0.1249599E+00
         21   -1    0    0  501  502  0.00000000000E+00  0.00000000000E+00  0.58384789370E+02  0.58384789370E+02  0.00000000000E+00 0.  1.
          4   -1    0    0  502    0 -0.00000000000E+00 -0.00000000000E+00 -0.23427845793E+03  0.23427845793E+03  0.00000000000E+00 0.  1.
        -13    1    1    2    0    0 -0.54536422312E+02  0.72688159482E+02 -0.12029012770E+03  0.15075647871E+03  0.10566000000E+00 0.  1.
         13    1    1    2    0    0  0.54034689059E+02 -0.11092275035E+02 -0.58286657944E+02  0.80250432058E+02  0.10566000000E+00 0. -1.
          4    1    1    2  501    0  0.50173325295E+00 -0.61595884446E+02  0.26831170854E+01  0.61656336530E+02  0.00000000000E+00 0.  1.
</event>
<event>
 5    1  0.8445827E-005  0.5103577E+03  0.7818608E-02  0.9455555E-01
          4   -1    0    0  502    0 -0.00000000000E+00  0.00000000000E+00  0.25644460123E+04  0.25644460123E+04  0.00000000000E+00 0.  1.
         21   -1    0    0  501  502  0.00000000000E+00 -0.00000000000E+00 -0.31214854165E+03  0.31214854165E+03  0.00000000000E+00 0.  1.
        -13    1    1    2    0    0  0.39622489399E+03 -0.59062981738E+03  0.42966733882E+03  0.83093428200E+03  0.10566000000E+00 0.  1.
         13    1    1    2    0    0 -0.54679128782E+01  0.48549235947E+03  0.12782797678E+04  0.13673814044E+04  0.10566000000E+00 0. -1.
          4    1    1    2  501    0 -0.39075698111E+03  0.10513745791E+03  0.54435036399E+03  0.67827886751E+03  0.00000000000E+00 0.  1.
</event>
<event>
 5    1  0.8445827E-005  0.2944665E+03  0.7818608E-02  0.1047608E+00
          4   -1    0    0  502    0 -0.00000000000E+00  0.00000000000E+00  0.11369892543E+04  0.11369892543E+04  0.00000000000E+00 0.  1.
         21   -1    0    0  501  502  0.00000000000E+00 -0.00000000000E+00 -0.26136208950E+03  0.26136208950E+03  0.00000000000E+00 0.  1.
        -13    1    1    2    0    0 -0.18925220309E+03  0.21792447171E+03 -0.10618181879E+03  0.30754196714E+03  0.10566000000E+00 0.  1.
         13    1    1    2    0    0 -0.90707715848E+02 -0.38497280741E-01  0.77152859878E+02  0.11908176245E+03  0.10566000000E+00 0. -1.
          4    1    1    2  501    0  0.27995991893E+03 -0.21788597443E+03  0.90465612372E+03  0.97172761423E+03  0.00000000000E+00 0.  1.
</event>
<event>
 5    1  0.8445827E-005  0.3610637E+03  0.7818608E-02  0.1016879E+00
         -4   -1    0    0    0  501 -0.00000000000E+00  0.00000000000E+00  0.20344225146E+04  0.20344225146E+04  0.00000000000E+00 0. -1.
         21   -1    0    0  501  502  0.00000000000E+00 -0.00000000000E+00 -0.17102661240E+03  0.17102661240E+03  0.00000000000E+00 0. -1.
        -13    1    1    2    0    0  0.44618224992E+02 -0.11854805068E+03  0.37473624066E+03  0.39556502316E+03  0.10566000000E+00 0.  1.
         13    1    1    2    0    0 -0.34614114437E+03 -0.10525171822E+03  0.10578988568E+03  0.37693915569E+03  0.10566000000E+00 0. -1.
         -4    1    1    2    0  502  0.30152291938E+03  0.22379976890E+03  0.13828697758E+04  0.14329449481E+04  0.00000000000E+00 0. -1.
</event>
<event>
 5    1  0.8445827E-005  0.4994973E+03  0.7818608E-02  0.9645510E-01
         -4   -1    0    0    0  501 -0.00000000000E+00  0.00000000000E+00  0.10268862550E+04  0.10268862550E+04  0.00000000000E+00 0. -1.
         21   -1    0    0  501  502  0.00000000000E+00 -0.00000000000E+00 -0.63704793633E+03  0.63704793633E+03  0.00000000000E+00 0. -1.
        -13    1    1    2    0    0  0.17291810690E+03 -0.21383148101E+03  0.54003138944E+03  0.60601855310E+03  0.10566000000E+00 0.  1.
         13    1    1    2    0    0 -0.48332118545E+01  0.61342328031E+03 -0.99451774907E+02  0.62145164531E+03  0.10566000000E+00 0. -1.
         -4    1    1    2    0  502 -0.16808489504E+03 -0.39959179930E+03 -0.50741295852E+02  0.43646399292E+03  0.00000000000E+00 0. -1.
</event>
<event>
 5    1  0.8445827E-005  0.3417495E+03  0.7818608E-02  0.1050277E+00
         21   -1    0    0  501  502  0.00000000000E+00  0.00000000000E+00  0.34130785197E+03  0.34130785197E+03  0.00000000000E+00 0. -1.
         -4   -1    0    0    0  501 -0.00000000000E+00 -0.00000000000E+00 -0.85674399095E+03  0.85674399095E+03  0.00000000000E+00 0. -1.
        -13    1    1    2    0    0  0.31128857937E+02  0.43622278481E+02 -0.97254646746E+02  0.11104227327E+03  0.10566000000E+00 0.  1.
         13    1    1    2    0    0  0.26059064257E+03 -0.22193503899E+03  0.18839527107E+03  0.39071144576E+03  0.10566000000E+00 0. -1.
         -4    1    1    2    0  502 -0.29171950050E+03  0.17831276051E+03 -0.60657676331E+03  0.69629812388E+03  0.00000000000E+00 0. -1.
</event>
<event>
 5    1  0.8445827E-005  0.3595682E+03  0.7818608E-02  0.1004611E+00
         21   -1    0    0  501  502  0.00000000000E+00  0.00000000000E+00  0.13846948818E+04  0.13846948818E+04  0.00000000000E+00 0. -1.
         -4   -1    0    0    0  501 -0.00000000000E+00 -0.00000000000E+00 -0.59473606036E+03  0.59473606036E+03  0.00000000000E+00 0. -1.
        -13    1    1    2    0    0 -0.11251094840E+03 -0.15326187186E+03 -0.37194909993E+03  0.41772486038E+03  0.10566000000E+00 0.  1.
         13    1    1    2    0    0  0.88522536115E+02  0.37417747958E+03  0.12610582824E+04  0.13183751471E+04  0.10566000000E+00 0. -1.
         -4    1    1    2    0  502  0.23988412290E+02 -0.22091560772E+03 -0.99150361080E+02  0.24333093466E+03  0.00000000000E+00 0. -1.
</event>
<event>
 5    1  0.8445827E-005  0.1611888E+03  0.7818608E-02  0.1090573E+00
         -4   -1    0    0    0  501 -0.00000000000E+00  0.00000000000E+00  0.27408758088E+03  0.27408758088E+03  0.00000000000E+00 0. -1.
         21   -1    0    0  501  502  0.00000000000E+00 -0.00000000000E+00 -0.44588943752E+03  0.44588943752E+03  0.00000000000E+00 0. -1.
        -13    1    1    2    0    0  0.88995355227E+02  0.11049636499E+03  0.68664858570E+02  0.15762136243E+03  0.10566000000E+00 0.  1.
         13    1    1    2    0    0 -0.12794262910E+03 -0.13328403273E+03  0.10597352048E+03  0.21298907936E+03  0.10566000000E+00 0. -1.
         -4    1    1    2    0  502  0.38947273871E+02  0.22787667732E+02 -0.34644023569E+03  0.34936657660E+03  0.00000000000E+00 0. -1.
</event>
<event>
 5    1  0.8445827E-005  0.5055724E+02  0.7818608E-02  0.1289536E+00
          4   -1    0    0  502    0 -0.00000000000E+00  0.00000000000E+00  0.40404967157E+02  0.40404967157E+02  0.00000000000E+00 0.  1.
         21   -1    0    0  501  502  0.00000000000E+00 -0.00000000000E+00 -0.19809107063E+03  0.19809107063E+03  0.00000000000E+00 0. -1.
        -13    1    1    2    0    0  0.17146695784E+02  0.35670926680E+02 -0.21929597037E+02  0.45247569844E+02  0.10566000000E+00 0.  1.
         13    1    1    2    0    0 -0.17047841108E+02 -0.60124155592E+02 -0.78035126263E+01  0.62979750281E+02  0.10566000000E+00 0. -1.
          4    1    1    2  501    0 -0.98854675545E-01  0.24453228912E+02 -0.12795299381E+03  0.13026871766E+03  0.00000000000E+00 0.  1.
</event>
<event>
 5    1  0.8445827E-005  0.3255527E+03  0.7818608E-02  0.9972829E-01
          4   -1    0    0  502    0 -0.00000000000E+00  0.00000000000E+00  0.47457440575E+03  0.47457440575E+03  0.00000000000E+00 0.  1.
         21   -1    0    0  501  502  0.00000000000E+00 -0.00000000000E+00 -0.31795384873E+03  0.31795384873E+03  0.00000000000E+00 0. -1.
        -13    1    1    2    0    0 -0.21562331635E+03  0.22749949299E+03  0.17425972430E+03  0.35863058506E+03  0.10566000000E+00 0.  1.
         13    1    1    2    0    0  0.20017093702E+03 -0.28479975027E+03  0.40942432771E+02  0.35050762580E+03  0.10566000000E+00 0. -1.
          4    1    1    2  501    0  0.15452379329E+02  0.57300257277E+02 -0.58581600042E+02  0.83390043617E+02  0.00000000000E+00 0.  1.
</event>
<event>
 5    1  0.8445827E-005  0.3742400E+03  0.7818608E-02  0.9826819E-01
         21   -1    0    0  501  502  0.00000000000E+00  0.00000000000E+00  0.21584402123E+03  0.21584402123E+03  0.00000000000E+00 0.  1.
          4   -1    0    0  502    0 -0.00000000000E+00 -0.00000000000E+00 -0.27350630918E+04  0.27350630918E+04  0.00000000000E+00 0.  1.
        -13    1    1    2    0    0  0.35894590067E+03  0.40420471891E+03 -0.11105914243E+04  0.12351667649E+04  0.10566000000E+00 0.  1.
         13    1    1    2    0    0 -0.37417834457E+01 -0.34926719309E+03 -0.12912113739E+04  0.13376204231E+04  0.10566000000E+00 0. -1.
          4    1    1    2  501    0 -0.35520411722E+03 -0.54937525822E+02 -0.11741627243E+03  0.37811992498E+03  0.00000000000E+00 0.  1.
</event>
<event>
 5    1  0.8445827E-005  0.1148192E+04  0.7818608E-02  0.8646630E-01
         -4   -1    0    0    0  501 -0.00000000000E+00  0.00000000000E+00  0.29637822380E+04  0.29637822380E+04  0.00000000000E+00 0. -1.
         21   -1    0    0  501  502  0.00000000000E+00 -0.00000000000E+00 -0.59390253381E+03  0.59390253381E+03  0.00000000000E+00 0.  1.
        -13    1    1    2    0    0  0.10749238315E+04  0.28149019088E+03  0.13391344264E+04  0.17401089030E+04  0.10566000000E+00 0.  1.
         13    1    1    2    0    0 -0.10896572143E+04 -0.54831157504E+03  0.92195561311E+03  0.15290521874E+04  0.10566000000E+00 0. -1.
         -4    1    1    2    0  502  0.14733382786E+02  0.26682138416E+03  0.10878966468E+03  0.28852368145E+03  0.00000000000E+00 0. -1.
</event>
<event>
 5    1  0.8445827E-005  0.3788269E+03  0.7818608E-02  0.9792267E-01
          4   -1    0    0  502    0 -0.00000000000E+00  0.00000000000E+00  0.99410505126E+03  0.99410505126E+03  0.00000000000E+00 0.  1.
         21   -1    0    0  501  502  0.00000000000E+00 -0.00000000000E+00 -0.53485567279E+03  0.53485567279E+03  0.00000000000E+00 0.  1.
        -13    1    1    2    0    0  0.31485988710E+03  0.21805879727E+03  0.35869012485E+03  0.52473326977E+03  0.10566000000E+00 0.  1.
         13    1    1    2    0    0 -0.30136780462E+03 -0.22436280521E+03  0.48834770469E+03  0.61615315780E+03  0.10566000000E+00 0. -1.
          4    1    1    2  501    0 -0.13492082485E+02  0.63040079444E+01 -0.38778845107E+03  0.38807429648E+03  0.00000000000E+00 0.  1.
</event>
<event>
 5    1  0.8445827E-005  0.9413946E+02  0.7818608E-02  0.1174634E+00
         21   -1    0    0  501  502  0.00000000000E+00  0.00000000000E+00  0.10592062237E+03  0.10592062237E+03  0.00000000000E+00 0. -1.
         -4   -1    0    0    0  501 -0.00000000000E+00 -0.00000000000E+00 -0.13458245839E+03  0.13458245839E+03  0.00000000000E+00 0. -1.
        -13    1    1    2    0    0 -0.81910504807E+02 -0.25413850711E+02  0.91753133873E+01  0.86251910967E+02  0.10566000000E+00 0.  1.
         13    1    1    2    0    0  0.94953628126E+02  0.26789398418E+02 -0.69030888781E+02  0.12041236702E+03  0.10566000000E+00 0. -1.
         -4    1    1    2    0  502 -0.13043123320E+02 -0.13755477066E+01  0.31193739367E+02  0.33838802773E+02  0.00000000000E+00 0. -1.
</event>
<event>
 5    1  0.8445827E-005  0.1275361E+03  0.7818608E-02  0.1125651E+00
         21   -1    0    0  501  502  0.00000000000E+00  0.00000000000E+00  0.31565693919E+02  0.31565693919E+02  0.00000000000E+00 0. -1.
          4   -1    0    0  502    0 -0.00000000000E+00 -0.00000000000E+00 -0.87994057733E+03  0.87994057733E+03  0.00000000000E+00 0.  1.
        -13    1    1    2    0    0  0.43047336085E+02 -0.11995440196E+03 -0.68221970472E+03  0.69402151866E+03  0.10566000000E+00 0.  1.
         13    1    1    2    0    0 -0.32366696709E+02  0.12414784842E+03 -0.15732491540E+03  0.20300598881E+03  0.10566000000E+00 0. -1.
          4    1    1    2  501    0 -0.10680639376E+02 -0.41934464647E+01 -0.88302632899E+01  0.14478763777E+02  0.00000000000E+00 0.  1.
</event>
<event>
 5    1  0.8445827E-005  0.3885355E+03  0.7818608E-02  0.9762751E-01
         -4   -1    0    0    0  501 -0.00000000000E+00  0.00000000000E+00  0.12682999280E+04  0.12682999280E+04  0.00000000000E+00 0. -1.
         21   -1    0    0  501  502  0.00000000000E+00 -0.00000000000E+00 -0.17456849115E+03  0.17456849115E+03  0.00000000000E+00 0.  1.
        -13    1    1    2    0    0  0.31920663434E+03  0.23231931264E+03  0.89876482313E+03  0.98165337920E+03  0.10566000000E+00 0.  1.
         13    1    1    2    0    0 -0.30025502708E+03 -0.22018158686E+03  0.21596525129E+03  0.43043467961E+03  0.10566000000E+00 0. -1.
         -4    1    1    2    0  502 -0.18951607261E+02 -0.12137725779E+02 -0.20998637551E+02  0.30780360359E+02  0.00000000000E+00 0. -1.
</event>
<event>
 5    1  0.8445827E-005  0.4102913E+02  0.7818608E-02  0.1333347E+00
         21   -1    0    0  501  502  0.00000000000E+00  0.00000000000E+00  0.52280031528E+02  0.52280031528E+02  0.00000000000E+00 0.  1.
          4   -1    0    0  502    0 -0.00000000000E+00 -0.00000000000E+00 -0.68648059585E+02  0.68648059585E+02  0.00000000000E+00 0.  1.
        -13    1    1    2    0    0  0.34024620897E+02  0.31259721844E+02 -0.58129924029E+01  0.46568735023E+02  0.10566000000E+00 0.  1.
         13    1    1    2    0    0 -0.53046616403E+01 -0.41403325997E+02 -0.13217510316E+02  0.43784570133E+02  0.10566000000E+00 0. -1.
          4    1    1    2  501    0 -0.28719959257E+02  0.10143604153E+02  0.26624746620E+01  0.30574785956E+02  0.00000000000E+00 0.  1.
</event>
<event>
 5    1  0.8445827E-005  0.4144704E+03  0.7818608E-02  0.9688160E-01
         -4   -1    0    0    0  501 -0.00000000000E+00  0.00000000000E+00  0.89128152048E+03  0.89128152048E+03  0.00000000000E+00 0. -1.
         21   -1    0    0  501  502  0.00000000000E+00 -0.00000000000E+00 -0.46056540431E+03  0.46056540431E+03  0.00000000000E+00 0.  1.
        -13    1    1    2    0    0 -0.13960250637E+03  0.32539308187E+03  0.44177973568E+02  0.35682099438E+03  0.10566000000E+00 0.  1.
         13    1    1    2    0    0  0.11809110437E+03 -0.42755065473E+03  0.60659145574E+03  0.75146408872E+03  0.10566000000E+00 0. -1.
         -4    1    1    2    0  502  0.21511401999E+02  0.10215757285E+03 -0.22005331314E+03  0.24356184169E+03  0.00000000000E+00 0. -1.
</event>
<event>
 5    1  0.8445827E-005  0.5140759E+03  0.7818608E-02  0.9608268E-01
          4   -1    0    0  502    0 -0.00000000000E+00  0.00000000000E+00  0.20118707166E+04  0.20118707166E+04  0.00000000000E+00 0.  1.
         21   -1    0    0  501  502  0.00000000000E+00 -0.00000000000E+00 -0.37579028265E+03  0.37579028265E+03  0.00000000000E+00 0.  1.
        -13    1    1    2    0    0 -0.25790002832E+03  0.26877937103E+03  0.36762336018E+03  0.52335620854E+03  0.10566000000E+00 0.  1.
         13    1    1    2    0    0 -0.55568929576E+02  0.28236235219E+03  0.11913128723E+04  0.12255785470E+04  0.10566000000E+00 0. -1.
          4    1    1    2  501    0  0.31346895790E+03 -0.55114172321E+03  0.77144201439E+02  0.63872624374E+03  0.00000000000E+00 0.  1.
</event>
<event>
 5    1  0.8445827E-005  0.6056233E+03  0.7818608E-02  0.9272430E-01
         21   -1    0    0  501  502  0.00000000000E+00  0.00000000000E+00  0.84304102960E+03  0.84304102960E+03  0.00000000000E+00 0.  1.
          4   -1    0    0  502    0 -0.00000000000E+00 -0.00000000000E+00 -0.14164154744E+04  0.14164154744E+04  0.00000000000E+00 0.  1.
        -13    1    1    2    0    0 -0.45201806857E+03 -0.41340340954E+03 -0.11365330672E+04  0.12910964864E+04  0.10566000000E+00 0.  1.
         13    1    1    2    0    0  0.53726195289E+03  0.22816763551E+03  0.42562889144E+03  0.72240628480E+03  0.10566000000E+00 0. -1.
          4    1    1    2  501    0 -0.85243884321E+02  0.18523577403E+03  0.13752973091E+03  0.24595373280E+03  0.00000000000E+00 0.  1.
</event>
<event>
 5    1  0.8445827E-005  0.2324724E+03  0.7818608E-02  0.1039899E+00
         21   -1    0    0  501  502  0.00000000000E+00  0.00000000000E+00  0.69308540920E+02  0.69308540920E+02  0.00000000000E+00 0.  1.
          4   -1    0    0  502    0 -0.00000000000E+00 -0.00000000000E+00 -0.24783208431E+04  0.24783208431E+04  0.00000000000E+00 0.  1.
        -13    1    1    2    0    0  0.25268680984E+03 -0.12611349017E+03 -0.15744107517E+04  0.15995388281E+04  0.10566000000E+00 0.  1.
         13    1    1    2    0    0 -0.12790873250E+03  0.14614150050E+03 -0.79086357924E+03  0.81436060450E+03  0.10566000000E+00 0. -1.
          4    1    1    2  501    0 -0.12477807734E+03 -0.20028010328E+02 -0.43737971197E+02  0.13372995142E+03  0.00000000000E+00 0.  1.
</event>
<event>
 5    1  0.8445827E-005  0.5054945E+03  0.7818608E-02  0.9510766E-01
         21   -1    0    0  501  502  0.00000000000E+00  0.00000000000E+00  0.40145075249E+03  0.40145075249E+03  0.00000000000E+00 0. -1.
         -4   -1    0    0    0  501 -0.00000000000E+00 -0.00000000000E+00 -0.24029832950E+04  0.24029832950E+04  0.00000000000E+00 0. -1.
        -13    1    1    2    0    0  0.35647797560E+03 -0.23949946361E+03 -0.15635137116E+04  0.16214227325E+04  0.10566000000E+00 0.  1.
         13    1    1    2    0    0  0.33157586396E+02  0.57762529263E+03 -0.17827019287E+03  0.60541777068E+03  0.10566000000E+00 0. -1.
         -4    1    1    2    0  502 -0.38963556199E+03 -0.33812582903E+03 -0.25974863809E+03  0.57759354430E+03  0.00000000000E+00 0. -1.
</event>
<event>
 5    1  0.8445827E-005  0.4952523E+03  0.7818608E-02  0.9554694E-01
         -4   -1    0    0    0  501 -0.00000000000E+00  0.00000000000E+00  0.52492594944E+03  0.52492594944E+03  0.00000000000E+00 0. -1.
         21   -1    0    0  501  502  0.00000000000E+00 -0.00000000000E+00 -0.15298293830E+04  0.15298293830E+04  0.00000000000E+00 0. -1.
        -13    1    1    2    0    0 -0.55714596327E+03  0.35770503601E+02 -0.58838983600E+02  0.56138506435E+03  0.10566000000E+00 0.  1.
         13    1    1    2    0    0 -0.22449680279E+03 -0.25352270782E+03 -0.34638315532E+03  0.48441085794E+03  0.10566000000E+00 0. -1.
         -4    1    1    2    0  502  0.78164276606E+03  0.21775220422E+03 -0.59968129462E+03  0.10089594101E+04  0.00000000000E+00 0. -1.
</event>
<event>
 5    1  0.8445827E-005  0.1686211E+03  0.7818608E-02  0.1084071E+00
          4   -1    0    0  502    0 -0.00000000000E+00  0.00000000000E+00  0.37024115042E+02  0.37024115042E+02  0.00000000000E+00 0.  1.
         21   -1    0    0  501  502  0.00000000000E+00 -0.00000000000E+00 -0.17281736492E+04  0.17281736492E+04  0.00000000000E+00 0.  1.
        -13    1    1    2    0    0 -0.16760295337E+02 -0.17427356843E+03 -0.29180031943E+03  0.34029343476E+03  0.10566000000E+00 0.  1.
         13    1    1    2    0    0  0.24497818074E+02  0.15675327476E+03 -0.48371224625E+03  0.50906706884E+03  0.10566000000E+00 0. -1.
          4    1    1    2  501    0 -0.77375227367E+01  0.17520293675E+02 -0.91563696850E+03  0.91583726067E+03  0.00000000000E+00 0.  1.
</event>
<event>
 5    1  0.8445827E-005  0.4753494E+03  0.7818608E-02  0.9647670E-01
         -4   -1    0    0    0  501 -0.00000000000E+00  0.00000000000E+00  0.16460517837E+04  0.16460517837E+04  0.00000000000E+00 0. -1.
         21   -1    0    0  501  502  0.00000000000E+00 -0.00000000000E+00 -0.56543131584E+03  0.56543131584E+03  0.00000000000E+00 0. -1.
        -13    1    1    2    0    0 -0.14846155755E+03 -0.27969717923E+03  0.11187858383E+04  0.11627351845E+04  0.10566000000E+00 0.  1.
         13    1    1    2    0    0 -0.26603803548E+03  0.48963516487E+03  0.95284891932E+02  0.56533003882E+03  0.10566000000E+00 0. -1.
         -4    1    1    2    0  502  0.41449959303E+03 -0.20993798564E+03 -0.13345026243E+03  0.48341787615E+03  0.00000000000E+00 0. -1.
</event>
<event>
 5    1  0.8445827E-005  0.4754044E+03  0.7818608E-02  0.9644862E-01
         21   -1    0    0  501  502  0.00000000000E+00  0.00000000000E+00  0.81143902308E+03  0.81143902308E+03  0.00000000000E+00 0. -1.
         -4   -1    0    0    0  501 -0.00000000000E+00 -0.00000000000E+00 -0.12920354422E+04  0.12920354422E+04  0.00000000000E+00 0. -1.
        -13    1    1    2    0    0  0.31745529526E+03 -0.37760344401E+02 -0.88053468597E+03  0.93677374668E+03  0.10566000000E+00 0.  1.
         13    1    1    2    0    0  0.33285464431E+02 -0.44770716663E+03  0.34321405537E+03  0.56510665202E+03  0.10566000000E+00 0. -1.
         -4    1    1    2    0  502 -0.35074075969E+03  0.48546751103E+03  0.56724211497E+02  0.60159406658E+03  0.00000000000E+00 0. -1.
</event>
<event>
 5    1  0.8445827E-005  0.4936934E+03  0.7818608E-02  0.9657739E-01
         21   -1    0    0  501  502  0.00000000000E+00  0.00000000000E+00  0.10810987904E+04  0.10810987904E+04  0.00000000000E+00 0.  1.
          4   -1    0    0  502    0 -0.00000000000E+00 -0.00000000000E+00 -0.53803536389E+03  0.53803536389E+03  0.00000000000E+00 0.  1.
        -13    1    1    2    0    0 -0.43822776691E+03 -0.28959896398E+02  0.30934011334E+03  0.53719043940E+03  0.10566000000E+00 0.  1.
         13    1    1    2    0    0 -0.80130539711E+02 -0.26078457545E+03 -0.20697334162E+03  0.34244338728E+03  0.10566000000E+00 0. -1.
          4    1    1    2  501    0  0.51835830663E+03  0.28974447184E+03  0.44069665483E+03  0.73950032765E+03  0.00000000000E+00 0.  1.
</event>
<event>
 5    1  0.8445827E-005  0.3849481E+03  0.7818608E-02  0.1016883E+00
          4   -1    0    0  502    0 -0.00000000000E+00  0.00000000000E+00  0.26409556088E+04  0.26409556088E+04  0.00000000000E+00 0.  1.
         21   -1    0    0  501  502  0.00000000000E+00 -0.00000000000E+00 -0.80713647555E+02  0.80713647555E+02  0.00000000000E+00 0.  1.
        -13    1    1    2    0    0 -0.29704464984E+03  0.32053397861E+03  0.15268311930E+04  0.15881407552E+04  0.10566000000E+00 0.  1.
         13    1    1    2    0    0  0.91395387952E+01 -0.10410917565E+03  0.26612229800E+03  0.28590792273E+03  0.10566000000E+00 0. -1.
          4    1    1    2  501    0  0.28790511104E+03 -0.21642480296E+03  0.76728847032E+03  0.84762057843E+03  0.00000000000E+00 0.  1.
</event>
<event>
 5    1  0.8445827E-005  0.7694628E+03  0.7818608E-02  0.9027877E-01
         21   -1    0    0  501  502  0.00000000000E+00  0.00000000000E+00  0.36898361339E+03  0.36898361339E+03  0.00000000000E+00 0.  1.
         -4   -1    0    0    0  501 -0.00000000000E+00 -0.00000000000E+00 -0.23686874566E+04  0.23686874566E+04  0.00000000000E+00 0. -1.
        -13    1    1    2    0    0 -0.61607181478E+03  0.20700184681E+03 -0.44662415249E+03  0.78858568989E+03  0.10566000000E+00 0.  1.
         13    1    1    2    0    0  0.73488514620E+03 -0.47440255532E+03 -0.12690240284E+04  0.15412773788E+04  0.10566000000E+00 0. -1.
         -4    1    1    2    0  502 -0.11881333142E+03  0.26740070850E+03 -0.28405566235E+03  0.40780800132E+03  0.00000000000E+00 0. -1.
</event>
<event>
 5    1  0.8445827E-005  0.3134423E+03  0.7818608E-02  0.1001906E+00
          4   -1    0    0  502    0 -0.00000000000E+00  0.00000000000E+00  0.41927431242E+03  0.41927431242E+03  0.00000000000E+00 0.  1.
         21   -1    0    0  501  502  0.00000000000E+00 -0.00000000000E+00 -0.39169419390E+03  0.39169419390E+03  0.00000000000E+00 0. -1.
        -13    1    1    2    0    0  0.17405883808E+03  0.27734573163E+03  0.44353545485E+02  0.33043060108E+03  0.10566000000E+00 0.  1.
         13    1    1    2    0    0 -0.19183892367E+03 -0.23644777579E+03  0.12707444964E+03  0.32993582744E+03  0.10566000000E+00 0. -1.
          4    1    1    2  501    0  0.17780085588E+02 -0.40897955840E+02 -0.14384787661E+03  0.15060207781E+03  0.00000000000E+00 0.  1.
</event>
<event>
 5    1  0.8445827E-005  0.2286690E+03  0.7818608E-02  0.1042081E+00
         21   -1    0    0  501  502  0.00000000000E+00  0.00000000000E+00  0.26085431747E+03  0.26085431747E+03  0.00000000000E+00 0.  1.
          4   -1    0    0  502    0 -0.00000000000E+00 -0.00000000000E+00 -0.18788214993E+04  0.18788214993E+04  0.00000000000E+00 0.  1.
        -13    1    1    2    0    0  0.21377051074E+03 -0.42330002313E+02 -0.11042312176E+04  0.11255293215E+04  0.10566000000E+00 0.  1.
         13    1    1    2    0    0 -0.26686025951E+03 -0.97960341040E+02 -0.71135196219E+03  0.76604977110E+03  0.10566000000E+00 0. -1.
          4    1    1    2  501    0  0.53089748775E+02  0.14029034335E+03  0.19761599803E+03  0.24809672416E+03  0.00000000000E+00 0.  1.
</event>
<event>
 5    1  0.8445827E-005  0.1555251E+03  0.7818608E-02  0.1095787E+00
          4   -1    0    0  502    0 -0.00000000000E+00  0.00000000000E+00  0.41761527512E+02  0.41761527512E+02  0.00000000000E+00 0.  1.
         21   -1    0    0  501  502  0.00000000000E+00 -0.00000000000E+00 -0.71025414718E+03  0.71025414718E+03  0.00000000000E+00 0. -1.
        -13    1    1    2    0    0  0.15638149144E+03  0.61552781365E+02 -0.38410703231E+03  0.41926380620E+03  0.10566000000E+00 0.  1.
         13    1    1    2    0    0 -0.13876717697E+03 -0.47608680738E+02 -0.26578147745E+03  0.30358313656E+03  0.10566000000E+00 0. -1.
          4    1    1    2  501    0 -0.17614314471E+02 -0.13944100628E+02 -0.18604109907E+02  0.29168731924E+02  0.00000000000E+00 0.  1.
</event>
<event>
 5    1  0.8445827E-005  0.7498615E+03  0.7818608E-02  0.9053624E-01
         -4   -1    0    0    0  501 -0.00000000000E+00  0.00000000000E+00  0.11687472702E+04  0.11687472702E+04  0.00000000000E+00 0. -1.
         21   -1    0    0  501  502  0.00000000000E+00 -0.00000000000E+00 -0.80888644407E+03  0.80888644407E+03  0.00000000000E+00 0.  1.
        -13    1    1    2    0    0  0.64169121359E+02 -0.70515655574E+03  0.23079109447E+03  0.74473349911E+03  0.10566000000E+00 0.  1.
         13    1    1    2    0    0 -0.18264635398E+03  0.77032733371E+03  0.43148333933E+03  0.90163283822E+03  0.10566000000E+00 0. -1.
         -4    1    1    2    0  502  0.11847723262E+03 -0.65170777964E+02 -0.30241360764E+03  0.33126737696E+03  0.00000000000E+00 0. -1.
</event>
<event>
 5    1  0.8445827E-005  0.6777343E+02  0.7818608E-02  0.1262479E+00
         21   -1    0    0  501  502  0.00000000000E+00  0.00000000000E+00  0.24087245377E+03  0.24087245377E+03  0.00000000000E+00 0.  1.
         -4   -1    0    0    0  501 -0.00000000000E+00 -0.00000000000E+00 -0.86353149072E+02  0.86353149072E+02  0.00000000000E+00 0. -1.
        -13    1    1    2    0    0  0.92675099785E+02  0.71144011719E+02  0.67504665123E+02  0.13493344841E+03  0.10566000000E+00 0.  1.
         13    1    1    2    0    0 -0.39601814079E+01 -0.44083719109E+02 -0.21778088037E+02  0.49329034147E+02  0.10566000000E+00 0. -1.
         -4    1    1    2    0  502 -0.88714918377E+02 -0.27060292610E+02  0.10879272761E+03  0.14296312028E+03  0.00000000000E+00 0. -1.
</event>
<event>
 5    1  0.8445827E-005  0.4355943E+03  0.7818608E-02  0.9834123E-01
          4   -1    0    0  502    0 -0.00000000000E+00  0.00000000000E+00  0.37965380793E+04  0.37965380793E+04  0.00000000000E+00 0.  1.
         21   -1    0    0  501  502  0.00000000000E+00 -0.00000000000E+00 -0.86952674030E+02  0.86952674030E+02  0.00000000000E+00 0.  1.
        -13    1    1    2    0    0 -0.15294147089E+03 -0.35168933478E+03  0.14148813977E+04  0.14659351495E+04  0.10566000000E+00 0.  1.
         13    1    1    2    0    0  0.16039966484E+03 -0.14479110461E+03  0.11449897027E+04  0.11652012474E+04  0.10566000000E+00 0. -1.
          4    1    1    2  501    0 -0.74581939526E+01  0.49648043939E+03  0.11497143048E+04  0.12523543564E+04  0.00000000000E+00 0.  1.
</event>
<event>
 5    1  0.8445827E-005  0.3041474E+03  0.7818608E-02  0.1006996E+00
         21   -1    0    0  501  502  0.00000000000E+00  0.00000000000E+00  0.69856341692E+03  0.69856341692E+03  0.00000000000E+00 0. -1.
         -4   -1    0    0    0  501 -0.00000000000E+00 -0.00000000000E+00 -0.16374305667E+04  0.16374305667E+04  0.00000000000E+00 0. -1.
        -13    1    1    2    0    0 -0.97473811828E+02  0.27396610096E+03 -0.12246023754E+04  0.12586538672E+04  0.10566000000E+00 0.  1.
         13    1    1    2    0    0 -0.19076417198E+03 -0.12242643079E+03 -0.31850931132E+03  0.39093144262E+03  0.10566000000E+00 0. -1.
         -4    1    1    2    0  502  0.28823798381E+03 -0.15153967017E+03  0.60424453697E+03  0.68640867375E+03  0.00000000000E+00 0. -1.
</event>
<event>
 5    1  0.8445827E-005  0.7002693E+02  0.7818608E-02  0.1226657E+00
          4   -1    0    0  502    0 -0.00000000000E+00  0.00000000000E+00  0.54746721987E+02  0.54746721987E+02  0.00000000000E+00 0.  1.
         21   -1    0    0  501  502  0.00000000000E+00 -0.00000000000E+00 -0.19817012064E+03  0.19817012064E+03  0.00000000000E+00 0.  1.
        -13    1    1    2    0    0 -0.83707920583E+02 -0.59671262176E+01 -0.40713185071E+02  0.93274847447E+02  0.10566000000E+00 0.  1.
         13    1    1    2    0    0  0.61727790526E+02 -0.13721232206E+02 -0.12144455006E+02  0.64390148997E+02  0.10566000000E+00 0. -1.
          4    1    1    2  501    0  0.21980130058E+02  0.19688358424E+02 -0.90565758576E+02  0.95251846183E+02  0.00000000000E+00 0.  1.
</event>
<event>
 5    1  0.8445827E-005  0.4979676E+03  0.7818608E-02  0.9482438E-01
         21   -1    0    0  501  502  0.00000000000E+00  0.00000000000E+00  0.49061353543E+03  0.49061353543E+03  0.00000000000E+00 0. -1.
          4   -1    0    0  502    0 -0.00000000000E+00 -0.00000000000E+00 -0.16607698891E+04  0.16607698891E+04  0.00000000000E+00 0.  1.
        -13    1    1    2    0    0 -0.55769058653E+03 -0.18411548470E+03  0.16256117164E+02  0.58752155239E+03  0.10566000000E+00 0.  1.
         13    1    1    2    0    0  0.18638701158E+03  0.48499768035E+03 -0.77616614758E+03  0.93402182407E+03  0.10566000000E+00 0. -1.
          4    1    1    2  501    0  0.37130357495E+03 -0.30088219564E+03 -0.41024632330E+03  0.62984004811E+03  0.00000000000E+00 0.  1.
</event>
<event>
 5    1  0.8445827E-005  0.1118198E+03  0.7818608E-02  0.1146355E+00
         -4   -1    0    0    0  501 -0.00000000000E+00  0.00000000000E+00  0.16628457538E+03  0.16628457538E+03  0.00000000000E+00 0. -1.
         21   -1    0    0  501  502  0.00000000000E+00 -0.00000000000E+00 -0.20666468621E+03  0.20666468621E+03  0.00000000000E+00 0.  1.
        -13    1    1    2    0    0 -0.31680842420E+02 -0.11031389484E+03 -0.81422044112E+02  0.14072097073E+03  0.10566000000E+00 0.  1.
         13    1    1    2    0    0  0.41001763588E+02  0.10348035681E+03  0.11343173436E+03  0.15892167375E+03  0.10566000000E+00 0. -1.
         -4    1    1    2    0  502 -0.93209211683E+01  0.68335380275E+01 -0.72389801068E+02  0.73306617110E+02  0.00000000000E+00 0. -1.
</event>
<event>
 5    1  0.8445827E-005  0.1025162E+03  0.7818608E-02  0.1160458E+00
         -4   -1    0    0    0  501 -0.00000000000E+00  0.00000000000E+00  0.31449966478E+03  0.31449966478E+03  0.00000000000E+00 0. -1.
         21   -1    0    0  501  502  0.00000000000E+00 -0.00000000000E+00 -0.30713543937E+03  0.30713543937E+03  0.00000000000E+00 0. -1.
        -13    1    1    2    0    0 -0.68012293084E+02 -0.78516574510E+02 -0.19310460170E+02  0.10565713189E+03  0.10566000000E+00 0.  1.
         13    1    1    2    0    0  0.56339654591E+02  0.85538116818E+02  0.26145552953E+03  0.28080229912E+03  0.10566000000E+00 0. -1.
         -4    1    1    2    0  502  0.11672638493E+02 -0.70215423081E+01 -0.23478084395E+03  0.23517567313E+03  0.00000000000E+00 0. -1.
</event>
<event>
 5    1  0.8445827E-005  0.2837412E+03  0.7818608E-02  0.1014252E+00
         -4   -1    0    0    0  501 -0.00000000000E+00  0.00000000000E+00  0.16067693132E+04  0.16067693132E+04  0.00000000000E+00 0. -1.
         21   -1    0    0  501  502  0.00000000000E+00 -0.00000000000E+00 -0.10691369769E+04  0.10691369769E+04  0.00000000000E+00 0. -1.
        -13    1    1    2    0    0  0.33750787668E+02 -0.33879673865E+03  0.12139968821E+04  0.12608373356E+04  0.10566000000E+00 0.  1.
         13    1    1    2    0    0  0.11118496456E+02  0.21099674682E+03  0.33424253444E+03  0.39542550641E+03  0.10566000000E+00 0. -1.
         -4    1    1    2    0  502 -0.44869284124E+02  0.12779999183E+03 -0.10106070802E+04  0.10196434481E+04  0.00000000000E+00 0. -1.
</event>
<event>
 5    1  0.8445827E-005  0.4737770E+03  0.7818608E-02  0.9799716E-01
         -4   -1    0    0    0  501 -0.00000000000E+00  0.00000000000E+00  0.14684509986E+04  0.14684509986E+04  0.00000000000E+00 0. -1.
         21   -1    0    0  501  502  0.00000000000E+00 -0.00000000000E+00 -0.24442679486E+03  0.24442679486E+03  0.00000000000E+00 0. -1.
        -13    1    1    2    0    0  0.11655387273E+03 -0.14852083089E+03  0.29798377818E+03  0.35275711996E+03  0.10566000000E+00 0.  1.
         13    1    1    2    0    0  0.13564788748E+03  0.51817216080E+03  0.61276974905E+03  0.81387315604E+03  0.10566000000E+00 0. -1.
         -4    1    1    2    0  502 -0.25220176021E+03 -0.36965132992E+03  0.31327067650E+03  0.54624751745E+03  0.00000000000E+00 0. -1.
</event>
<event>
 5    1  0.8445827E-005  0.3302581E+03  0.7818608E-02  0.1018191E+00
          4   -1    0    0  502    0 -0.00000000000E+00  0.00000000000E+00  0.68334293842E+03  0.68334293842E+03  0.00000000000E+00 0.  1.
         21   -1    0    0  501  502  0.00000000000E+00 -0.00000000000E+00 -0.50793078770E+03  0.50793078770E+03  0.00000000000E+00 0. -1.
        -13    1    1    2    0    0  0.52614349851E+02 -0.42033480929E+03  0.44191394458E+03  0.61215812279E+03  0.10566000000E+00 0.  1.
         13    1    1    2    0    0  0.87236714409E+02  0.13267223962E+03  0.60322071352E+01  0.15889797417E+03  0.10566000000E+00 0. -1.
          4    1    1    2  501    0 -0.13985106426E+03  0.28766256967E+03 -0.27253400100E+03  0.42021762917E+03  0.00000000000E+00 0.  1.
</event>
<event>
 5    1  0.8445827E-005  0.1545443E+03  0.7818608E-02  0.1098777E+00
          4   -1    0    0  502    0 -0.00000000000E+00  0.00000000000E+00  0.98047443077E+03  0.98047443077E+03  0.00000000000E+00 0.  1.
         21   -1    0    0  501  502  0.00000000000E+00 -0.00000000000E+00 -0.35971102242E+03  0.35971102242E+03  0.00000000000E+00 0.  1.
        -13    1    1    2    0    0  0.13261163988E+03  0.58306688205E+02  0.74362713259E+03  0.75760599285E+03  0.10566000000E+00 0.  1.
         13    1    1    2    0    0 -0.31086082088E+01 -0.14607667436E+03  0.18589869396E+03  0.23644532945E+03  0.10566000000E+00 0. -1.
          4    1    1    2  501    0 -0.12950303167E+03  0.87769986158E+02 -0.30876241820E+03  0.34613413090E+03  0.00000000000E+00 0.  1.
</event>
<event>
 5    1  0.8445827E-005  0.4324347E+03  0.7818608E-02  0.1005235E+00
         21   -1    0    0  501  502  0.00000000000E+00  0.00000000000E+00  0.11951130455E+04  0.11951130455E+04  0.00000000000E+00 0.  1.
          4   -1    0    0  502    0 -0.00000000000E+00 -0.00000000000E+00 -0.26902294198E+03  0.26902294198E+03  0.00000000000E+00 0.  1.
        -13    1    1    2    0    0  0.81204575656E+02  0.42464166215E+03  0.78372882780E+03  0.89506737793E+03  0.10566000000E+00 0.  1.
         13    1    1    2    0    0 -0.10571694389E+03  0.17214884565E+02  0.12284614223E+02  0.10781162918E+03  0.10566000000E+00 0. -1.
          4    1    1    2  501    0  0.24512368232E+02 -0.44185654672E+03  0.13007666148E+03  0.46125698036E+03  0.00000000000E+00 0.  1.
</event>
<event>
 5    1  0.8445827E-005  0.4388843E+03  0.7818608E-02  0.1003765E+00
         21   -1    0    0  501  502  0.00000000000E+00  0.00000000000E+00  0.48935063974E+03  0.48935063974E+03  0.00000000000E+00 0.  1.
          4   -1    0    0  502    0 -0.00000000000E+00 -0.00000000000E+00 -0.64684632345E+03  0.64684632345E+03  0.00000000000E+00 0.  1.
        -13    1    1    2    0    0 -0.30657300005E+03  0.19328666130E+03 -0.37517802800E+03  0.52163713600E+03  0.10566000000E+00 0.  1.
         13    1    1    2    0    0 -0.67990258189E+02  0.83226185278E+02  0.22876520299E+02  0.10987547256E+03  0.10566000000E+00 0. -1.
          4    1    1    2  501    0  0.37456325824E+03 -0.27651284658E+03  0.19480582398E+03  0.50468435463E+03  0.00000000000E+00 0.  1.
</event>
<event>
 5    1  0.8445827E-005  0.4856871E+03  0.7818608E-02  0.9509907E-01
          4   -1    0    0  502    0 -0.00000000000E+00  0.00000000000E+00  0.32552649793E+04  0.32552649793E+04  0.00000000000E+00 0.  1.
         21   -1    0    0  501  502  0.00000000000E+00 -0.00000000000E+00 -0.30781893783E+03  0.30781893783E+03  0.00000000000E+00 0.  1.
        -13    1    1    2    0    0  0.49321508646E+03  0.38775485683E+03  0.84312194284E+03  0.10509374730E+04  0.10566000000E+00 0.  1.
         13    1    1    2    0    0 -0.26082721539E+03 -0.37701441783E+03  0.22097014623E+04  0.22567568037E+04  0.10566000000E+00 0. -1.
          4    1    1    2  501    0 -0.23238787107E+03 -0.10740438999E+02 -0.10537736366E+03  0.25538964040E+03  0.00000000000E+00 0.  1.
</event>
<event>
 5    1  0.8445827E-005  0.3464669E+02  0.7818608E-02  0.1371064E+00
         21   -1    0    0  501  502  0.00000000000E+00  0.00000000000E+00  0.33746510208E+03  0.33746510208E+03  0.00000000000E+00 0. -1.
         -4   -1    0    0    0  501 -0.00000000000E+00 -0.00000000000E+00 -0.72336416129E+02  0.72336416129E+02  0.00000000000E+00 0. -1.
        -13    1    1    2    0    0  0.35733691854E+02 -0.35171071783E+02  0.11533649272E+03  0.12576334418E+03  0.10566000000E+00 0.  1.
         13    1    1    2    0    0 -0.46399726744E+01  0.34127261760E+02 -0.61489528425E+02  0.70478171171E+02  0.10566000000E+00 0. -1.
         -4    1    1    2    0  502 -0.31093719180E+02  0.10438100229E+01  0.21128172166E+03  0.21356000286E+03  0.00000000000E+00 0. -1.
</event>
<event>
 5    1  0.8445827E-005  0.5030176E+03  0.7818608E-02  0.9471382E-01
         21   -1    0    0  501  502  0.00000000000E+00  0.00000000000E+00  0.20883526392E+03  0.20883526392E+03  0.00000000000E+00 0.  1.
          4   -1    0    0  502    0 -0.00000000000E+00 -0.00000000000E+00 -0.31669720516E+04  0.31669720516E+04  0.00000000000E+00 0.  1.
        -13    1    1    2    0    0 -0.55718990208E+03 -0.22425918204E+03 -0.15572755287E+04  0.16690895276E+04  0.10566000000E+00 0.  1.
         13    1    1    2    0    0  0.34080515952E+03  0.29790965227E+03 -0.14070392997E+04  0.14780588350E+04  0.10566000000E+00 0. -1.
          4    1    1    2  501    0  0.21638474256E+03 -0.73650470231E+02  0.61780406749E+01  0.22865895295E+03  0.00000000000E+00 0.  1.
</event>
<event>
 5    1  0.8445827E-005  0.1051649E+03  0.7818608E-02  0.1156282E+00
          4   -1    0    0  502    0 -0.00000000000E+00  0.00000000000E+00  0.44185876419E+03  0.44185876419E+03  0.00000000000E+00 0.  1.
         21   -1    0    0  501  502  0.00000000000E+00 -0.00000000000E+00 -0.19775982004E+03  0.19775982004E+03  0.00000000000E+00 0.  1.
        -13    1    1    2    0    0  0.70869998432E+02 -0.89061945377E+02  0.13155717884E+03  0.17395944717E+03  0.10566000000E+00 0.  1.
         13    1    1    2    0    0 -0.50510745843E+02  0.88475566349E+02  0.27948677235E+03  0.29747626522E+03  0.10566000000E+00 0. -1.
          4    1    1    2  501    0 -0.20359252589E+02  0.58637902800E+00 -0.16694500704E+03  0.16818287185E+03  0.00000000000E+00 0.  1.
</event>
<event>
 5    1  0.8445827E-005  0.1027171E+03  0.7818608E-02  0.1160137E+00
         21   -1    0    0  501  502  0.00000000000E+00  0.00000000000E+00  0.11461029819E+04  0.11461029819E+04  0.00000000000E+00 0.  1.
         -4   -1    0    0    0  501 -0.00000000000E+00 -0.00000000000E+00 -0.14999231349E+02  0.14999231349E+02  0.00000000000E+00 0. -1.
        -13    1    1    2    0    0 -0.83807748379E+02 -0.53839667325E+02  0.23212243226E+03  0.25259311786E+03  0.10566000000E+00 0.  1.
         13    1    1    2    0    0  0.95891624842E+02  0.56752148972E+02  0.67098176960E+03  0.68017097588E+03  0.10566000000E+00 0. -1.
         -4    1    1    2    0  502 -0.12083876463E+02 -0.29124816474E+01  0.22799954870E+03  0.22833811952E+03  0.00000000000E+00 0. -1.
</event>
<event>
 5    1  0.8445827E-005  0.2615036E+03  0.7818608E-02  0.1024598E+00
         21   -1    0    0  501  502  0.00000000000E+00  0.00000000000E+00  0.27441852995E+03  0.27441852995E+03  0.00000000000E+00 0. -1.
         -4   -1    0    0    0  501 -0.00000000000E+00 -0.00000000000E+00 -0.14493952797E+04  0.14493952797E+04  0.00000000000E+00 0. -1.
        -13    1    1    2    0    0 -0.66467916755E+02 -0.22560225534E+03 -0.27740538287E+03  0.36368684219E+03  0.10566000000E+00 0.  1.
         13    1    1    2    0    0  0.10615309136E+03  0.25038490034E+03 -0.11098852672E+04  0.11427188607E+04  0.10566000000E+00 0. -1.
         -4    1    1    2    0  502 -0.39685174606E+02 -0.24782645003E+02  0.21231390036E+03  0.21740810671E+03  0.00000000000E+00 0. -1.
</event>
<event>
 5    1  0.8445827E-005  0.7895897E+03  0.7818608E-02  0.9002263E-01
         21   -1    0    0  501  502  0.00000000000E+00  0.00000000000E+00  0.76946962709E+03  0.76946962709E+03  0.00000000000E+00 0.  1.
         -4   -1    0    0    0  501 -0.00000000000E+00 -0.00000000000E+00 -0.12199702270E+04  0.12199702270E+04  0.00000000000E+00 0. -1.
        -13    1    1    2    0    0  0.71455907100E+02  0.70633765257E+03 -0.25221800037E+02  0.71039072098E+03  0.10566000000E+00 0.  1.
         13    1    1    2    0    0 -0.14468829828E+03 -0.82724429781E+03 -0.61611056299E+03  0.10415661616E+04  0.10566000000E+00 0. -1.
         -4    1    1    2    0  502  0.73232391182E+02  0.12090664524E+03  0.19083176309E+03  0.23748297157E+03  0.00000000000E+00 0. -1.
</event>
<event>
 5    1  0.8445827E-005  0.2153990E+03  0.7818608E-02  0.1050063E+00
         -4   -1    0    0    0  501 -0.00000000000E+00  0.00000000000E+00  0.19141229149E+03  0.19141229149E+03  0.00000000000E+00 0. -1.
         21   -1    0    0  501  502  0.00000000000E+00 -0.00000000000E+00 -0.75360495920E+03  0.75360495920E+03  0.00000000000E+00 0.  1.
        -13    1    1    2    0    0 -0.21607087704E+03 -0.30243574415E+02 -0.63370677297E+03  0.67021308773E+03  0.10566000000E+00 0.  1.
         13    1    1    2    0    0  0.20752364144E+03  0.57268667078E+02  0.97518612357E+02  0.23633800563E+03  0.10566000000E+00 0. -1.
         -4    1    1    2    0  502  0.85472355942E+01 -0.27025092663E+02 -0.26004507091E+02  0.38466157318E+02  0.00000000000E+00 0. -1.
</event>
<event>
 5    1  0.8445827E-005  0.2486031E+02  0.7818608E-02  0.1451675E+00
         -4   -1    0    0    0  501 -0.00000000000E+00  0.00000000000E+00  0.80034419035E+02  0.80034419035E+02  0.00000000000E+00 0. -1.
         21   -1    0    0  501  502  0.00000000000E+00 -0.00000000000E+00 -0.10156003134E+03  0.10156003134E+03  0.00000000000E+00 0.  1.
        -13    1    1    2    0    0  0.22571741999E+02 -0.20051042826E+01 -0.87874107019E+02  0.90748960482E+02  0.10566000000E+00 0.  1.
         13    1    1    2    0    0 -0.21330780240E+02  0.12968336067E+02  0.73549275358E+02  0.77670373990E+02  0.10566000000E+00 0. -1.
         -4    1    1    2    0  502 -0.12409617590E+01 -0.10963231784E+02 -0.72007806474E+01  0.13175115907E+02  0.00000000000E+00 0. -1.
</event>
<event>
 5    1  0.8445827E-005  0.3396218E+03  0.7818608E-02  0.9921750E-01
         21   -1    0    0  501  502  0.00000000000E+00  0.00000000000E+00  0.10715767225E+03  0.10715767225E+03  0.00000000000E+00 0. -1.
          4   -1    0    0  502    0 -0.00000000000E+00 -0.00000000000E+00 -0.22273129762E+04  0.22273129762E+04  0.00000000000E+00 0.  1.
        -13    1    1    2    0    0 -0.32073716869E+03 -0.96114046817E+02 -0.80789698850E+03  0.87453290193E+03  0.10566000000E+00 0.  1.
         13    1    1    2    0    0  0.32340260151E+03  0.11373739637E+03 -0.13633683873E+04  0.14058089517E+04  0.10566000000E+00 0. -1.
          4    1    1    2  501    0 -0.26654328136E+01 -0.17623349556E+02  0.51110071868E+02  0.54128794814E+02  0.00000000000E+00 0.  1.
</event>
<event>
 5    1  0.8445827E-005  0.3104691E+02  0.7818608E-02  0.1451901E+00
          4   -1    0    0  502    0 -0.00000000000E+00  0.00000000000E+00  0.12205227014E+02  0.12205227014E+02  0.00000000000E+00 0.  1.
         21   -1    0    0  501  502  0.00000000000E+00 -0.00000000000E+00 -0.17890585923E+03  0.17890585923E+03  0.00000000000E+00 0.  1.
        -13    1    1    2    0    0 -0.75838117628E+00 -0.38998625123E+02 -0.33536382839E+02  0.51440917968E+02  0.10566000000E+00 0.  1.
         13    1    1    2    0    0 -0.66303911666E+01  0.10853341998E+02 -0.48721561418E+02  0.50354332789E+02  0.10566000000E+00 0. -1.
          4    1    1    2  501    0  0.73887723429E+01  0.28145283125E+02 -0.84442687956E+02  0.89315835483E+02  0.00000000000E+00 0.  1.
</event>
<event>
 5    1  0.8445827E-005  0.1050341E+03  0.7818608E-02  0.1156485E+00
         21   -1    0    0  501  502  0.00000000000E+00  0.00000000000E+00  0.33929405894E+03  0.33929405894E+03  0.00000000000E+00 0. -1.
          4   -1    0    0  502    0 -0.00000000000E+00 -0.00000000000E+00 -0.42333529667E+02  0.42333529667E+02  0.00000000000E+00 0.  1.
        -13    1    1    2    0    0  0.62439292897E+02  0.88099713366E+02  0.92094001653E+02  0.14192089732E+03  0.10566000000E+00 0.  1.
         13    1    1    2    0    0 -0.40770380512E+02 -0.93386181344E+02  0.16194628665E+03  0.19133691153E+03  0.10566000000E+00 0. -1.
          4    1    1    2  501    0 -0.21668912385E+02  0.52864679774E+01  0.42920240970E+02  0.48369779745E+02  0.00000000000E+00 0.  1.
</event>
<event>
 5    1  0.8445827E-005  0.9861664E+02  0.7818608E-02  0.1204243E+00
         21   -1    0    0  501  502  0.00000000000E+00  0.00000000000E+00  0.12084648649E+04  0.12084648649E+04  0.00000000000E+00 0.  1.
          4   -1    0    0  502    0 -0.00000000000E+00 -0.00000000000E+00 -0.81885575911E+02  0.81885575911E+02  0.00000000000E+00 0.  1.
        -13    1    1    2    0    0  0.18804582863E+02 -0.31857251627E+02 -0.32937972582E+02  0.49531989862E+02  0.10566000000E+00 0.  1.
         13    1    1    2    0    0 -0.11719141069E+03  0.25128611006E+02  0.54939199378E+02  0.13184688325E+03  0.10566000000E+00 0. -1.
          4    1    1    2  501    0  0.98386827823E+02  0.67286406211E+01  0.11045780622E+04  0.11089715677E+04  0.00000000000E+00 0.  1.
</event>
<event>
 5    1  0.8445827E-005  0.1625737E+03  0.7818608E-02  0.1089333E+00
         21   -1    0    0  501  502  0.00000000000E+00  0.00000000000E+00  0.39207272432E+03  0.39207272432E+03  0.00000000000E+00 0.  1.
         -4   -1    0    0    0  501 -0.00000000000E+00 -0.00000000000E+00 -0.35144413905E+03  0.35144413905E+03  0.00000000000E+00 0. -1.
        -13    1    1    2    0    0  0.14063220706E+03  0.86750681932E+02  0.27618259334E+03  0.32183836706E+03  0.10566000000E+00 0.  1.
         13    1    1    2    0    0 -0.12708823097E+03 -0.10121613198E+03 -0.30710564312E+03  0.34743346273E+03  0.10566000000E+00 0. -1.
         -4    1    1    2    0  502 -0.13543976098E+02  0.14465450048E+02  0.71551635048E+02  0.74245033583E+02  0.00000000000E+00 0. -1.
</event>
<event>
 5    1  0.8445827E-005  0.1057320E+03  0.7818608E-02  0.1155405E+00
         -4   -1    0    0    0  501 -0.00000000000E+00  0.00000000000E+00  0.84636310580E+02  0.84636310580E+02  0.00000000000E+00 0. -1.
         21   -1    0    0  501  502  0.00000000000E+00 -0.00000000000E+00 -0.40415748368E+03  0.40415748368E+03  0.00000000000E+00 0.  1.
        -13    1    1    2    0    0 -0.81840810821E+02  0.56483957103E+02  0.10234885911E+02  0.99965592978E+02  0.10566000000E+00 0.  1.
         13    1    1    2    0    0  0.10732603477E+03 -0.64028332241E+02 -0.10708749595E+03  0.16457900237E+03  0.10566000000E+00 0. -1.
         -4    1    1    2    0  502 -0.25485223949E+02  0.75443751385E+01 -0.22266856306E+03  0.22424919891E+03  0.00000000000E+00 0. -1.
</event>
<event>
 5    1  0.8445827E-005  0.1666044E+03  0.7818608E-02  0.1085799E+00
         21   -1    0    0  501  502  0.00000000000E+00  0.00000000000E+00  0.54315212584E+03  0.54315212584E+03  0.00000000000E+00 0. -1.
          4   -1    0    0  502    0 -0.00000000000E+00 -0.00000000000E+00 -0.93194361184E+02  0.93194361184E+02  0.00000000000E+00 0.  1.
        -13    1    1    2    0    0 -0.12703524743E+03 -0.10631468634E+03  0.36777326347E+02  0.16968603218E+03  0.10566000000E+00 0.  1.
         13    1    1    2    0    0  0.15619196311E+03  0.75815035428E+02  0.31240633157E+03  0.35740953556E+03  0.10566000000E+00 0. -1.
          4    1    1    2  501    0 -0.29156715683E+02  0.30499650910E+02  0.10077410674E+03  0.10925091928E+03  0.00000000000E+00 0.  1.
</event>
<event>
 5    1  0.8445827E-005  0.4824169E+03  0.7818608E-02  0.9856891E-01
          4   -1    0    0  502    0 -0.00000000000E+00  0.00000000000E+00  0.79379322120E+03  0.79379322120E+03  0.00000000000E+00 0.  1.
         21   -1    0    0  501  502  0.00000000000E+00 -0.00000000000E+00 -0.68793203305E+03  0.68793203305E+03  0.00000000000E+00 0.  1.
        -13    1    1    2    0    0  0.23342227208E+03  0.32388048270E+03  0.66250481957E+02  0.40468958684E+03  0.10566000000E+00 0.  1.
         13    1    1    2    0    0  0.13240940269E+03  0.64499421166E+02  0.40461249359E+03  0.43058530675E+03  0.10566000000E+00 0. -1.
          4    1    1    2  501    0 -0.36583167477E+03 -0.38837990387E+03 -0.36500178740E+03  0.64645036066E+03  0.00000000000E+00 0.  1.
</event>
<event>
 5    1  0.8445827E-005  0.6447638E+03  0.7818608E-02  0.9207204E-01
          4   -1    0    0  502    0 -0.00000000000E+00  0.00000000000E+00  0.22755846078E+04  0.22755846078E+04  0.00000000000E+00 0.  1.
         21   -1    0    0  501  502  0.00000000000E+00 -0.00000000000E+00 -0.30941800171E+03  0.30941800171E+03  0.00000000000E+00 0. -1.
        -13    1    1    2    0    0  0.78445908970E+03  0.53530134187E+02  0.11801727631E+04  0.14181146994E+04  0.10566000000E+00 0.  1.
         13    1    1    2    0    0 -0.46855730384E+03 -0.74640926191E+01  0.22139452828E+03  0.51828294201E+03  0.10566000000E+00 0. -1.
          4    1    1    2  501    0 -0.31590178586E+03 -0.46066041568E+02  0.56459931477E+03  0.64860496817E+03  0.00000000000E+00 0.  1.
</event>
<event>
 5    1  0.8445827E-005  0.1654828E+03  0.7818608E-02  0.1086771E+00
          4   -1    0    0  502    0 -0.00000000000E+00  0.00000000000E+00  0.38727704482E+03  0.38727704482E+03  0.00000000000E+00 0.  1.
         21   -1    0    0  501  502  0.00000000000E+00 -0.00000000000E+00 -0.49135160327E+03  0.49135160327E+03  0.00000000000E+00 0. -1.
        -13    1    1    2    0    0 -0.14302114467E+03 -0.77922629908E+02  0.31414120557E+03  0.35385264203E+03  0.10566000000E+00 0.  1.
         13    1    1    2    0    0  0.22188394580E+03  0.27970956235E+02 -0.29605430752E+03  0.37102968070E+03  0.10566000000E+00 0. -1.
          4    1    1    2  501    0 -0.78862801133E+02  0.49951673673E+02 -0.12216145650E+03  0.15374632535E+03  0.00000000000E+00 0.  1.
</event>
<event>
 5    1  0.8445827E-005  0.3480190E+03  0.7818608E-02  0.1024104E+00
          4   -1    0    0  502    0 -0.00000000000E+00  0.00000000000E+00  0.18600321198E+04  0.18600321198E+04  0.00000000000E+00 0.  1.
         21   -1    0    0  501  502  0.00000000000E+00 -0.00000000000E+00 -0.17219984737E+03  0.17219984737E+03  0.00000000000E+00 0.  1.
        -13    1    1    2    0    0  0.31573936875E+03 -0.17629065009E+03  0.71267514924E+02  0.36857673847E+03  0.10566000000E+00 0.  1.
         13    1    1    2    0    0 -0.11203182882E+03 -0.11966335131E+02  0.37932008902E+03  0.39569946291E+03  0.10566000000E+00 0. -1.
          4    1    1    2  501    0 -0.20370753993E+03  0.18825698522E+03  0.12372446685E+04  0.12679557658E+04  0.00000000000E+00 0.  1.
</event>
<event>
 5    1  0.8445827E-005  0.2885431E+03  0.7818608E-02  0.1050472E+00
          4   -1    0    0  502    0 -0.00000000000E+00  0.00000000000E+00  0.41243056468E+03  0.41243056468E+03  0.00000000000E+00 0.  1.
         21   -1    0    0  501  502  0.00000000000E+00 -0.00000000000E+00 -0.82277544863E+03  0.82277544863E+03  0.00000000000E+00 0.  1.
        -13    1    1    2    0    0 -0.35388229635E+03 -0.37630787923E+02  0.27785288276E+03  0.45149860630E+03  0.10566000000E+00 0.  1.
         13    1    1    2    0    0  0.72503971014E+02  0.50790601792E+02 -0.22225044948E+03  0.23923165447E+03  0.10566000000E+00 0. -1.
          4    1    1    2  501    0  0.28137832534E+03 -0.13159813868E+02 -0.46594731722E+03  0.54447575254E+03  0.00000000000E+00 0.  1.
</event>
<event>
 5    1  0.8445827E-005  0.5413434E+03  0.7818608E-02  0.9391685E-01
         -4   -1    0    0    0  501 -0.00000000000E+00  0.00000000000E+00  0.20725574273E+04  0.20725574273E+04  0.00000000000E+00 0. -1.
         21   -1    0    0  501  502  0.00000000000E+00 -0.00000000000E+00 -0.61798844113E+03  0.61798844113E+03  0.00000000000E+00 0.  1.
        -13    1    1    2    0    0  0.76096689450E+02  0.53205770609E+03  0.14452395048E+04  0.15419446638E+04  0.10566000000E+00 0.  1.
         13    1    1    2    0    0 -0.50912207942E+03 -0.47374123161E+03  0.99319446760E+02  0.70249584337E+03  0.10566000000E+00 0. -1.
         -4    1    1    2    0  502  0.43302538997E+03 -0.58316474482E+02 -0.89989965333E+02  0.44610536134E+03  0.00000000000E+00 0. -1.
</event>
<event>
 5    1  0.8445827E-005  0.1116517E+03  0.7818608E-02  0.1146596E+00
          4   -1    0    0  502    0 -0.00000000000E+00  0.00000000000E+00  0.68390505149E+03  0.68390505149E+03  0.00000000000E+00 0.  1.
         21   -1    0    0  501  502  0.00000000000E+00 -0.00000000000E+00 -0.51810973359E+02  0.51810973359E+02  0.00000000000E+00 0. -1.
        -13    1    1    2    0    0 -0.14842346932E+03  0.70417833729E+02  0.29426894111E+03  0.33701990805E+03  0.10566000000E+00 0.  1.
         13    1    1    2    0    0  0.79849497324E+02 -0.50361087852E+02  0.30645393647E+03  0.32066525807E+03  0.10566000000E+00 0. -1.
          4    1    1    2  501    0  0.68573971996E+02 -0.20056745877E+02  0.31371200552E+02  0.78030858733E+02  0.00000000000E+00 0.  1.
</event>
<event>
 5    1  0.8445827E-005  0.4305085E+03  0.7818608E-02  0.9644859E-01
         -4   -1    0    0    0  501 -0.00000000000E+00  0.00000000000E+00  0.19364878317E+04  0.19364878317E+04  0.00000000000E+00 0. -1.
         21   -1    0    0  501  502  0.00000000000E+00 -0.00000000000E+00 -0.30466593261E+03  0.30466593261E+03  0.00000000000E+00 0. -1.
        -13    1    1    2    0    0  0.41547738282E+03 -0.45321992738E+02  0.76005459275E+03  0.86738603504E+03  0.10566000000E+00 0.  1.
         13    1    1    2    0    0 -0.47947083051E+03 -0.33132335085E+03  0.22930847177E+03  0.62629851231E+03  0.10566000000E+00 0. -1.
         -4    1    1    2    0  502  0.63993447692E+02  0.37664534359E+03  0.64245883455E+03  0.74746921695E+03  0.00000000000E+00 0. -1.
</event>
<event>
 5    1  0.8445827E-005  0.5160851E+03  0.7818608E-02  0.9623187E-01
         21   -1    0    0  501  502  0.00000000000E+00  0.00000000000E+00  0.14419524046E+04  0.14419524046E+04  0.00000000000E+00 0. -1.
         -4   -1    0    0    0  501 -0.00000000000E+00 -0.00000000000E+00 -0.33771676190E+03  0.33771676190E+03  0.00000000000E+00 0. -1.
        -13    1    1    2    0    0  0.25155338804E+03  0.97467478772E+02  0.69260739610E+02  0.27852482415E+03  0.10566000000E+00 0.  1.
         13    1    1    2    0    0 -0.18813194152E+02  0.47053040235E+03  0.50085434501E+03  0.68746482229E+03  0.10566000000E+00 0. -1.
         -4    1    1    2    0  502 -0.23274019389E+03 -0.56799788112E+03  0.53412055806E+03  0.81367952005E+03  0.00000000000E+00 0. -1.
</event>
<event>
 5    1  0.8445827E-005  0.4001820E+03  0.7818608E-02  0.1001850E+00
         -4   -1    0    0    0  501 -0.00000000000E+00  0.00000000000E+00  0.66245781753E+03  0.66245781753E+03  0.00000000000E+00 0. -1.
         21   -1    0    0  501  502  0.00000000000E+00 -0.00000000000E+00 -0.75476773020E+03  0.75476773020E+03  0.00000000000E+00 0. -1.
        -13    1    1    2    0    0 -0.12879692235E+03 -0.78602680125E+02  0.25431828065E+03  0.29571071601E+03  0.10566000000E+00 0.  1.
         13    1    1    2    0    0 -0.37371738179E+03 -0.43258490480E+02 -0.45786988952E+03  0.59260511755E+03  0.10566000000E+00 0. -1.
         -4    1    1    2    0  502  0.50251430415E+03  0.12186117060E+03  0.11124169619E+03  0.52890971417E+03  0.00000000000E+00 0. -1.
</event>
<event>
 5    1  0.8445827E-005  0.2987009E+03  0.7818608E-02  0.1016055E+00
         21   -1    0    0  501  502  0.00000000000E+00  0.00000000000E+00  0.14031732098E+04  0.14031732098E+04  0.00000000000E+00 0. -1.
         -4   -1    0    0    0  501 -0.00000000000E+00 -0.00000000000E+00 -0.34736245291E+03  0.34736245291E+03  0.00000000000E+00 0. -1.
        -13    1    1    2    0    0  0.22916933745E+03 -0.14848128208E+02 -0.39085629849E+02  0.23295224782E+03  0.10566000000E+00 0.  1.
         13    1    1    2    0    0  0.15635990432E+01 -0.29642261643E+03  0.10905268655E+04  0.11300963091E+04  0.10566000000E+00 0. -1.
         -4    1    1    2    0  502 -0.23073293649E+03  0.31127074463E+03  0.43695212826E+01  0.38748710580E+03  0.00000000000E+00 0. -1.
</event>
<event>
 5    1  0.8445827E-005  0.9128269E+02  0.7818608E-02  0.1179844E+00
         -4   -1    0    0    0  501 -0.00000000000E+00  0.00000000000E+00  0.11756581777E+02  0.11756581777E+02  0.00000000000E+00 0. -1.
         21   -1    0    0  501  502  0.00000000000E+00 -0.00000000000E+00 -0.13768516747E+04  0.13768516747E+04  0.00000000000E+00 0. -1.
        -13    1    1    2    0    0  0.60493136957E+02 -0.68231616817E+02 -0.53312273004E+03  0.54086489034E+03  0.10566000000E+00 0.  1.
         13    1    1    2    0    0 -0.47405564747E+02  0.78665242196E+02 -0.26392233819E+03  0.27944681007E+03  0.10566000000E+00 0. -1.
         -4    1    1    2    0  502 -0.13087572211E+02 -0.10433625379E+02 -0.56805002465E+03  0.56829655602E+03  0.00000000000E+00 0. -1.
</event>
<event>
 5    1  0.8445827E-005  0.4166157E+03  0.7818608E-02  0.9951120E-01
         21   -1    0    0  501  502  0.00000000000E+00  0.00000000000E+00  0.19061394817E+04  0.19061394817E+04  0.00000000000E+00 0.  1.
          4   -1    0    0  502    0 -0.00000000000E+00 -0.00000000000E+00 -0.18529153511E+03  0.18529153511E+03  0.00000000000E+00 0.  1.
        -13    1    1    2    0    0  0.10356070183E+03  0.29164330111E+03  0.68102920472E+02  0.31688902314E+03  0.10566000000E+00 0.  1.
         13    1    1    2    0    0 -0.61415558194E+02  0.15517442355E+03  0.24074011705E+03  0.29292795639E+03  0.10566000000E+00 0. -1.
          4    1    1    2  501    0 -0.42145143634E+02 -0.44681772466E+03  0.14120049091E+04  0.14816140373E+04  0.00000000000E+00 0.  1.
</event>
<event>
 5    1  0.8445827E-005  0.1705321E+03  0.7818608E-02  0.1082457E+00
         21   -1    0    0  501  502  0.00000000000E+00  0.00000000000E+00  0.38632584907E+03  0.38632584907E+03  0.00000000000E+00 0.  1.
         -4   -1    0    0    0  501 -0.00000000000E+00 -0.00000000000E+00 -0.19262061994E+03  0.19262061994E+03  0.00000000000E+00 0. -1.
        -13    1    1    2    0    0 -0.93052300187E+02  0.11951463238E+03  0.15026375949E+02  0.15221130398E+03  0.10566000000E+00 0.  1.
         13    1    1    2    0    0  0.15189163486E+03 -0.11489445538E+03 -0.44753357413E+02  0.19563915452E+03  0.10566000000E+00 0. -1.
         -4    1    1    2    0  502 -0.58839334672E+02 -0.46201769994E+01  0.22343221060E+03  0.23109601051E+03  0.00000000000E+00 0. -1.
</event>
<event>
 5    1  0.8445827E-005  0.2833683E+03  0.7818608E-02  0.1014417E+00
         21   -1    0    0  501  502  0.00000000000E+00  0.00000000000E+00  0.38814697144E+03  0.38814697144E+03  0.00000000000E+00 0. -1.
         -4   -1    0    0    0  501 -0.00000000000E+00 -0.00000000000E+00 -0.10866279358E+04  0.10866279358E+04  0.00000000000E+00 0. -1.
        -13    1    1    2    0    0  0.14141086604E+03 -0.23088045828E+03 -0.17680064178E+03  0.32335939317E+03  0.10566000000E+00 0.  1.
         13    1    1    2    0    0 -0.61338415852E+02  0.28534999288E+03 -0.80273243261E+03  0.85414658533E+03  0.10566000000E+00 0. -1.
         -4    1    1    2    0  502 -0.80072450188E+02 -0.54469534592E+02  0.28105211000E+03  0.29726892878E+03  0.00000000000E+00 0. -1.
</event>
<event>
 5    1  0.8445827E-005  0.3022957E+03  0.7818608E-02  0.1006362E+00
         21   -1    0    0  501  502  0.00000000000E+00  0.00000000000E+00  0.12015506606E+04  0.12015506606E+04  0.00000000000E+00 0.  1.
          4   -1    0    0  502    0 -0.00000000000E+00 -0.00000000000E+00 -0.26584279835E+03  0.26584279835E+03  0.00000000000E+00 0.  1.
        -13    1    1    2    0    0 -0.14233282240E+03  0.27811852831E+03  0.14537338991E+03  0.34458958455E+03  0.10566000000E+00 0.  1.
         13    1    1    2    0    0  0.12714820429E+03 -0.26825541484E+03 -0.33520898171E+02  0.29874955268E+03  0.10566000000E+00 0. -1.
          4    1    1    2  501    0  0.15184618109E+02 -0.98631134670E+01  0.82385537056E+03  0.82405432177E+03  0.00000000000E+00 0.  1.
</event>
<event>
 5    1  0.8445827E-005  0.3199557E+03  0.7818608E-02  0.1015572E+00
         21   -1    0    0  501  502  0.00000000000E+00  0.00000000000E+00  0.26777436924E+03  0.26777436924E+03  0.00000000000E+00 0.  1.
          4   -1    0    0  502    0 -0.00000000000E+00 -0.00000000000E+00 -0.14457118072E+04  0.14457118072E+04  0.00000000000E+00 0.  1.
        -13    1    1    2    0    0  0.34847099228E+03 -0.15638703222E+03 -0.93075197506E+03  0.10060756366E+04  0.10566000000E+00 0.  1.
         13    1    1    2    0    0 -0.16115975407E+03 -0.10015288083E+03 -0.32864468015E+03  0.37948702590E+03  0.10566000000E+00 0. -1.
          4    1    1    2  501    0 -0.18731123821E+03  0.25653991305E+03  0.81459217222E+02  0.32792351398E+03  0.00000000000E+00 0.  1.
</event>
<event>
 5    1  0.8445827E-005  0.2853736E+03  0.7818608E-02  0.1013916E+00
         21   -1    0    0  501  502  0.00000000000E+00  0.00000000000E+00  0.51097808264E+03  0.51097808264E+03  0.00000000000E+00 0.  1.
          4   -1    0    0  502    0 -0.00000000000E+00 -0.00000000000E+00 -0.17239111653E+04  0.17239111653E+04  0.00000000000E+00 0.  1.
        -13    1    1    2    0    0  0.26508257074E+03 -0.15055210110E+03 -0.44766426749E+03  0.54160687958E+03  0.10566000000E+00 0.  1.
         13    1    1    2    0    0 -0.24217823595E+03 -0.14427859219E+03 -0.11635549528E+04  0.11972162501E+04  0.10566000000E+00 0. -1.
          4    1    1    2  501    0 -0.22904334793E+02  0.29483069329E+03  0.39828613763E+03  0.49606611826E+03  0.00000000000E+00 0.  1.
</event>
<event>
 5    1  0.8445827E-005  0.1025091E+04  0.7818608E-02  0.9177132E-01
         -4   -1    0    0    0  501 -0.00000000000E+00  0.00000000000E+00  0.15296302634E+04  0.15296302634E+04  0.00000000000E+00 0. -1.
         21   -1    0    0  501  502  0.00000000000E+00 -0.00000000000E+00 -0.10011173687E+04  0.10011173687E+04  0.00000000000E+00 0. -1.
        -13    1    1    2    0    0  0.18025512086E+03  0.40608688325E+01  0.12031767821E+02  0.18070189222E+03  0.10566000000E+00 0.  1.
         13    1    1    2    0    0  0.93784010042E+03 -0.27388983956E+03 -0.19679712080E+03  0.99663875908E+03  0.10566000000E+00 0. -1.
         -4    1    1    2    0  502 -0.11180952213E+04  0.26982897073E+03  0.71327824764E+03  0.13534069809E+04  0.00000000000E+00 0. -1.
</event>
<event>
 5    1  0.8445827E-005  0.2664948E+03  0.7818608E-02  0.1022183E+00
          4   -1    0    0  502    0 -0.00000000000E+00  0.00000000000E+00  0.12479131159E+04  0.12479131159E+04  0.00000000000E+00 0.  1.
         21   -1    0    0  501  502  0.00000000000E+00 -0.00000000000E+00 -0.18428019990E+03  0.18428019990E+03  0.00000000000E+00 0.  1.
        -13    1    1    2    0    0  0.32762909431E+03 -0.16750674087E+03  0.27629778151E+03  0.46015193894E+03  0.10566000000E+00 0.  1.
         13    1    1    2    0    0 -0.17890965492E+03  0.17158114838E+03  0.78504091592E+03  0.82324844727E+03  0.10566000000E+00 0. -1.
          4    1    1    2  501    0 -0.14871943939E+03 -0.40744075169E+01  0.22942185295E+01  0.14879292956E+03  0.00000000000E+00 0.  1.
</event>
<event>
 5    1  0.8445827E-005  0.2232670E+03  0.7818608E-02  0.1045258E+00
         21   -1    0    0  501  502  0.00000000000E+00  0.00000000000E+00  0.30204840794E+03  0.30204840794E+03  0.00000000000E+00 0.  1.
          4   -1    0    0  502    0 -0.00000000000E+00 -0.00000000000E+00 -0.45667652688E+03  0.45667652688E+03  0.00000000000E+00 0.  1.
        -13    1    1    2    0    0  0.75684895138E+01  0.22969414320E+03 -0.27844533150E+03  0.36103808006E+03  0.10566000000E+00 0.  1.
         13    1    1    2    0    0 -0.24359859697E+02 -0.20938638252E+03 -0.54260510278E+02  0.21767010380E+03  0.10566000000E+00 0. -1.
          4    1    1    2  501    0  0.16791370183E+02 -0.20307760677E+02  0.17807772284E+03  0.18001675096E+03  0.00000000000E+00 0.  1.
</event>
<event>
 5    1  0.8445827E-005  0.5262443E+02  0.7818608E-02  0.1367192E+00
         21   -1    0    0  501  502  0.00000000000E+00  0.00000000000E+00  0.91741010026E+01  0.91741010026E+01  0.00000000000E+00 0. -1.
         -4   -1    0    0    0  501 -0.00000000000E+00 -0.00000000000E+00 -0.45162357575E+03  0.45162357575E+03  0.00000000000E+00 0. -1.
        -13    1    1    2    0    0 -0.13093585296E+01  0.10498405281E+02 -0.12681309401E+02  0.16515377844E+02  0.10566000000E+00 0.  1.
         13    1    1    2    0    0  0.56235097660E+01 -0.59470459775E+02 -0.29086982648E+03  0.29694044279E+03  0.10566000000E+00 0. -1.
         -4    1    1    2    0  502 -0.43141512365E+01  0.48972054495E+02 -0.13889833887E+03  0.14734185611E+03  0.00000000000E+00 0. -1.
</event>
<event>
 5    1  0.8445827E-005  0.5111311E+03  0.7818608E-02  0.9748534E-01
         21   -1    0    0  501  502  0.00000000000E+00  0.00000000000E+00  0.16717506548E+03  0.16717506548E+03  0.00000000000E+00 0. -1.
         -4   -1    0    0    0  501 -0.00000000000E+00 -0.00000000000E+00 -0.26234828054E+04  0.26234828054E+04  0.00000000000E+00 0. -1.
        -13    1    1    2    0    0 -0.17381924515E+03  0.43678061139E+02 -0.87481646720E+03  0.89298643072E+03  0.10566000000E+00 0.  1.
         13    1    1    2    0    0 -0.41110126983E+03 -0.49929509033E+01 -0.95478537666E+03  0.10395404322E+04  0.10566000000E+00 0. -1.
         -4    1    1    2    0  502  0.58492051498E+03 -0.38685110236E+02 -0.62670589604E+03  0.85813100790E+03  0.00000000000E+00 0. -1.
</event>
<event>
 5    1  0.8445827E-005  0.8932614E+02  0.7818608E-02  0.1183536E+00
         21   -1    0    0  501  502  0.00000000000E+00  0.00000000000E+00  0.29971115586E+03  0.29971115586E+03  0.00000000000E+00 0. -1.
         -4   -1    0    0    0  501 -0.00000000000E+00 -0.00000000000E+00 -0.84290857455E+02  0.84290857455E+02  0.00000000000E+00 0. -1.
        -13    1    1    2    0    0  0.77856159777E+02  0.83322842257E+02  0.38194642630E+02  0.12026271054E+03  0.10566000000E+00 0.  1.
         13    1    1    2    0    0 -0.67434981989E+02 -0.40540702522E+02 -0.24753864453E+01  0.78722068437E+02  0.10566000000E+00 0. -1.
         -4    1    1    2    0  502 -0.10421177787E+02 -0.42782139735E+02  0.17970104222E+03  0.18501723434E+03  0.00000000000E+00 0. -1.
</event>
<event>
 5    1  0.9183084E-005  0.4862333E+03  0.7818608E-02  0.9660003E-01
         21   -1    0    0  501  502  0.00000000000E+00  0.00000000000E+00  0.19741026692E+03  0.19741026692E+03  0.00000000000E+00 0.  1.
          4   -1    0    0  502    0 -0.00000000000E+00 -0.00000000000E+00 -0.30928657295E+04  0.30928657295E+04  0.00000000000E+00 0.  1.
        -13    1    1    2    0    0 -0.32465343380E+03  0.82478660258E+02 -0.86148683848E+03  0.92431713471E+03  0.10566000000E+00 0.  1.
         13    1    1    2    0    0 -0.18035101689E+03  0.21848653204E+03 -0.16257277883E+04  0.16502283802E+04  0.10566000000E+00 0. -1.
          4    1    1    2  501    0  0.50500445069E+03 -0.30096519230E+03 -0.40824083585E+03  0.71573048157E+03  0.00000000000E+00 0.  1.
</event>
<event>
 5    1  0.8445827E-005  0.1743713E+02  0.7818608E-02  0.1548988E+00
         21   -1    0    0  501  502  0.00000000000E+00  0.00000000000E+00  0.49263729059E+01  0.49263729059E+01  0.00000000000E+00 0. -1.
          4   -1    0    0  502    0 -0.00000000000E+00 -0.00000000000E+00 -0.11901728828E+03  0.11901728828E+03  0.00000000000E+00 0.  1.
        -13    1    1    2    0    0 -0.10906610148E+02  0.34232196206E+01 -0.15233955894E+02  0.19046184755E+02  0.10566000000E+00 0.  1.
         13    1    1    2    0    0  0.22268160800E+02 -0.39005638090E+01 -0.77124621573E+02  0.80369794079E+02  0.10566000000E+00 0. -1.
          4    1    1    2  501    0 -0.11361550652E+02  0.47734418831E+00 -0.21732337906E+02  0.24527682352E+02  0.00000000000E+00 0.  1.
</event>
<event>
 5    1  0.8445827E-005  0.7267347E+02  0.7818608E-02  0.1311808E+00
         -4   -1    0    0    0  501 -0.00000000000E+00  0.00000000000E+00  0.22492465161E+03  0.22492465161E+03  0.00000000000E+00 0. -1.
         21   -1    0    0  501  502  0.00000000000E+00 -0.00000000000E+00 -0.83588613250E+02  0.83588613250E+02  0.00000000000E+00 0. -1.
        -13    1    1    2    0    0 -0.28969513852E+00 -0.11050603280E+02 -0.43961330987E+02  0.45330007085E+02  0.10566000000E+00 0.  1.
         13    1    1    2    0    0  0.34671362725E+02  0.72986363547E+02  0.17346706552E+03  0.19136338897E+03  0.10566000000E+00 0. -1.
         -4    1    1    2    0  502 -0.34381667586E+02 -0.61935760267E+02  0.11830303831E+02  0.71819868801E+02  0.00000000000E+00 0. -1.
</event>
<event>
 5    1  0.8445827E-005  0.4411259E+03  0.7818608E-02  0.9827746E-01
         21   -1    0    0  501  502  0.00000000000E+00  0.00000000000E+00  0.35950099881E+03  0.35950099881E+03  0.00000000000E+00 0.  1.
          4   -1    0    0  502    0 -0.00000000000E+00 -0.00000000000E+00 -0.10806525551E+04  0.10806525551E+04  0.00000000000E+00 0.  1.
        -13    1    1    2    0    0  0.12378695988E+03  0.37290331832E+03 -0.44138177148E+02  0.39538372007E+03  0.10566000000E+00 0.  1.
         13    1    1    2    0    0 -0.63609952973E+02  0.20286894850E+03 -0.23120864121E+03  0.31410107182E+03  0.10566000000E+00 0. -1.
          4    1    1    2  501    0 -0.60177006903E+02 -0.57577226682E+03 -0.44580473790E+03  0.73066876198E+03  0.00000000000E+00 0.  1.
</event>
<event>
 5    1  0.8445827E-005  0.5044265E+03  0.7818608E-02  0.9867411E-01
         21   -1    0    0  501  502  0.00000000000E+00  0.00000000000E+00  0.40433801333E+03  0.40433801333E+03  0.00000000000E+00 0. -1.
         -4   -1    0    0    0  501 -0.00000000000E+00 -0.00000000000E+00 -0.81387720251E+03  0.81387720251E+03  0.00000000000E+00 0. -1.
        -13    1    1    2    0    0 -0.49963743348E+02 -0.11386444426E+03 -0.80257119835E+02  0.14799562076E+03  0.10566000000E+00 0.  1.
         13    1    1    2    0    0 -0.47614598524E+03 -0.15927282300E+02 -0.15626039055E+03  0.50138408271E+03  0.10566000000E+00 0. -1.
         -4    1    1    2    0  502  0.52610972858E+03  0.12979172656E+03 -0.17302167879E+03  0.56883551236E+03  0.00000000000E+00 0. -1.
</event>
<event>
 5    1  0.8445827E-005  0.6571593E+02  0.7818608E-02  0.1238437E+00
          4   -1    0    0  502    0 -0.00000000000E+00  0.00000000000E+00  0.30981938206E+03  0.30981938206E+03  0.00000000000E+00 0.  1.
         21   -1    0    0  501  502  0.00000000000E+00 -0.00000000000E+00 -0.18996979625E+02  0.18996979625E+02  0.00000000000E+00 0. -1.
        -13    1    1    2    0    0 -0.15200360432E+01 -0.71096703322E+02  0.16670165673E+03  0.18123604844E+03  0.10566000000E+00 0.  1.
         13    1    1    2    0    0  0.71199662287E+01  0.60110976529E+02  0.12030139977E+03  0.13467167991E+03  0.10566000000E+00 0. -1.
          4    1    1    2  501    0 -0.55999301854E+01  0.10985726793E+02  0.38193459318E+01  0.12908633336E+02  0.00000000000E+00 0.  1.
</event>
<event>
 5    1  0.8445827E-005  0.1308926E+03  0.7818608E-02  0.1121649E+00
         -4   -1    0    0    0  501 -0.00000000000E+00  0.00000000000E+00  0.12389262732E+03  0.12389262732E+03  0.00000000000E+00 0. -1.
         21   -1    0    0  501  502  0.00000000000E+00 -0.00000000000E+00 -0.27734400145E+03  0.27734400145E+03  0.00000000000E+00 0. -1.
        -13    1    1    2    0    0 -0.10806497773E+03  0.41192847663E+02 -0.89158700579E+02  0.14602799445E+03  0.10566000000E+00 0.  1.
         13    1    1    2    0    0  0.11450323587E+03 -0.78256726568E+02  0.39995848834E+02  0.14434259720E+03  0.10566000000E+00 0. -1.
         -4    1    1    2    0  502 -0.64382581354E+01  0.37063878905E+02 -0.10428852238E+03  0.11086603713E+03  0.00000000000E+00 0. -1.
</event>
<event>
 5    1  0.8445827E-005  0.3851357E+03  0.7818608E-02  0.9772983E-01
         21   -1    0    0  501  502  0.00000000000E+00  0.00000000000E+00  0.28864533131E+03  0.28864533131E+03  0.00000000000E+00 0. -1.
         -4   -1    0    0    0  501 -0.00000000000E+00 -0.00000000000E+00 -0.18805010965E+04  0.18805010965E+04  0.00000000000E+00 0. -1.
        -13    1    1    2    0    0  0.32895052158E+03  0.23913621873E+03 -0.12602164112E+03  0.42576524278E+03  0.10566000000E+00 0.  1.
         13    1    1    2    0    0 -0.30760180633E+03 -0.22628146291E+03 -0.15805314233E+04  0.16260079222E+04  0.10566000000E+00 0. -1.
         -4    1    1    2    0  502 -0.21348715253E+02 -0.12854755828E+02  0.11469729922E+03  0.11737326288E+03  0.00000000000E+00 0. -1.
</event>
<event>
 5    1  0.8445827E-005  0.3797531E+03  0.7818608E-02  0.9994622E-01
          4   -1    0    0  502    0 -0.00000000000E+00  0.00000000000E+00  0.45882590819E+03  0.45882590819E+03  0.00000000000E+00 0.  1.
         21   -1    0    0  501  502  0.00000000000E+00 -0.00000000000E+00 -0.12369167867E+04  0.12369167867E+04  0.00000000000E+00 0.  1.
        -13    1    1    2    0    0  0.37014630623E+03 -0.10999113806E+03 -0.94743336421E+03  0.10231013289E+04  0.10566000000E+00 0.  1.
         13    1    1    2    0    0  0.10496893406E+02  0.19063404848E+03  0.20715374761E+03  0.28171654464E+03  0.10566000000E+00 0. -1.
          4    1    1    2  501    0 -0.38064319964E+03 -0.80642910418E+02 -0.37811261943E+02  0.39092482137E+03  0.00000000000E+00 0.  1.
</event>
<event>
 5    1  0.8445827E-005  0.3666891E+03  0.7818608E-02  0.1029398E+00
         21   -1    0    0  501  502  0.00000000000E+00  0.00000000000E+00  0.20295004541E+03  0.20295004541E+03  0.00000000000E+00 0. -1.
         -4   -1    0    0    0  501 -0.00000000000E+00 -0.00000000000E+00 -0.15676934442E+04  0.15676934442E+04  0.00000000000E+00 0. -1.
        -13    1    1    2    0    0 -0.26456032227E+02  0.77297983084E+02 -0.30120344167E+03  0.31208720619E+03  0.10566000000E+00 0.  1.
         13    1    1    2    0    0 -0.19171958579E+03 -0.36261118441E+03 -0.10167266194E+04  0.10963467975E+04  0.10566000000E+00 0. -1.
         -4    1    1    2    0  502  0.21817561801E+03  0.28531320132E+03 -0.46813337799E+02  0.36220948599E+03  0.00000000000E+00 0. -1.
</event>
<event>
 5    1  0.8445827E-005  0.8669802E+02  0.7818608E-02  0.1188664E+00
         21   -1    0    0  501  502  0.00000000000E+00  0.00000000000E+00  0.22815906375E+03  0.22815906375E+03  0.00000000000E+00 0.  1.
         -4   -1    0    0    0  501 -0.00000000000E+00 -0.00000000000E+00 -0.13937470624E+03  0.13937470624E+03  0.00000000000E+00 0. -1.
        -13    1    1    2    0    0  0.47151005647E+02 -0.68301283361E+02  0.17133401456E+03  0.19037762040E+03  0.10566000000E+00 0.  1.
         13    1    1    2    0    0 -0.70459492391E+02  0.51674863605E+02 -0.10795049950E+03  0.13888179544E+03  0.10566000000E+00 0. -1.
         -4    1    1    2    0  502  0.23308486744E+02  0.16626419756E+02  0.25400842459E+02  0.38274354153E+02  0.00000000000E+00 0. -1.
</event>
<event>
 5    1  0.8445827E-005  0.3257938E+03  0.7818608E-02  0.1040924E+00
         21   -1    0    0  501  502  0.00000000000E+00  0.00000000000E+00  0.35020109045E+03  0.35020109045E+03  0.00000000000E+00 0. -1.
         -4   -1    0    0    0  501 -0.00000000000E+00 -0.00000000000E+00 -0.11313941341E+04  0.11313941341E+04  0.00000000000E+00 0. -1.
        -13    1    1    2    0    0 -0.81880110914E+02 -0.20356904445E+00 -0.40562276391E+03  0.41380458162E+03  0.10566000000E+00 0.  1.
         13    1    1    2    0    0  0.36064949679E+03  0.15107668036E+03 -0.57348308994E+03  0.69410020062E+03  0.10566000000E+00 0. -1.
         -4    1    1    2    0  502 -0.27876938588E+03 -0.15087311132E+03  0.19791281020E+03  0.37369044230E+03  0.00000000000E+00 0. -1.
</event>
<event>
 5    1  0.8445827E-005  0.5644805E+03  0.7818608E-02  0.9346839E-01
         21   -1    0    0  501  502  0.00000000000E+00  0.00000000000E+00  0.59245087028E+03  0.59245087028E+03  0.00000000000E+00 0. -1.
          4   -1    0    0  502    0 -0.00000000000E+00 -0.00000000000E+00 -0.17986812224E+04  0.17986812224E+04  0.00000000000E+00 0.  1.
        -13    1    1    2    0    0 -0.27749652718E+03 -0.47722297380E+03 -0.90189911875E+03  0.10574346887E+04  0.10566000000E+00 0.  1.
         13    1    1    2    0    0 -0.17598370779E+03  0.74747503654E+03 -0.22244923043E+03  0.79948287470E+03  0.10566000000E+00 0. -1.
          4    1    1    2  501    0  0.45348023496E+03 -0.27025206274E+03 -0.81882002991E+02  0.53421452931E+03  0.00000000000E+00 0.  1.
</event>
<event>
 5    1  0.8445827E-005  0.4586714E+03  0.7818608E-02  0.9893750E-01
         21   -1    0    0  501  502  0.00000000000E+00  0.00000000000E+00  0.18058930081E+03  0.18058930081E+03  0.00000000000E+00 0.  1.
         -4   -1    0    0    0  501 -0.00000000000E+00 -0.00000000000E+00 -0.23187923623E+04  0.23187923623E+04  0.00000000000E+00 0. -1.
        -13    1    1    2    0    0  0.48199797207E+02 -0.14351100198E+03 -0.23656355225E+02  0.15322618068E+03  0.10566000000E+00 0.  1.
         13    1    1    2    0    0  0.30782830838E+03 -0.20481071309E+03 -0.15491361202E+04  0.15926482429E+04  0.10566000000E+00 0. -1.
         -4    1    1    2    0  502 -0.35602810559E+03  0.34832171508E+03 -0.56541058614E+03  0.75350723957E+03  0.00000000000E+00 0. -1.
</event>
<event>
 5    1  0.8445827E-005  0.3847228E+03  0.7818608E-02  0.9942766E-01
         21   -1    0    0  501  502  0.00000000000E+00  0.00000000000E+00  0.22629946289E+03  0.22629946289E+03  0.00000000000E+00 0. -1.
         -4   -1    0    0    0  501 -0.00000000000E+00 -0.00000000000E+00 -0.20948497592E+04  0.20948497592E+04  0.00000000000E+00 0. -1.
        -13    1    1    2    0    0 -0.19293450043E+03 -0.10121939360E+03 -0.86702030691E+03  0.89397612432E+03  0.10566000000E+00 0.  1.
         13    1    1    2    0    0 -0.23171968953E+03  0.29541084629E+03 -0.65476783617E+02  0.38111520959E+03  0.10566000000E+00 0. -1.
         -4    1    1    2    0  502  0.42465418996E+03 -0.19419145269E+03 -0.93605320578E+03  0.10460578882E+04  0.00000000000E+00 0. -1.
</event>
<event>
 5    1  0.8445827E-005  0.2460612E+03  0.7818608E-02  0.1032454E+00
         -4   -1    0    0    0  501 -0.00000000000E+00  0.00000000000E+00  0.19994659462E+04  0.19994659462E+04  0.00000000000E+00 0. -1.
         21   -1    0    0  501  502  0.00000000000E+00 -0.00000000000E+00 -0.36774657576E+02  0.36774657576E+02  0.00000000000E+00 0.  1.
        -13    1    1    2    0    0 -0.22674175935E+03  0.35656776837E+02  0.83769884198E+03  0.86857503544E+03  0.10566000000E+00 0.  1.
         13    1    1    2    0    0  0.26558452187E+03 -0.30505259368E+02  0.88497729763E+03  0.92447311350E+03  0.10566000000E+00 0. -1.
         -4    1    1    2    0  502 -0.38842762520E+02 -0.51515174695E+01  0.24001514905E+03  0.24319245487E+03  0.00000000000E+00 0. -1.
</event>
<event>
 5    1  0.8445827E-005  0.3927423E+03  0.7818608E-02  0.9950682E-01
          4   -1    0    0  502    0 -0.00000000000E+00  0.00000000000E+00  0.12677698653E+04  0.12677698653E+04  0.00000000000E+00 0.  1.
         21   -1    0    0  501  502  0.00000000000E+00 -0.00000000000E+00 -0.30411927342E+03  0.30411927342E+03  0.00000000000E+00 0.  1.
        -13    1    1    2    0    0 -0.35727158092E+03  0.28810812237E+02  0.12462604847E+02  0.35864797939E+03  0.10566000000E+00 0.  1.
         13    1    1    2    0    0 -0.18190784367E+03  0.81904060365E+02  0.20550835398E+03  0.28641304686E+03  0.10566000000E+00 0. -1.
          4    1    1    2  501    0  0.53917942459E+03 -0.11071487260E+03  0.74567963305E+03  0.92682811247E+03  0.00000000000E+00 0.  1.
</event>
<event>
 5    1  0.8445827E-005  0.7364838E+02  0.7818608E-02  0.1311650E+00
         21   -1    0    0  501  502  0.00000000000E+00  0.00000000000E+00  0.80027503914E+02  0.80027503914E+02  0.00000000000E+00 0. -1.
         -4   -1    0    0    0  501 -0.00000000000E+00 -0.00000000000E+00 -0.29658985575E+03  0.29658985575E+03  0.00000000000E+00 0. -1.
        -13    1    1    2    0    0  0.12496283631E+01  0.10579626455E+02  0.16918302959E+02  0.19993254013E+02  0.10566000000E+00 0.  1.
         13    1    1    2    0    0 -0.70692626447E+02  0.14521988410E+02 -0.26623635877E+03  0.27584442259E+03  0.10566000000E+00 0. -1.
         -4    1    1    2    0  502  0.69442998084E+02 -0.25101614865E+02  0.32755703976E+02  0.80779683056E+02  0.00000000000E+00 0. -1.
</event>
<event>
 5    1  0.8445827E-005  0.4615535E+03  0.7818608E-02  0.9635870E-01
         21   -1    0    0  501  502  0.00000000000E+00  0.00000000000E+00  0.51371869979E+03  0.51371869979E+03  0.00000000000E+00 0.  1.
          4   -1    0    0  502    0 -0.00000000000E+00 -0.00000000000E+00 -0.21721139812E+04  0.21721139812E+04  0.00000000000E+00 0.  1.
        -13    1    1    2    0    0  0.14533812795E+03 -0.33855708860E+03  0.18479263577E+02  0.36889777449E+03  0.10566000000E+00 0.  1.
         13    1    1    2    0    0 -0.80855627128E+02 -0.35142216317E+03 -0.15759002194E+04  0.16166312758E+04  0.10566000000E+00 0. -1.
          4    1    1    2  501    0 -0.64482500825E+02  0.68997925177E+03 -0.10097432561E+03  0.70030363073E+03  0.00000000000E+00 0.  1.
</event>
<event>
 5    1  0.8445827E-005  0.4805222E+03  0.7818608E-02  0.9571791E-01
         21   -1    0    0  501  502  0.00000000000E+00  0.00000000000E+00  0.20216187793E+03  0.20216187793E+03  0.00000000000E+00 0. -1.
         -4   -1    0    0    0  501 -0.00000000000E+00 -0.00000000000E+00 -0.36127038868E+04  0.36127038868E+04  0.00000000000E+00 0. -1.
        -13    1    1    2    0    0 -0.38015179151E+03  0.12856618807E+03 -0.19476422296E+04  0.19885559874E+04  0.10566000000E+00 0.  1.
         13    1    1    2    0    0  0.41782173809E+03  0.36578596703E+03 -0.10206549550E+04  0.11619427382E+04  0.10566000000E+00 0. -1.
         -4    1    1    2    0  502 -0.37669946573E+02 -0.49435215509E+03 -0.44224482429E+03  0.66436703917E+03  0.00000000000E+00 0. -1.
</event>
<event>
 5    1  0.1427472E-004  0.2328657E+03  0.7818608E-02  0.1042952E+00
         -4   -1    0    0    0  501 -0.00000000000E+00  0.00000000000E+00  0.36301011333E+03  0.36301011333E+03  0.00000000000E+00 0. -1.
         21   -1    0    0  501  502  0.00000000000E+00 -0.00000000000E+00 -0.11240100705E+04  0.11240100705E+04  0.00000000000E+00 0. -1.
        -13    1    1    2    0    0 -0.19113191963E+03  0.15277520825E+03 -0.19493748435E+03  0.31284550328E+03  0.10566000000E+00 0.  1.
         13    1    1    2    0    0 -0.21114277188E+03  0.77574507419E+01 -0.69165757698E+03  0.72320928030E+03  0.10566000000E+00 0. -1.
         -4    1    1    2    0  502  0.40227469150E+03 -0.16053265899E+03  0.12559510416E+03  0.45096540024E+03  0.00000000000E+00 0. -1.
</event>
<event>
 5    1  0.8445827E-005  0.2840715E+03  0.7818608E-02  0.1014106E+00
         21   -1    0    0  501  502  0.00000000000E+00  0.00000000000E+00  0.10908712923E+04  0.10908712923E+04  0.00000000000E+00 0.  1.
          4   -1    0    0  502    0 -0.00000000000E+00 -0.00000000000E+00 -0.10931840389E+04  0.10931840389E+04  0.00000000000E+00 0.  1.
        -13    1    1    2    0    0  0.22460509046E+03 -0.10318758531E+03 -0.19903068158E+03  0.31734578585E+03  0.10566000000E+00 0.  1.
         13    1    1    2    0    0 -0.12200125413E+03  0.31080537692E+03 -0.78763325931E+03  0.85548258350E+03  0.10566000000E+00 0. -1.
          4    1    1    2  501    0 -0.10260383634E+03 -0.20761779162E+03  0.98435119426E+03  0.10112269618E+04  0.00000000000E+00 0.  1.
</event>
<event>
 5    1  0.8445827E-005  0.4817979E+03  0.7818608E-02  0.9518785E-01
         -4   -1    0    0    0  501 -0.00000000000E+00  0.00000000000E+00  0.32245314011E+04  0.32245314011E+04  0.00000000000E+00 0. -1.
         21   -1    0    0  501  502  0.00000000000E+00 -0.00000000000E+00 -0.31832675504E+03  0.31832675504E+03  0.00000000000E+00 0. -1.
        -13    1    1    2    0    0  0.39734937183E+03 -0.27219584220E+03  0.21390088431E+04  0.21925637828E+04  0.10566000000E+00 0.  1.
         13    1    1    2    0    0 -0.13292050467E+03  0.59916112466E+03  0.68877160498E+03  0.92253360310E+03  0.10566000000E+00 0. -1.
         -4    1    1    2    0  502 -0.26442886716E+03 -0.32696528245E+03  0.78424198017E+02  0.42776077023E+03  0.00000000000E+00 0. -1.
</event>
<event>
 5    1  0.8445827E-005  0.1453266E+03  0.7818608E-02  0.1105814E+00
          4   -1    0    0  502    0 -0.00000000000E+00  0.00000000000E+00  0.60603500406E+02  0.60603500406E+02  0.00000000000E+00 0.  1.
         21   -1    0    0  501  502  0.00000000000E+00 -0.00000000000E+00 -0.88608084352E+03  0.88608084352E+03  0.00000000000E+00 0. -1.
        -13    1    1    2    0    0  0.96588490623E+02  0.99072224575E+02 -0.93764684752E+02  0.16714206375E+03  0.10566000000E+00 0.  1.
         13    1    1    2    0    0 -0.15016449125E+03 -0.76636568393E+02 -0.30156694678E+03  0.34549265202E+03  0.10566000000E+00 0. -1.
          4    1    1    2  501    0  0.53576000624E+02 -0.22435656183E+02 -0.43014571158E+03  0.43404962815E+03  0.00000000000E+00 0.  1.
</event>
<event>
 5    1  0.8445827E-005  0.4990700E+03  0.7818608E-02  0.9741711E-01
          4   -1    0    0  502    0 -0.00000000000E+00  0.00000000000E+00  0.62232828218E+03  0.62232828218E+03  0.00000000000E+00 0.  1.
         21   -1    0    0  501  502  0.00000000000E+00 -0.00000000000E+00 -0.62725739728E+03  0.62725739728E+03  0.00000000000E+00 0.  1.
        -13    1    1    2    0    0 -0.33810270970E+03 -0.37426080163E+03  0.78534775102E+02  0.51044325052E+03  0.10566000000E+00 0.  1.
         13    1    1    2    0    0  0.16579478556E+03 -0.10662517416E+03  0.64355245200E+02  0.20736066993E+03  0.10566000000E+00 0. -1.
          4    1    1    2  501    0  0.17230792414E+03  0.48088597578E+03 -0.14781913540E+03  0.53178175901E+03  0.00000000000E+00 0.  1.
</event>
<event>
 5    1  0.8445827E-005  0.4884221E+03  0.7818608E-02  0.9519457E-01
          4   -1    0    0  502    0 -0.00000000000E+00  0.00000000000E+00  0.18062159743E+04  0.18062159743E+04  0.00000000000E+00 0.  1.
         21   -1    0    0  501  502  0.00000000000E+00 -0.00000000000E+00 -0.36598083561E+03  0.36598083561E+03  0.00000000000E+00 0.  1.
        -13    1    1    2    0    0 -0.80373310598E+02  0.26929045813E+03  0.83487743698E+03  0.88090724020E+03  0.10566000000E+00 0.  1.
         13    1    1    2    0    0  0.44288402923E+03  0.23751992843E+03  0.37465119148E+03  0.62683770323E+03  0.10566000000E+00 0. -1.
          4    1    1    2  501    0 -0.36251071863E+03 -0.50681038656E+03  0.23070651027E+03  0.66445186652E+03  0.00000000000E+00 0.  1.
</event>
<event>
 5    1  0.8445827E-005  0.4459004E+03  0.7818608E-02  0.9766480E-01
         -4   -1    0    0    0  501 -0.00000000000E+00  0.00000000000E+00  0.52372944203E+03  0.52372944203E+03  0.00000000000E+00 0. -1.
         21   -1    0    0  501  502  0.00000000000E+00 -0.00000000000E+00 -0.73329671588E+03  0.73329671588E+03  0.00000000000E+00 0. -1.
        -13    1    1    2    0    0  0.15685151537E+03  0.19949177379E+03 -0.91980241748E+02  0.26992543733E+03  0.10566000000E+00 0.  1.
         13    1    1    2    0    0 -0.49430283319E+03 -0.12373371036E+03 -0.30487355255E+03  0.59379560135E+03  0.10566000000E+00 0. -1.
         -4    1    1    2    0  502  0.33745131782E+03 -0.75758063422E+02  0.18728652044E+03  0.39330511923E+03  0.00000000000E+00 0. -1.
</event>
<event>
 5    1  0.8445827E-005  0.2802902E+03  0.7818608E-02  0.1024993E+00
         21   -1    0    0  501  502  0.00000000000E+00  0.00000000000E+00  0.24249563237E+03  0.24249563237E+03  0.00000000000E+00 0.  1.
          4   -1    0    0  502    0 -0.00000000000E+00 -0.00000000000E+00 -0.82014415538E+03  0.82014415538E+03  0.00000000000E+00 0.  1.
        -13    1    1    2    0    0  0.14117270662E+03 -0.27328429716E+03 -0.53472049150E+02  0.31220716099E+03  0.10566000000E+00 0.  1.
         13    1    1    2    0    0  0.10152098030E+03  0.18356113955E+03 -0.58616029650E+02  0.21780048552E+03  0.10566000000E+00 0. -1.
          4    1    1    2  501    0 -0.24269368692E+03  0.89723157606E+02 -0.46556044421E+03  0.53263214125E+03  0.00000000000E+00 0.  1.
</event>
<event>
 5    1  0.8445827E-005  0.5186399E+02  0.7818608E-02  0.1284380E+00
         -4   -1    0    0    0  501 -0.00000000000E+00  0.00000000000E+00  0.62943007475E+02  0.62943007475E+02  0.00000000000E+00 0. -1.
         21   -1    0    0  501  502  0.00000000000E+00 -0.00000000000E+00 -0.85866869442E+03  0.85866869442E+03  0.00000000000E+00 0. -1.
        -13    1    1    2    0    0  0.44931281373E+02 -0.43293067503E+02 -0.20783506882E+03  0.21699893257E+03  0.10566000000E+00 0.  1.
         13    1    1    2    0    0  0.13281635371E+01  0.52331753276E+02  0.45567763784E+02  0.69403232487E+02  0.10566000000E+00 0. -1.
         -4    1    1    2    0  502 -0.46259444910E+02 -0.90386857731E+01 -0.63345838190E+03  0.63520953684E+03  0.00000000000E+00 0. -1.
</event>
<event>
 5    1  0.8445827E-005  0.3062635E+03  0.7818608E-02  0.1018970E+00
          4   -1    0    0  502    0 -0.00000000000E+00  0.00000000000E+00  0.16209220919E+04  0.16209220919E+04  0.00000000000E+00 0.  1.
         21   -1    0    0  501  502  0.00000000000E+00 -0.00000000000E+00 -0.15434571706E+03  0.15434571706E+03  0.00000000000E+00 0.  1.
        -13    1    1    2    0    0  0.90228207754E+02  0.45300162021E+03  0.89507965224E+03  0.10072334349E+04  0.10566000000E+00 0.  1.
         13    1    1    2    0    0 -0.29539620242E+02 -0.19200497413E+03  0.41376024503E+03  0.45709523164E+03  0.10566000000E+00 0. -1.
          4    1    1    2  501    0 -0.60688587511E+02 -0.26099664608E+03  0.15773647755E+03  0.31093914239E+03  0.00000000000E+00 0.  1.
</event>
<event>
 5    1  0.8445827E-005  0.2452384E+03  0.7818608E-02  0.1032890E+00
         21   -1    0    0  501  502  0.00000000000E+00  0.00000000000E+00  0.20896388448E+03  0.20896388448E+03  0.00000000000E+00 0. -1.
          4   -1    0    0  502    0 -0.00000000000E+00 -0.00000000000E+00 -0.36289121648E+03  0.36289121648E+03  0.00000000000E+00 0.  1.
        -13    1    1    2    0    0 -0.17159756334E+03  0.16095369286E+03 -0.89108389534E+02  0.25157927426E+03  0.10566000000E+00 0.  1.
         13    1    1    2    0    0  0.16460815037E+03 -0.19777519544E+03 -0.92764213773E+02  0.27352528516E+03  0.10566000000E+00 0. -1.
          4    1    1    2  501    0  0.69894129637E+01  0.36821502582E+02  0.27945271310E+02  0.46750541543E+02  0.00000000000E+00 0.  1.
</event>
<event>
 5    1  0.8445827E-005  0.4537961E+03  0.7818608E-02  0.9865617E-01
          4   -1    0    0  502    0 -0.00000000000E+00  0.00000000000E+00  0.41247477680E+03  0.41247477680E+03  0.00000000000E+00 0.  1.
         21   -1    0    0  501  502  0.00000000000E+00 -0.00000000000E+00 -0.87803983777E+03  0.87803983777E+03  0.00000000000E+00 0.  1.
        -13    1    1    2    0    0 -0.21027314899E+03 -0.28499976561E+03  0.80343483240E+02  0.36317316813E+03  0.10566000000E+00 0.  1.
         13    1    1    2    0    0  0.90272425403E+01 -0.17157776134E+03  0.19887378559E+02  0.17296224525E+03  0.10566000000E+00 0. -1.
          4    1    1    2  501    0  0.20124590645E+03  0.45657752695E+03 -0.56579592277E+03  0.75437920120E+03  0.00000000000E+00 0.  1.
</event>
<event>
 5    1  0.8445827E-005  0.2613378E+03  0.7818608E-02  0.1024679E+00
         -4   -1    0    0    0  501 -0.00000000000E+00  0.00000000000E+00  0.17391623481E+04  0.17391623481E+04  0.00000000000E+00 0. -1.
         21   -1    0    0  501  502  0.00000000000E+00 -0.00000000000E+00 -0.29760378574E+03  0.29760378574E+03  0.00000000000E+00 0. -1.
        -13    1    1    2    0    0 -0.79619057010E+02  0.21497697490E+03  0.76892912025E+03  0.80237540909E+03  0.10566000000E+00 0.  1.
         13    1    1    2    0    0  0.26910906983E+03 -0.22794788026E+03  0.88308318615E+03  0.95090265139E+03  0.10566000000E+00 0. -1.
         -4    1    1    2    0  502 -0.18949001282E+03  0.12970905358E+02 -0.21045374406E+03  0.28348807335E+03  0.00000000000E+00 0. -1.
</event>
<event>
 5    1  0.8445827E-005  0.2638444E+02  0.7818608E-02  0.1436532E+00
         -4   -1    0    0    0  501 -0.00000000000E+00  0.00000000000E+00  0.28694465773E+02  0.28694465773E+02  0.00000000000E+00 0. -1.
         21   -1    0    0  501  502  0.00000000000E+00 -0.00000000000E+00 -0.10149045786E+03  0.10149045786E+03  0.00000000000E+00 0. -1.
        -13    1    1    2    0    0  0.87674420311E+01 -0.14530986059E+02 -0.34326801652E+02  0.38293055131E+02  0.10566000000E+00 0.  1.
         13    1    1    2    0    0 -0.18198308973E+02  0.21840632641E+02  0.18347761732E+02  0.33835531742E+02  0.10566000000E+00 0. -1.
         -4    1    1    2    0  502  0.94308669420E+01 -0.73096465816E+01 -0.56816952170E+02  0.58056336763E+02  0.00000000000E+00 0. -1.
</event>
<event>
 5    1  0.8445827E-005  0.4289156E+03  0.7818608E-02  0.9649069E-01
         21   -1    0    0  501  502  0.00000000000E+00  0.00000000000E+00  0.27052845660E+03  0.27052845660E+03  0.00000000000E+00 0. -1.
         -4   -1    0    0    0  501 -0.00000000000E+00 -0.00000000000E+00 -0.23582510232E+04  0.23582510232E+04  0.00000000000E+00 0. -1.
        -13    1    1    2    0    0  0.16975797055E+03 -0.37188869332E+03 -0.10887570926E+04  0.11629750585E+04  0.10566000000E+00 0.  1.
         13    1    1    2    0    0 -0.41286723447E+03  0.28029255110E+03 -0.10832625911E+04  0.11926781293E+04  0.10566000000E+00 0. -1.
         -4    1    1    2    0  502  0.24310926391E+03  0.91596142217E+02  0.84297117129E+02  0.27312629208E+03  0.00000000000E+00 0. -1.
</event>
<event>
 5    1  0.8445827E-005  0.3028081E+03  0.7818608E-02  0.1006153E+00
          4   -1    0    0  502    0 -0.00000000000E+00  0.00000000000E+00  0.18043820750E+04  0.18043820750E+04  0.00000000000E+00 0.  1.
         21   -1    0    0  501  502  0.00000000000E+00 -0.00000000000E+00 -0.26707401705E+03  0.26707401705E+03  0.00000000000E+00 0.  1.
        -13    1    1    2    0    0  0.27336177029E+03 -0.37133626122E+02 -0.12611478268E+03  0.30333234779E+03  0.10566000000E+00 0.  1.
         13    1    1    2    0    0 -0.30953763284E+03 -0.24133161428E+02  0.41811057312E+03  0.52078058541E+03  0.10566000000E+00 0. -1.
          4    1    1    2  501    0  0.36175862553E+02  0.61266787550E+02  0.12453122675E+04  0.12473431589E+04  0.00000000000E+00 0.  1.
</event>
<event>
 5    1  0.8445827E-005  0.6744346E+02  0.7818608E-02  0.1233600E+00
         21   -1    0    0  501  502  0.00000000000E+00  0.00000000000E+00  0.62306544797E+02  0.62306544797E+02  0.00000000000E+00 0. -1.
         -4   -1    0    0    0  501 -0.00000000000E+00 -0.00000000000E+00 -0.42745791764E+03  0.42745791764E+03  0.00000000000E+00 0. -1.
        -13    1    1    2    0    0 -0.46258025657E+02 -0.41749140785E+02 -0.45405384128E+02  0.77100296794E+02  0.10566000000E+00 0.  1.
         13    1    1    2    0    0  0.31653402209E+02  0.61562444839E+02 -0.35939239900E+03  0.36599833348E+03  0.10566000000E+00 0. -1.
         -4    1    1    2    0  502  0.14604623448E+02 -0.19813304053E+02  0.39646410282E+02  0.46665832166E+02  0.00000000000E+00 0. -1.
</event>
<event>
 5    1  0.8445827E-005  0.4031732E+03  0.7818608E-02  0.1012176E+00
          4   -1    0    0  502    0 -0.00000000000E+00  0.00000000000E+00  0.19964068025E+04  0.19964068025E+04  0.00000000000E+00 0.  1.
         21   -1    0    0  501  502  0.00000000000E+00 -0.00000000000E+00 -0.19189354551E+03  0.19189354551E+03  0.00000000000E+00 0.  1.
        -13    1    1    2    0    0  0.49075769125E+00 -0.46718147486E+03  0.10490170515E+04  0.11483447029E+04  0.10566000000E+00 0.  1.
         13    1    1    2    0    0 -0.64148268778E+02  0.83985565513E+02  0.61940898266E+03  0.62835982889E+03  0.10566000000E+00 0. -1.
          4    1    1    2  501    0  0.63657511087E+02  0.38319590935E+03  0.13608722283E+03  0.41159581616E+03  0.00000000000E+00 0.  1.
</event>
<event>
 5    1  0.8445827E-005  0.5366180E+03  0.7818608E-02  0.9470912E-01
         -4   -1    0    0    0  501 -0.00000000000E+00  0.00000000000E+00  0.44436161702E+03  0.44436161702E+03  0.00000000000E+00 0. -1.
         21   -1    0    0  501  502  0.00000000000E+00 -0.00000000000E+00 -0.17769534931E+04  0.17769534931E+04  0.00000000000E+00 0. -1.
        -13    1    1    2    0    0  0.15507860067E+03  0.59014149204E+03 -0.43865358865E+03  0.75148741507E+03  0.10566000000E+00 0.  1.
         13    1    1    2    0    0 -0.40645074092E+03 -0.27446018212E+02 -0.29836901386E+02  0.40846755141E+03  0.10566000000E+00 0. -1.
         -4    1    1    2    0  502  0.25137214025E+03 -0.56269547382E+03 -0.86410138607E+03  0.10613601437E+04  0.00000000000E+00 0. -1.
</event>
<event>
 5    1  0.8445827E-005  0.3215677E+03  0.7818608E-02  0.1005521E+00
         -4   -1    0    0    0  501 -0.00000000000E+00  0.00000000000E+00  0.25045058582E+03  0.25045058582E+03  0.00000000000E+00 0. -1.
         21   -1    0    0  501  502  0.00000000000E+00 -0.00000000000E+00 -0.17380192807E+04  0.17380192807E+04  0.00000000000E+00 0. -1.
        -13    1    1    2    0    0  0.16199752468E+03 -0.20089455251E+03 -0.20394028304E+03  0.32892775717E+03  0.10566000000E+00 0.  1.
         13    1    1    2    0    0  0.17260404437E+03  0.23548715158E+03  0.39221804586E+02  0.29459245715E+03  0.10566000000E+00 0. -1.
         -4    1    1    2    0  502 -0.33460156905E+03 -0.34592599073E+02 -0.13228502164E+04  0.13649496522E+04  0.00000000000E+00 0. -1.
</event>
<event>
 5    1  0.8445827E-005  0.2388715E+03  0.7818608E-02  0.1113993E+00
         -4   -1    0    0    0  501 -0.00000000000E+00  0.00000000000E+00  0.27158913816E+03  0.27158913816E+03  0.00000000000E+00 0. -1.
         21   -1    0    0  501  502  0.00000000000E+00 -0.00000000000E+00 -0.44300212753E+03  0.44300212753E+03  0.00000000000E+00 0. -1.
        -13    1    1    2    0    0  0.14314076025E+02  0.22094528527E+02  0.80270465692E+02  0.84477332994E+02  0.10566000000E+00 0.  1.
         13    1    1    2    0    0  0.10377511398E+03 -0.22664016862E+03  0.42483207740E+02  0.25286335127E+03  0.10566000000E+00 0. -1.
         -4    1    1    2    0  502 -0.11808919000E+03  0.20454564009E+03 -0.29416666281E+03  0.37725058142E+03  0.00000000000E+00 0. -1.
</event>
<event>
 5    1  0.8445827E-005  0.9294031E+03  0.7818608E-02  0.8843909E-01
          4   -1    0    0  502    0 -0.00000000000E+00  0.00000000000E+00  0.13383659375E+04  0.13383659375E+04  0.00000000000E+00 0.  1.
         21   -1    0    0  501  502  0.00000000000E+00 -0.00000000000E+00 -0.13676401401E+04  0.13676401401E+04  0.00000000000E+00 0.  1.
        -13    1    1    2    0    0 -0.10087221130E+04  0.27464132897E+03 -0.60623700252E+03  0.12084996795E+04  0.10566000000E+00 0.  1.
         13    1    1    2    0    0  0.78333669739E+03 -0.46017199824E+03  0.73223899218E+03  0.11668541478E+04  0.10566000000E+00 0. -1.
          4    1    1    2  501    0  0.22538541563E+03  0.18553066927E+03 -0.15527619226E+03  0.33065225041E+03  0.00000000000E+00 0.  1.
</event>
<event>
 5    1  0.8445827E-005  0.1276347E+03  0.7818608E-02  0.1125531E+00
          4   -1    0    0  502    0 -0.00000000000E+00  0.00000000000E+00  0.64332406423E+02  0.64332406423E+02  0.00000000000E+00 0.  1.
         21   -1    0    0  501  502  0.00000000000E+00 -0.00000000000E+00 -0.62212522721E+03  0.62212522721E+03  0.00000000000E+00 0. -1.
        -13    1    1    2    0    0  0.56919426774E+01  0.12625603823E+03 -0.24973287601E+02  0.12882803134E+03  0.10566000000E+00 0.  1.
         13    1    1    2    0    0  0.28376913209E+01 -0.13380096689E+03 -0.35408443590E+03  0.37853209923E+03  0.10566000000E+00 0. -1.
          4    1    1    2  501    0 -0.85296339983E+01  0.75449286586E+01 -0.17873509728E+03  0.17909750306E+03  0.00000000000E+00 0.  1.
</event>
<event>
 5    1  0.8445827E-005  0.1030420E+03  0.7818608E-02  0.1161191E+00
         21   -1    0    0  501  502  0.00000000000E+00  0.00000000000E+00  0.16814334886E+03  0.16814334886E+03  0.00000000000E+00 0. -1.
         -4   -1    0    0    0  501 -0.00000000000E+00 -0.00000000000E+00 -0.18412579930E+03  0.18412579930E+03  0.00000000000E+00 0. -1.
        -13    1    1    2    0    0 -0.10005955086E+03  0.31938849612E+02 -0.57401432528E+02  0.11969519395E+03  0.10566000000E+00 0.  1.
         13    1    1    2    0    0  0.32929880919E+02 -0.11623842264E+03  0.16143313890E+02  0.12188669206E+03  0.10566000000E+00 0. -1.
         -4    1    1    2    0  502  0.67129669945E+02  0.84299573025E+02  0.25275668191E+02  0.11068726215E+03  0.00000000000E+00 0. -1.
</event>
<event>
 5    1  0.8445827E-005  0.3021683E+03  0.7818608E-02  0.1006415E+00
         21   -1    0    0  501  502  0.00000000000E+00  0.00000000000E+00  0.22414991632E+03  0.22414991632E+03  0.00000000000E+00 0. -1.
          4   -1    0    0  502    0 -0.00000000000E+00 -0.00000000000E+00 -0.85071527365E+03  0.85071527365E+03  0.00000000000E+00 0.  1.
        -13    1    1    2    0    0  0.20391745046E+03  0.22061335524E+03 -0.66077829504E+03  0.72586537696E+03  0.10566000000E+00 0.  1.
         13    1    1    2    0    0 -0.22754497607E+03 -0.21256609142E+03  0.61553450987E+01  0.31144655849E+03  0.10566000000E+00 0. -1.
          4    1    1    2  501    0  0.23627525614E+02 -0.80472638180E+01  0.28057592617E+02  0.37553254520E+02  0.00000000000E+00 0.  1.
</event>
<event>
 5    1  0.8445827E-005  0.2209799E+03  0.7818608E-02  0.1048261E+00
          4   -1    0    0  502    0 -0.00000000000E+00  0.00000000000E+00  0.59246496224E+03  0.59246496224E+03  0.00000000000E+00 0.  1.
         21   -1    0    0  501  502  0.00000000000E+00 -0.00000000000E+00 -0.64769935649E+03  0.64769935649E+03  0.00000000000E+00 0.  1.
        -13    1    1    2    0    0  0.14291980952E+03  0.10142342707E+03  0.42859859642E+03  0.46304379008E+03  0.10566000000E+00 0.  1.
         13    1    1    2    0    0 -0.16913648035E+03  0.12528711130E+03  0.32143021580E+02  0.21292532551E+03  0.10566000000E+00 0. -1.
          4    1    1    2  501    0  0.26216670829E+02 -0.22671053837E+03 -0.51597601224E+03  0.56419520314E+03  0.00000000000E+00 0.  1.
</event>
<event>
 5    1  0.8445827E-005  0.1534271E+03  0.7818608E-02  0.1097780E+00
          4   -1    0    0  502    0 -0.00000000000E+00  0.00000000000E+00  0.71480540401E+03  0.71480540401E+03  0.00000000000E+00 0.  1.
         21   -1    0    0  501  502  0.00000000000E+00 -0.00000000000E+00 -0.72829124338E+02  0.72829124338E+02  0.00000000000E+00 0. -1.
        -13    1    1    2    0    0 -0.60509694288E+02 -0.14125088356E+03  0.55152253872E+03  0.57252978708E+03  0.10566000000E+00 0.  1.
         13    1    1    2    0    0  0.39009592549E+02  0.14882456721E+03  0.10659711082E+03  0.18717226107E+03  0.10566000000E+00 0. -1.
          4    1    1    2  501    0  0.21500101739E+02 -0.75736836543E+01 -0.16143369872E+02  0.27932480193E+02  0.00000000000E+00 0.  1.
</event>
<event>
 5    1  0.8445827E-005  0.1940446E+03  0.7818608E-02  0.1064297E+00
         21   -1    0    0  501  502  0.00000000000E+00  0.00000000000E+00  0.36986041858E+03  0.36986041858E+03  0.00000000000E+00 0. -1.
          4   -1    0    0  502    0 -0.00000000000E+00 -0.00000000000E+00 -0.15424673282E+03  0.15424673282E+03  0.00000000000E+00 0.  1.
        -13    1    1    2    0    0 -0.12616050266E+03 -0.15141682261E+03 -0.37993259266E+02  0.20071628114E+03  0.10566000000E+00 0.  1.
         13    1    1    2    0    0  0.12212155826E+03  0.13735539346E+03  0.24546322675E+03  0.30664700545E+03  0.10566000000E+00 0. -1.
          4    1    1    2  501    0  0.40389443937E+01  0.14061429148E+02  0.81437182749E+01  0.16743864812E+02  0.00000000000E+00 0.  1.
</event>
<event>
 5    1  0.8445827E-005  0.3749651E+03  0.7818608E-02  0.9977173E-01
         21   -1    0    0  501  502  0.00000000000E+00  0.00000000000E+00  0.28166681502E+03  0.28166681502E+03  0.00000000000E+00 0. -1.
         -4   -1    0    0    0  501 -0.00000000000E+00 -0.00000000000E+00 -0.17669017087E+04  0.17669017087E+04  0.00000000000E+00 0. -1.
        -13    1    1    2    0    0  0.16209534365E+03 -0.13357009813E+03 -0.75915887765E+03  0.78767892204E+03  0.10566000000E+00 0.  1.
         13    1    1    2    0    0 -0.51019981467E+03  0.10530188006E+03 -0.74733871502E+03  0.91099259216E+03  0.10566000000E+00 0. -1.
         -4    1    1    2    0  502  0.34810447102E+03  0.28268218073E+02  0.21262698993E+02  0.34989700951E+03  0.00000000000E+00 0. -1.
</event>
<event>
 5    1  0.8445827E-005  0.1479054E+03  0.7818608E-02  0.1103196E+00
          4   -1    0    0  502    0 -0.00000000000E+00  0.00000000000E+00  0.44426761440E+03  0.44426761440E+03  0.00000000000E+00 0.  1.
         21   -1    0    0  501  502  0.00000000000E+00 -0.00000000000E+00 -0.14412891414E+03  0.14412891414E+03  0.00000000000E+00 0.  1.
        -13    1    1    2    0    0 -0.15055116103E+03  0.47406080385E+02  0.36275126647E+03  0.39560268077E+03  0.10566000000E+00 0.  1.
         13    1    1    2    0    0  0.11385211122E+03 -0.99038936654E+01 -0.43197737668E+01  0.11436372654E+03  0.10566000000E+00 0. -1.
          4    1    1    2  501    0  0.36699049814E+02 -0.37502186719E+02 -0.58292792434E+02  0.78430121227E+02  0.00000000000E+00 0.  1.
</event>
<event>
 5    1  0.8445827E-005  0.2998572E+03  0.7818608E-02  0.1018752E+00
          4   -1    0    0  502    0 -0.00000000000E+00  0.00000000000E+00  0.12798712832E+04  0.12798712832E+04  0.00000000000E+00 0.  1.
         21   -1    0    0  501  502  0.00000000000E+00 -0.00000000000E+00 -0.34012527915E+03  0.34012527915E+03  0.00000000000E+00 0.  1.
        -13    1    1    2    0    0 -0.20490757183E+03 -0.21197028153E+03 -0.18115569029E+03  0.34602876836E+03  0.10566000000E+00 0.  1.
         13    1    1    2    0    0  0.11742798371E+03 -0.17218010924E+03  0.45038568267E+03  0.49626867289E+03  0.10566000000E+00 0. -1.
          4    1    1    2  501    0  0.87479588121E+02  0.38415039077E+03  0.67051601171E+03  0.77769912114E+03  0.00000000000E+00 0.  1.
</event>
<event>
 5    1  0.8445827E-005  0.2028378E+03  0.7818608E-02  0.1058208E+00
         21   -1    0    0  501  502  0.00000000000E+00  0.00000000000E+00  0.33923689844E+03  0.33923689844E+03  0.00000000000E+00 0. -1.
         -4   -1    0    0    0  501 -0.00000000000E+00 -0.00000000000E+00 -0.26590992725E+03  0.26590992725E+03  0.00000000000E+00 0. -1.
        -13    1    1    2    0    0  0.20839067234E+03 -0.27004998705E+01 -0.38080030308E+02  0.21185859645E+03  0.10566000000E+00 0.  1.
         13    1    1    2    0    0 -0.19836576398E+03 -0.37876568195E+01 -0.70825705947E+02  0.21066469673E+03  0.10566000000E+00 0. -1.
         -4    1    1    2    0  502 -0.10024908357E+02  0.64881566900E+01  0.18223270744E+03  0.18262353251E+03  0.00000000000E+00 0. -1.
</event>
<event>
 5    1  0.8445827E-005  0.1266551E+03  0.7818608E-02  0.1173776E+00
         21   -1    0    0  501  502  0.00000000000E+00  0.00000000000E+00  0.22124450529E+03  0.22124450529E+03  0.00000000000E+00 0.  1.
          4   -1    0    0  502    0 -0.00000000000E+00 -0.00000000000E+00 -0.11300379295E+03  0.11300379295E+03  0.00000000000E+00 0.  1.
        -13    1    1    2    0    0  0.12418215808E+03  0.59830510454E+02  0.54507588674E+02  0.14822950702E+03  0.10566000000E+00 0.  1.
         13    1    1    2    0    0 -0.33880315239E+02  0.20215383004E+02 -0.20378774384E+02  0.44405439758E+02  0.10566000000E+00 0. -1.
          4    1    1    2  501    0 -0.90301842838E+02 -0.80045893459E+02  0.74111898052E+02  0.14161335146E+03  0.00000000000E+00 0.  1.
</event>
<event>
 5    1  0.8445827E-005  0.1014924E+03  0.7818608E-02  0.1162110E+00
         -4   -1    0    0    0  501 -0.00000000000E+00  0.00000000000E+00  0.31466059091E+03  0.31466059091E+03  0.00000000000E+00 0. -1.
         21   -1    0    0  501  502  0.00000000000E+00 -0.00000000000E+00 -0.12418712249E+03  0.12418712249E+03  0.00000000000E+00 0. -1.
        -13    1    1    2    0    0  0.90024287686E+02 -0.53117108269E+02  0.14149411097E+03  0.17591587242E+03  0.10566000000E+00 0.  1.
         13    1    1    2    0    0 -0.90682861261E+02  0.39856797967E+02  0.13969474576E+03  0.17125004767E+03  0.10566000000E+00 0. -1.
         -4    1    1    2    0  502  0.65857357507E+00  0.13260310302E+02 -0.90715388316E+02  0.91681793316E+02  0.00000000000E+00 0. -1.
</event>
<event>
 5    1  0.8445827E-005  0.4973430E+03  0.7818608E-02  0.9905660E-01
         21   -1    0    0  501  502  0.00000000000E+00  0.00000000000E+00  0.13861886202E+04  0.13861886202E+04  0.00000000000E+00 0.  1.
          4   -1    0    0  502    0 -0.00000000000E+00 -0.00000000000E+00 -0.39749719620E+03  0.39749719620E+03  0.00000000000E+00 0.  1.
        -13    1    1    2    0    0 -0.11646561923E+01  0.42382861111E+03  0.20849256355E+03  0.47233590616E+03  0.10566000000E+00 0.  1.
         13    1    1    2    0    0  0.20618494224E+02  0.11223252055E+03 -0.17904107880E+03  0.21231340051E+03  0.10566000000E+00 0. -1.
          4    1    1    2  501    0 -0.19453838032E+02 -0.53606113167E+03  0.95923993924E+03  0.10990365097E+04  0.00000000000E+00 0.  1.
</event>
<event>
 5    1  0.8445827E-005  0.4804904E+03  0.7818608E-02  0.9521789E-01
         21   -1    0    0  501  502  0.00000000000E+00  0.00000000000E+00  0.48114652028E+03  0.48114652028E+03  0.00000000000E+00 0.  1.
          4   -1    0    0  502    0 -0.00000000000E+00 -0.00000000000E+00 -0.20919547685E+04  0.20919547685E+04  0.00000000000E+00 0.  1.
        -13    1    1    2    0    0  0.34078381936E+03  0.53743227921E+03  0.37762665688E+02  0.63748968333E+03  0.10566000000E+00 0.  1.
         13    1    1    2    0    0  0.55387555374E+02 -0.47345799548E+03 -0.13605702069E+04  0.14416593057E+04  0.10566000000E+00 0. -1.
          4    1    1    2  501    0 -0.39617137474E+03 -0.63974283732E+02 -0.28800070700E+03  0.49395229969E+03  0.00000000000E+00 0.  1.
</event>
<event>
 5    1  0.8445827E-005  0.2071263E+03  0.7818608E-02  0.1055357E+00
         21   -1    0    0  501  502  0.00000000000E+00  0.00000000000E+00  0.80381781397E+02  0.80381781397E+02  0.00000000000E+00 0.  1.
         -4   -1    0    0    0  501 -0.00000000000E+00 -0.00000000000E+00 -0.12141519340E+04  0.12141519340E+04  0.00000000000E+00 0. -1.
        -13    1    1    2    0    0  0.82801685756E+02 -0.19448284079E+03 -0.66929535582E+03  0.70188031673E+03  0.10566000000E+00 0.  1.
         13    1    1    2    0    0 -0.19752465386E+03  0.11540066888E+03 -0.28937912524E+03  0.36888154270E+03  0.10566000000E+00 0. -1.
         -4    1    1    2    0  502  0.11472296810E+03  0.79082171913E+02 -0.17509567150E+03  0.22377185592E+03  0.00000000000E+00 0. -1.
</event>
<event>
 5    1  0.8445827E-005  0.9138645E+02  0.7818608E-02  0.1179651E+00
          4   -1    0    0  502    0 -0.00000000000E+00  0.00000000000E+00  0.80057188984E+02  0.80057188984E+02  0.00000000000E+00 0.  1.
         21   -1    0    0  501  502  0.00000000000E+00 -0.00000000000E+00 -0.21596220819E+03  0.21596220819E+03  0.00000000000E+00 0. -1.
        -13    1    1    2    0    0 -0.40815618972E+02 -0.90506623462E+02 -0.25397637919E+02  0.10248129009E+03  0.10566000000E+00 0.  1.
         13    1    1    2    0    0 -0.23758603824E+02  0.89248392190E+02 -0.79651447733E+02  0.12195946480E+03  0.10566000000E+00 0. -1.
          4    1    1    2  501    0  0.64574222796E+02  0.12582312721E+01 -0.30855933551E+02  0.71578642282E+02  0.00000000000E+00 0.  1.
</event>
<event>
 5    1  0.8445827E-005  0.4329358E+03  0.7818608E-02  0.9954728E-01
          4   -1    0    0  502    0 -0.00000000000E+00  0.00000000000E+00  0.28033608832E+04  0.28033608832E+04  0.00000000000E+00 0.  1.
         21   -1    0    0  501  502  0.00000000000E+00 -0.00000000000E+00 -0.10192663988E+03  0.10192663988E+03  0.00000000000E+00 0.  1.
        -13    1    1    2    0    0 -0.12513341920E+01  0.46044904009E+03  0.79221669914E+03  0.91630900570E+03  0.10566000000E+00 0.  1.
         13    1    1    2    0    0 -0.11965279378E+03 -0.85309663728E+02  0.32861994804E+03  0.35998001500E+03  0.10566000000E+00 0. -1.
          4    1    1    2  501    0  0.12090412797E+03 -0.37513937637E+03  0.15805975962E+04  0.16289985024E+04  0.00000000000E+00 0.  1.
</event>
<event>
 5    1  0.8445827E-005  0.3583354E+03  0.7818608E-02  0.1048489E+00
         21   -1    0    0  501  502  0.00000000000E+00  0.00000000000E+00  0.13899719417E+04  0.13899719417E+04  0.00000000000E+00 0. -1.
         -4   -1    0    0    0  501 -0.00000000000E+00 -0.00000000000E+00 -0.24612876323E+03  0.24612876323E+03  0.00000000000E+00 0. -1.
        -13    1    1    2    0    0  0.34754927519E+02  0.34583939584E+02 -0.57223695064E+02  0.75355930787E+02  0.10566000000E+00 0.  1.
         13    1    1    2    0    0 -0.28940603030E+03  0.21310676406E+03  0.11462784899E+04  0.12013012657E+04  0.10566000000E+00 0. -1.
         -4    1    1    2    0  502  0.25465110278E+03 -0.24769070365E+03  0.54788383633E+02  0.35944350850E+03  0.00000000000E+00 0. -1.
</event>
<event>
 5    1  0.8445827E-005  0.3163243E+03  0.7818608E-02  0.1000786E+00
         21   -1    0    0  501  502  0.00000000000E+00  0.00000000000E+00  0.45894032376E+03  0.45894032376E+03  0.00000000000E+00 0. -1.
          4   -1    0    0  502    0 -0.00000000000E+00 -0.00000000000E+00 -0.36933012979E+03  0.36933012979E+03  0.00000000000E+00 0.  1.
        -13    1    1    2    0    0  0.16426764814E+03  0.29623318971E+03  0.22338630765E+03  0.40575782989E+03  0.10566000000E+00 0.  1.
         13    1    1    2    0    0 -0.10391311754E+03 -0.29286558429E+03 -0.16778172264E+03  0.35315563718E+03  0.10566000000E+00 0. -1.
          4    1    1    2  501    0 -0.60354530610E+02 -0.33676054177E+01  0.34005608962E+02  0.69356986470E+02  0.00000000000E+00 0.  1.
</event>
<event>
 5    1  0.8445827E-005  0.4645135E+03  0.7818608E-02  0.9576347E-01
         21   -1    0    0  501  502  0.00000000000E+00  0.00000000000E+00  0.23110944365E+04  0.23110944365E+04  0.00000000000E+00 0. -1.
         -4   -1    0    0    0  501 -0.00000000000E+00 -0.00000000000E+00 -0.32032692231E+03  0.32032692231E+03  0.00000000000E+00 0. -1.
        -13    1    1    2    0    0  0.17624026140E+03 -0.39995127735E+03  0.10292596361E+03  0.44901605667E+03  0.10566000000E+00 0.  1.
         13    1    1    2    0    0  0.30446033166E+03  0.46101078469E+03  0.64981900790E+03  0.85293129345E+03  0.10566000000E+00 0. -1.
         -4    1    1    2    0  502 -0.48070059307E+03 -0.61059507335E+02  0.12380225427E+04  0.13294740087E+04  0.00000000000E+00 0. -1.
</event>
<event>
 5    1  0.8445827E-005  0.2504969E+03  0.7818608E-02  0.1030136E+00
         21   -1    0    0  501  502  0.00000000000E+00  0.00000000000E+00  0.47234893110E+03  0.47234893110E+03  0.00000000000E+00 0.  1.
         -4   -1    0    0    0  501 -0.00000000000E+00 -0.00000000000E+00 -0.20212118494E+03  0.20212118494E+03  0.00000000000E+00 0. -1.
        -13    1    1    2    0    0  0.95398859896E+02  0.23203613306E+03  0.28199165460E+03  0.37744007994E+03  0.10566000000E+00 0.  1.
         13    1    1    2    0    0 -0.12018737698E+03 -0.22005774659E+03 -0.44071261674E+02  0.25458339437E+03  0.10566000000E+00 0. -1.
         -4    1    1    2    0  502  0.24788517082E+02 -0.11978386472E+02  0.32307353225E+02  0.42446641729E+02  0.00000000000E+00 0. -1.
</event>
<event>
 5    1  0.8445827E-005  0.3124850E+03  0.7818608E-02  0.1002281E+00
         -4   -1    0    0    0  501 -0.00000000000E+00  0.00000000000E+00  0.22566796905E+04  0.22566796905E+04  0.00000000000E+00 0. -1.
         21   -1    0    0  501  502  0.00000000000E+00 -0.00000000000E+00 -0.55406675154E+02  0.55406675154E+02  0.00000000000E+00 0.  1.
        -13    1    1    2    0    0 -0.16181273826E+02 -0.30813733032E+03  0.76436324546E+03  0.82429462581E+03  0.10566000000E+00 0.  1.
         13    1    1    2    0    0 -0.50429179784E+02  0.31394414573E+03  0.12242435971E+04  0.12648622158E+04  0.10566000000E+00 0. -1.
         -4    1    1    2    0  502  0.66610453610E+02 -0.58068154041E+01  0.21266617284E+03  0.22292952408E+03  0.00000000000E+00 0. -1.
</event>
<event>
 5    1  0.8445827E-005  0.4671288E+03  0.7818608E-02  0.9873693E-01
          4   -1    0    0  502    0 -0.00000000000E+00  0.00000000000E+00  0.14866011386E+04  0.14866011386E+04  0.00000000000E+00 0.  1.
         21   -1    0    0  501  502  0.00000000000E+00 -0.00000000000E+00 -0.23822009770E+03  0.23822009770E+03  0.00000000000E+00 0.  1.
        -13    1    1    2    0    0 -0.43862436544E+03  0.17608828691E+03  0.22531347921E+03  0.52360728970E+03  0.10566000000E+00 0.  1.
         13    1    1    2    0    0  0.79565758162E+02  0.13102886750E+03  0.30972106929E+03  0.34558128699E+03  0.10566000000E+00 0. -1.
          4    1    1    2  501    0  0.35905860727E+03 -0.30711715441E+03  0.71334649244E+03  0.85563265966E+03  0.00000000000E+00 0.  1.
</event>
<event>
 5    1  0.8445827E-005  0.5209049E+03  0.7818608E-02  0.9894013E-01
         21   -1    0    0  501  502  0.00000000000E+00  0.00000000000E+00  0.23446443258E+04  0.23446443258E+04  0.00000000000E+00 0. -1.
         -4   -1    0    0    0  501 -0.00000000000E+00 -0.00000000000E+00 -0.37622791586E+03  0.37622791586E+03  0.00000000000E+00 0. -1.
        -13    1    1    2    0    0 -0.44119666169E+02  0.59024062970E+03  0.23845244784E+03  0.63811450927E+03  0.10566000000E+00 0.  1.
         13    1    1    2    0    0  0.57389371816E+02 -0.69504789571E+02 -0.12608921311E+03  0.15499340824E+03  0.10566000000E+00 0. -1.
         -4    1    1    2    0  502 -0.13269705647E+02 -0.52073584013E+03  0.18560531752E+04  0.19277643242E+04  0.00000000000E+00 0. -1.
</event>
<event>
 5    1  0.8445827E-005  0.1984434E+03  0.7818608E-02  0.1061208E+00
         -4   -1    0    0    0  501 -0.00000000000E+00  0.00000000000E+00  0.88843666187E+02  0.88843666187E+02  0.00000000000E+00 0. -1.
         21   -1    0    0  501  502  0.00000000000E+00 -0.00000000000E+00 -0.81536817434E+03  0.81536817434E+03  0.00000000000E+00 0.  1.
        -13    1    1    2    0    0 -0.18041647738E+03  0.49308941171E+02 -0.63896410382E+03  0.66577519789E+03  0.10566000000E+00 0.  1.
         13    1    1    2    0    0  0.19274228200E+03 -0.56490406475E+02 -0.63830368106E+02  0.21074885611E+03  0.10566000000E+00 0. -1.
         -4    1    1    2    0  502 -0.12325804621E+02  0.71814653038E+01 -0.23730036220E+02  0.27687786522E+02  0.00000000000E+00 0. -1.
</event>
<event>
 5    1  0.8445827E-005  0.3580183E+03  0.7818608E-02  0.9858802E-01
         21   -1    0    0  501  502  0.00000000000E+00  0.00000000000E+00  0.17509147813E+03  0.17509147813E+03  0.00000000000E+00 0. -1.
         -4   -1    0    0    0  501 -0.00000000000E+00 -0.00000000000E+00 -0.17337497852E+04  0.17337497852E+04  0.00000000000E+00 0. -1.
        -13    1    1    2    0    0 -0.31144481974E+03  0.15824960610E+03 -0.86582920954E+03  0.93364931576E+03  0.10566000000E+00 0.  1.
         13    1    1    2    0    0  0.32108809513E+03 -0.18111003789E+03 -0.79166576124E+03  0.87328866896E+03  0.10566000000E+00 0. -1.
         -4    1    1    2    0  502 -0.96432753874E+01  0.22860431788E+02  0.98836663700E+02  0.10190327862E+03  0.00000000000E+00 0. -1.
</event>
<event>
 5    1  0.8445827E-005  0.4477047E+03  0.7818608E-02  0.1025717E+00
         -4   -1    0    0    0  501 -0.00000000000E+00  0.00000000000E+00  0.33102719728E+04  0.33102719728E+04  0.00000000000E+00 0. -1.
         21   -1    0    0  501  502  0.00000000000E+00 -0.00000000000E+00 -0.81269450928E+02  0.81269450928E+02  0.00000000000E+00 0. -1.
        -13    1    1    2    0    0 -0.50145238731E+02  0.42308301519E+01  0.21802185244E+03  0.22375429426E+03  0.10566000000E+00 0.  1.
         13    1    1    2    0    0 -0.19420716506E+03  0.39472036625E+03  0.85388274788E+03  0.96053961334E+03  0.10566000000E+00 0. -1.
         -4    1    1    2    0  502  0.24435240379E+03 -0.39895119640E+03  0.21570979216E+04  0.22072475162E+04  0.00000000000E+00 0. -1.
</event>
<event>
 5    1  0.8445827E-005  0.6555416E+02  0.7818608E-02  0.1238899E+00
         21   -1    0    0  501  502  0.00000000000E+00  0.00000000000E+00  0.13267589914E+03  0.13267589914E+03  0.00000000000E+00 0. -1.
         -4   -1    0    0    0  501 -0.00000000000E+00 -0.00000000000E+00 -0.21951622068E+03  0.21951622068E+03  0.00000000000E+00 0. -1.
        -13    1    1    2    0    0  0.40510690635E+02 -0.53429107160E+02 -0.13446771282E+03  0.15025765373E+03  0.10566000000E+00 0.  1.
         13    1    1    2    0    0 -0.27557043187E+02  0.57620830863E+02 -0.63447304877E+02  0.90028453495E+02  0.10566000000E+00 0. -1.
         -4    1    1    2    0  502 -0.12953647447E+02 -0.41917237024E+01  0.11107469616E+03  0.11190601260E+03  0.00000000000E+00 0. -1.
</event>
<event>
 5    1  0.8445827E-005  0.7459289E+03  0.7818608E-02  0.9058888E-01
         -4   -1    0    0    0  501 -0.00000000000E+00  0.00000000000E+00  0.44159042220E+03  0.44159042220E+03  0.00000000000E+00 0. -1.
         21   -1    0    0  501  502  0.00000000000E+00 -0.00000000000E+00 -0.15990477740E+04  0.15990477740E+04  0.00000000000E+00 0.  1.
        -13    1    1    2    0    0 -0.24900770896E+03  0.70010458554E+03 -0.79774286158E+03  0.10902040883E+04  0.10566000000E+00 0.  1.
         13    1    1    2    0    0  0.23793172690E+03 -0.70851793463E+03 -0.17815330369E+03  0.76834092767E+03  0.10566000000E+00 0. -1.
         -4    1    1    2    0  502  0.11075982059E+02  0.84133490877E+01 -0.18156118657E+03  0.18209318024E+03  0.00000000000E+00 0. -1.
</event>
<event>
 5    1  0.8445827E-005  0.4779710E+03  0.7818608E-02  0.9797974E-01
         21   -1    0    0  501  502  0.00000000000E+00  0.00000000000E+00  0.99400236338E+03  0.99400236338E+03  0.00000000000E+00 0.  1.
          4   -1    0    0  502    0 -0.00000000000E+00 -0.00000000000E+00 -0.66383062215E+03  0.66383062215E+03  0.00000000000E+00 0.  1.
        -13    1    1    2    0    0 -0.35682942939E+03 -0.35259258900E+03  0.29560878060E+03  0.58226569350E+03  0.10566000000E+00 0.  1.
         13    1    1    2    0    0 -0.80500261716E+02  0.16652819222E+03 -0.39422558831E+03  0.43546039612E+03  0.10566000000E+00 0. -1.
          4    1    1    2  501    0  0.43732969111E+03  0.18606439678E+03  0.42878854895E+03  0.64010689590E+03  0.00000000000E+00 0.  1.
</event>
<event>
 5    1  0.8445827E-005  0.4748153E+03  0.7818608E-02  0.9653889E-01
         21   -1    0    0  501  502  0.00000000000E+00  0.00000000000E+00  0.37784207284E+03  0.37784207284E+03  0.00000000000E+00 0. -1.
         -4   -1    0    0    0  501 -0.00000000000E+00 -0.00000000000E+00 -0.12502800499E+04  0.12502800499E+04  0.00000000000E+00 0. -1.
        -13    1    1    2    0    0  0.93678042311E+02 -0.29639752665E+03 -0.36269016200E+03  0.47767272708E+03  0.10566000000E+00 0.  1.
         13    1    1    2    0    0  0.27137893498E+03  0.52771858108E+03 -0.35450853284E+03  0.69123783041E+03  0.10566000000E+00 0. -1.
         -4    1    1    2    0  502 -0.36505697730E+03 -0.23132105443E+03 -0.15523928219E+03  0.45921156522E+03  0.00000000000E+00 0. -1.
</event>
<event>
 5    1  0.8445827E-005  0.2789990E+03  0.7818608E-02  0.1016371E+00
         21   -1    0    0  501  502  0.00000000000E+00  0.00000000000E+00  0.31661211279E+03  0.31661211279E+03  0.00000000000E+00 0. -1.
         -4   -1    0    0    0  501 -0.00000000000E+00 -0.00000000000E+00 -0.18955653176E+04  0.18955653176E+04  0.00000000000E+00 0. -1.
        -13    1    1    2    0    0  0.64870806550E+02 -0.23059566113E+03 -0.10033004302E+04  0.10315010155E+04  0.10566000000E+00 0.  1.
         13    1    1    2    0    0 -0.10231236321E+03  0.43480554490E+03 -0.77393557121E+03  0.89358825031E+03  0.10566000000E+00 0. -1.
         -4    1    1    2    0  502  0.37441556662E+02 -0.20420988377E+03  0.19828279664E+03  0.28708816458E+03  0.00000000000E+00 0. -1.
</event>
<event>
 5    1  0.8445827E-005  0.2475846E+03  0.7818608E-02  0.1031652E+00
         21   -1    0    0  501  502  0.00000000000E+00  0.00000000000E+00  0.10379121987E+03  0.10379121987E+03  0.00000000000E+00 0. -1.
          4   -1    0    0  502    0 -0.00000000000E+00 -0.00000000000E+00 -0.14494188263E+04  0.14494188263E+04  0.00000000000E+00 0.  1.
        -13    1    1    2    0    0  0.24867899916E+03  0.19177743800E+02 -0.11987279909E+04  0.12244010118E+04  0.10566000000E+00 0.  1.
         13    1    1    2    0    0 -0.23835881502E+03 -0.17261866059E+02 -0.17670046494E+03  0.29721366421E+03  0.10566000000E+00 0. -1.
          4    1    1    2  501    0 -0.10320184139E+02 -0.19158777408E+01  0.29800849401E+02  0.31595370122E+02  0.00000000000E+00 0.  1.
</event>
<event>
 5    1  0.8445827E-005  0.2208974E+02  0.7818608E-02  0.1527860E+00
         21   -1    0    0  501  502  0.00000000000E+00  0.00000000000E+00  0.12802513669E+03  0.12802513669E+03  0.00000000000E+00 0.  1.
          4   -1    0    0  502    0 -0.00000000000E+00 -0.00000000000E+00 -0.12057893675E+02  0.12057893675E+02  0.00000000000E+00 0.  1.
        -13    1    1    2    0    0 -0.17347288580E+02  0.13167329701E+02  0.54013391394E+02  0.58238858217E+02  0.10566000000E+00 0.  1.
         13    1    1    2    0    0 -0.62108073885E+01 -0.96691846326E+01 -0.36441840208E+01  0.12056471337E+02  0.10566000000E+00 0. -1.
          4    1    1    2  501    0  0.23558095968E+02 -0.34981450685E+01  0.65598035643E+02  0.69787700813E+02  0.00000000000E+00 0.  1.
</event>
<event>
 5    1  0.8445827E-005  0.1935801E+03  0.7818608E-02  0.1064628E+00
         21   -1    0    0  501  502  0.00000000000E+00  0.00000000000E+00  0.12174265861E+03  0.12174265861E+03  0.00000000000E+00 0. -1.
          4   -1    0    0  502    0 -0.00000000000E+00 -0.00000000000E+00 -0.78338606672E+03  0.78338606672E+03  0.00000000000E+00 0.  1.
        -13    1    1    2    0    0  0.13065951596E+03  0.14096412496E+03 -0.65839880289E+03  0.68588030184E+03  0.10566000000E+00 0.  1.
         13    1    1    2    0    0 -0.14590441494E+03 -0.14241925762E+03 -0.22686016835E+01  0.20390316563E+03  0.10566000000E+00 0. -1.
          4    1    1    2  501    0  0.15244898976E+02  0.14551326604E+01 -0.97600354129E+00  0.15345257859E+02  0.00000000000E+00 0.  1.
</event>
<event>
 5    1  0.8445827E-005  0.2113517E+02  0.7818608E-02  0.1543935E+00
         -4   -1    0    0    0  501 -0.00000000000E+00  0.00000000000E+00  0.70214181242E+02  0.70214181242E+02  0.00000000000E+00 0. -1.
         21   -1    0    0  501  502  0.00000000000E+00 -0.00000000000E+00 -0.35343397556E+03  0.35343397556E+03  0.00000000000E+00 0. -1.
        -13    1    1    2    0    0  0.10475909419E+02  0.61203122951E+00 -0.50700972672E+02  0.51775660829E+02  0.10566000000E+00 0.  1.
         13    1    1    2    0    0  0.22468050907E+01 -0.17527299729E+02  0.68178414434E+02  0.70431255332E+02  0.10566000000E+00 0. -1.
         -4    1    1    2    0  502 -0.12722714510E+02  0.16915268500E+02 -0.30069723608E+03  0.30144124064E+03  0.00000000000E+00 0. -1.
</event>
<event>
 5    1  0.8445827E-005  0.1791558E+03  0.7818608E-02  0.1075449E+00
         -4   -1    0    0    0  501 -0.00000000000E+00  0.00000000000E+00  0.87812305670E+03  0.87812305670E+03  0.00000000000E+00 0. -1.
         21   -1    0    0  501  502  0.00000000000E+00 -0.00000000000E+00 -0.11076027636E+03  0.11076027636E+03  0.00000000000E+00 0. -1.
        -13    1    1    2    0    0 -0.23086753678E+03 -0.39929486825E+00  0.37349742428E+03  0.43909032793E+03  0.10566000000E+00 0.  1.
         13    1    1    2    0    0  0.14601427248E+03 -0.68344180211E+02  0.40892219623E+03  0.43955485263E+03  0.10566000000E+00 0. -1.
         -4    1    1    2    0  502  0.84853264299E+02  0.68743475079E+02 -0.15056840171E+02  0.11023815249E+03  0.00000000000E+00 0. -1.
</event>
<event>
 5    1  0.8445827E-005  0.4712611E+03  0.7818608E-02  0.9794671E-01
         21   -1    0    0  501  502  0.00000000000E+00  0.00000000000E+00  0.15080067492E+03  0.15080067492E+03  0.00000000000E+00 0.  1.
         -4   -1    0    0    0  501 -0.00000000000E+00 -0.00000000000E+00 -0.25526723441E+04  0.25526723441E+04  0.00000000000E+00 0. -1.
        -13    1    1    2    0    0 -0.19059439904E+03  0.42006324662E+02 -0.16341589336E+03  0.25454964471E+03  0.10566000000E+00 0.  1.
         13    1    1    2    0    0  0.55904254989E+03 -0.19570613140E+03 -0.14070430093E+04  0.15266301136E+04  0.10566000000E+00 0. -1.
         -4    1    1    2    0  502 -0.36844815085E+03  0.15369980674E+03 -0.83141276653E+03  0.92229326074E+03  0.00000000000E+00 0. -1.
</event>
<event>
 5    1  0.8445827E-005  0.1521399E+03  0.7818608E-02  0.1099020E+00
         21   -1    0    0  501  502  0.00000000000E+00  0.00000000000E+00  0.31614227691E+03  0.31614227691E+03  0.00000000000E+00 0. -1.
          4   -1    0    0  502    0 -0.00000000000E+00 -0.00000000000E+00 -0.87776353829E+02  0.87776353829E+02  0.00000000000E+00 0.  1.
        -13    1    1    2    0    0  0.45490790265E+02 -0.15141269970E+03  0.10497800108E+03  0.18977778981E+03  0.10566000000E+00 0.  1.
         13    1    1    2    0    0 -0.28124253113E+02  0.14471949232E+03  0.81850895786E+02  0.16862468792E+03  0.10566000000E+00 0. -1.
          4    1    1    2  501    0 -0.17366537152E+02  0.66932073811E+01  0.41537026211E+02  0.45516153003E+02  0.00000000000E+00 0.  1.
</event>
<event>
 5    1  0.8445827E-005  0.4961310E+03  0.7818608E-02  0.9761622E-01
          4   -1    0    0  502    0 -0.00000000000E+00  0.00000000000E+00  0.69063128765E+03  0.69063128765E+03  0.00000000000E+00 0.  1.
         21   -1    0    0  501  502  0.00000000000E+00 -0.00000000000E+00 -0.60201062195E+03  0.60201062195E+03  0.00000000000E+00 0.  1.
        -13    1    1    2    0    0  0.54022423283E+03  0.97798798168E+02 -0.10705100176E+03  0.55934493365E+03  0.10566000000E+00 0.  1.
         13    1    1    2    0    0 -0.88354428097E+02 -0.16519139222E+03  0.20318535358E+03  0.27636750913E+03  0.10566000000E+00 0. -1.
          4    1    1    2  501    0 -0.45186980474E+03  0.67392594053E+02 -0.75136861274E+01  0.45692946682E+03  0.00000000000E+00 0.  1.
</event>
<event>
 5    1  0.8445827E-005  0.1985344E+03  0.7818608E-02  0.1061145E+00
          4   -1    0    0  502    0 -0.00000000000E+00  0.00000000000E+00  0.18402523994E+03  0.18402523994E+03  0.00000000000E+00 0.  1.
         21   -1    0    0  501  502  0.00000000000E+00 -0.00000000000E+00 -0.52872661902E+03  0.52872661902E+03  0.00000000000E+00 0. -1.
        -13    1    1    2    0    0 -0.60964098233E+02  0.24005123927E+03 -0.38384269045E+03  0.45681116550E+03  0.10566000000E+00 0.  1.
         13    1    1    2    0    0  0.29163405134E+02 -0.18629625561E+03  0.15655568572E+02  0.18921391874E+03  0.10566000000E+00 0. -1.
          4    1    1    2  501    0  0.31800693099E+02 -0.53754983660E+02  0.23485742799E+02  0.66726774721E+02  0.00000000000E+00 0.  1.
</event>
<event>
 5    1  0.8445827E-005  0.4187680E+03  0.7818608E-02  0.1004154E+00
         -4   -1    0    0    0  501 -0.00000000000E+00  0.00000000000E+00  0.25049049014E+04  0.25049049014E+04  0.00000000000E+00 0. -1.
         21   -1    0    0  501  502  0.00000000000E+00 -0.00000000000E+00 -0.17187358836E+03  0.17187358836E+03  0.00000000000E+00 0. -1.
        -13    1    1    2    0    0  0.12196169329E+03 -0.68572829042E+01  0.33949480431E+03  0.36080245326E+03  0.10566000000E+00 0.  1.
         13    1    1    2    0    0  0.34711622183E+03  0.20555879857E+03  0.19764610785E+03  0.44923054909E+03  0.10566000000E+00 0. -1.
         -4    1    1    2    0  502 -0.46907791512E+03 -0.19870151567E+03  0.17958904008E+04  0.18667454874E+04  0.00000000000E+00 0. -1.
</event>
<event>
 5    1  0.8445827E-005  0.4892838E+03  0.7818608E-02  0.9978651E-01
          4   -1    0    0  502    0 -0.00000000000E+00  0.00000000000E+00  0.17583518182E+04  0.17583518182E+04  0.00000000000E+00 0.  1.
         21   -1    0    0  501  502  0.00000000000E+00 -0.00000000000E+00 -0.17641126270E+03  0.17641126270E+03  0.00000000000E+00 0.  1.
        -13    1    1    2    0    0 -0.39993166270E+02  0.51035878121E+03  0.49832674477E+03  0.71441941086E+03  0.10566000000E+00 0.  1.
         13    1    1    2    0    0  0.74581055355E+02 -0.57339185643E+02  0.10244131396E+03  0.13908396744E+03  0.10566000000E+00 0. -1.
          4    1    1    2  501    0 -0.34587889085E+02 -0.45301959557E+03  0.98117249674E+03  0.10812597026E+04  0.00000000000E+00 0.  1.
</event>
<event>
 5    1  0.8445827E-005  0.4521542E+03  0.7818608E-02  0.9725379E-01
          4   -1    0    0  502    0 -0.00000000000E+00  0.00000000000E+00  0.18875387694E+04  0.18875387694E+04  0.00000000000E+00 0.  1.
         21   -1    0    0  501  502  0.00000000000E+00 -0.00000000000E+00 -0.37835166153E+03  0.37835166153E+03  0.00000000000E+00 0.  1.
        -13    1    1    2    0    0 -0.24773414091E+03 -0.44262650298E+03  0.37786899155E+03  0.63251514737E+03  0.10566000000E+00 0.  1.
         13    1    1    2    0    0 -0.15453336444E+03  0.23406577730E+03  0.11461943935E+04  0.11800122659E+04  0.10566000000E+00 0. -1.
          4    1    1    2  501    0  0.40226750535E+03  0.20856072568E+03 -0.14876277176E+02  0.45336301766E+03  0.00000000000E+00 0.  1.
</event>
<event>
 5    1  0.8445827E-005  0.4936969E+03  0.7818608E-02  0.9582720E-01
         -4   -1    0    0    0  501 -0.00000000000E+00  0.00000000000E+00  0.25884633433E+03  0.25884633433E+03  0.00000000000E+00 0. -1.
         21   -1    0    0  501  502  0.00000000000E+00 -0.00000000000E+00 -0.20547582843E+04  0.20547582843E+04  0.00000000000E+00 0. -1.
        -13    1    1    2    0    0  0.98141174928E+02 -0.34204799380E+03 -0.24478086347E+03  0.43190994728E+03  0.10566000000E+00 0.  1.
         13    1    1    2    0    0 -0.11313404146E+03 -0.34828343088E+03 -0.42795545109E+03  0.56324642817E+03  0.10566000000E+00 0. -1.
         -4    1    1    2    0  502  0.14992866529E+02  0.69033142467E+03 -0.11231756354E+04  0.13184482431E+04  0.00000000000E+00 0. -1.
</event>
<event>
 5    1  0.8445827E-005  0.5034962E+03  0.7818608E-02  0.9692525E-01
          4   -1    0    0  502    0 -0.00000000000E+00  0.00000000000E+00  0.84497315826E+03  0.84497315826E+03  0.00000000000E+00 0.  1.
         21   -1    0    0  501  502  0.00000000000E+00 -0.00000000000E+00 -0.48493446947E+03  0.48493446947E+03  0.00000000000E+00 0.  1.
        -13    1    1    2    0    0 -0.59863921999E+02 -0.47467403196E+03  0.90063732987E+02  0.48683735778E+03  0.10566000000E+00 0.  1.
         13    1    1    2    0    0  0.21969140784E+03 -0.59869847349E+02  0.14917302315E+03  0.27221556771E+03  0.10566000000E+00 0. -1.
          4    1    1    2  501    0 -0.15982748585E+03  0.53454387931E+03  0.12080193265E+03  0.57085470224E+03  0.00000000000E+00 0.  1.
</event>
<event>
 5    1  0.8445827E-005  0.3980300E+03  0.7818608E-02  0.1033323E+00
         21   -1    0    0  501  502  0.00000000000E+00  0.00000000000E+00  0.15728766060E+03  0.15728766060E+03  0.00000000000E+00 0. -1.
         -4   -1    0    0    0  501 -0.00000000000E+00 -0.00000000000E+00 -0.18141286021E+04  0.18141286021E+04  0.00000000000E+00 0. -1.
        -13    1    1    2    0    0 -0.25802602689E+02 -0.50378255926E+02 -0.53598527293E+02  0.77952269163E+02  0.10566000000E+00 0.  1.
         13    1    1    2    0    0  0.37922244796E+03 -0.12584308408E+03 -0.22245131875E+03  0.45730815347E+03  0.10566000000E+00 0. -1.
         -4    1    1    2    0  502 -0.35341984527E+03  0.17622134001E+03 -0.13807910954E+04  0.14361558400E+04  0.00000000000E+00 0. -1.
</event>
<event>
 5    1  0.8445827E-005  0.1357976E+03  0.7818608E-02  0.1116030E+00
         -4   -1    0    0    0  501 -0.00000000000E+00  0.00000000000E+00  0.19288781434E+03  0.19288781434E+03  0.00000000000E+00 0. -1.
         21   -1    0    0  501  502  0.00000000000E+00 -0.00000000000E+00 -0.62016677853E+03  0.62016677853E+03  0.00000000000E+00 0.  1.
        -13    1    1    2    0    0 -0.25510266357E+02 -0.83085133404E+02 -0.48382164594E+03  0.49156618001E+03  0.10566000000E+00 0.  1.
         13    1    1    2    0    0  0.89020299936E+02  0.10659138245E+03  0.15107191449E+03  0.20520494907E+03  0.10566000000E+00 0. -1.
         -4    1    1    2    0  502 -0.63510033578E+02 -0.23506249043E+02 -0.94529232740E+02  0.11628346379E+03  0.00000000000E+00 0. -1.
</event>
<event>
 5    1  0.8445827E-005  0.1051943E+03  0.7818608E-02  0.1156236E+00
         -4   -1    0    0    0  501 -0.00000000000E+00  0.00000000000E+00  0.11242862659E+04  0.11242862659E+04  0.00000000000E+00 0. -1.
         21   -1    0    0  501  502  0.00000000000E+00 -0.00000000000E+00 -0.11562494293E+02  0.11562494293E+02  0.00000000000E+00 0.  1.
        -13    1    1    2    0    0 -0.10302505595E+03 -0.27476448161E+02  0.51450868863E+03  0.52544107109E+03  0.10566000000E+00 0.  1.
         13    1    1    2    0    0  0.10374131948E+03  0.11991860803E+02  0.54771463352E+03  0.55758174023E+03  0.10566000000E+00 0. -1.
         -4    1    1    2    0  502 -0.71626353401E+00  0.15484587358E+02  0.50500449477E+02  0.52825948893E+02  0.00000000000E+00 0. -1.
</event>
<event>
 5    1  0.8445827E-005  0.6694317E+02  0.7818608E-02  0.1234984E+00
         21   -1    0    0  501  502  0.00000000000E+00  0.00000000000E+00  0.64467097378E+02  0.64467097378E+02  0.00000000000E+00 0. -1.
          4   -1    0    0  502    0 -0.00000000000E+00 -0.00000000000E+00 -0.15781914048E+03  0.15781914048E+03  0.00000000000E+00 0.  1.
        -13    1    1    2    0    0  0.63750952738E+02 -0.46638927500E+01 -0.10091570894E+03  0.11945680117E+03  0.10566000000E+00 0.  1.
         13    1    1    2    0    0 -0.77406756105E+02  0.90484561324E+01 -0.11705947032E+02  0.78808126541E+02  0.10566000000E+00 0. -1.
          4    1    1    2  501    0  0.13655803367E+02 -0.43845633824E+01  0.19269612863E+02  0.24021310154E+02  0.00000000000E+00 0.  1.
</event>
<event>
 5    1  0.8445827E-005  0.8869400E+02  0.7818608E-02  0.1184751E+00
          4   -1    0    0  502    0 -0.00000000000E+00  0.00000000000E+00  0.10979176324E+03  0.10979176324E+03  0.00000000000E+00 0.  1.
         21   -1    0    0  501  502  0.00000000000E+00 -0.00000000000E+00 -0.23056849949E+03  0.23056849949E+03  0.00000000000E+00 0.  1.
        -13    1    1    2    0    0 -0.36660567732E+02  0.92299442290E+02  0.61776022863E+02  0.11695927684E+03  0.10566000000E+00 0.  1.
         13    1    1    2    0    0  0.11201707450E+00 -0.66796802024E+02 -0.49659720823E+02  0.83234153715E+02  0.10566000000E+00 0. -1.
          4    1    1    2  501    0  0.36548550657E+02 -0.25502640266E+02 -0.13289303829E+03  0.14016683218E+03  0.00000000000E+00 0.  1.
</event>
<event>
 5    1  0.8445827E-005  0.4604371E+03  0.7818608E-02  0.9570938E-01
         -4   -1    0    0    0  501 -0.00000000000E+00  0.00000000000E+00  0.19893786320E+04  0.19893786320E+04  0.00000000000E+00 0. -1.
         21   -1    0    0  501  502  0.00000000000E+00 -0.00000000000E+00 -0.82871720720E+03  0.82871720720E+03  0.00000000000E+00 0. -1.
        -13    1    1    2    0    0 -0.44422127597E+03  0.18490269496E+03  0.15566392294E+04  0.16293088260E+04  0.10566000000E+00 0.  1.
         13    1    1    2    0    0  0.10729490515E+03 -0.49872264234E+03  0.91458507217E+02  0.51826744096E+03  0.10566000000E+00 0. -1.
         -4    1    1    2    0  502  0.33692637082E+03  0.31381994738E+03 -0.48743631183E+03  0.67051957228E+03  0.00000000000E+00 0. -1.
</event>
<event>
 5    1  0.8445827E-005  0.4807234E+03  0.7818608E-02  0.9947562E-01
          4   -1    0    0  502    0 -0.00000000000E+00  0.00000000000E+00  0.21153396614E+04  0.21153396614E+04  0.00000000000E+00 0.  1.
         21   -1    0    0  501  502  0.00000000000E+00 -0.00000000000E+00 -0.15615250751E+03  0.15615250751E+03  0.00000000000E+00 0.  1.
        -13    1    1    2    0    0 -0.38205667216E+03  0.17276143704E+03  0.10620013782E+04  0.11417796430E+04  0.10566000000E+00 0.  1.
         13    1    1    2    0    0 -0.10894304068E+03 -0.14588811774E+02  0.39417574487E+03  0.40921381764E+03  0.10566000000E+00 0. -1.
          4    1    1    2  501    0  0.49099971285E+03 -0.15817262527E+03  0.50301003084E+03  0.72049870821E+03  0.00000000000E+00 0.  1.
</event>
<event>
 5    1  0.8445827E-005  0.4192977E+03  0.7818608E-02  0.9914971E-01
         21   -1    0    0  501  502  0.00000000000E+00  0.00000000000E+00  0.22264790051E+04  0.22264790051E+04  0.00000000000E+00 0. -1.
         -4   -1    0    0    0  501 -0.00000000000E+00 -0.00000000000E+00 -0.17496941237E+03  0.17496941237E+03  0.00000000000E+00 0. -1.
        -13    1    1    2    0    0  0.88648790825E+02  0.16191925216E+03  0.62156628893E+03  0.64839888574E+03  0.10566000000E+00 0.  1.
         13    1    1    2    0    0  0.44468296675E+02  0.37710518456E+03  0.93533503664E+03  0.10094738192E+04  0.10566000000E+00 0. -1.
         -4    1    1    2    0  502 -0.13311708750E+03 -0.53902443672E+03  0.49460826715E+03  0.74357571255E+03  0.00000000000E+00 0. -1.
</event>
<event>
 5    1  0.8445827E-005  0.3472025E+02  0.7818608E-02  0.1370578E+00
         21   -1    0    0  501  502  0.00000000000E+00  0.00000000000E+00  0.34033393468E+03  0.34033393468E+03  0.00000000000E+00 0. -1.
         -4   -1    0    0    0  501 -0.00000000000E+00 -0.00000000000E+00 -0.34908396021E+02  0.34908396021E+02  0.00000000000E+00 0. -1.
        -13    1    1    2    0    0 -0.12521892190E+01 -0.53407825439E+02  0.12119033260E+03  0.13244271092E+03  0.10566000000E+00 0.  1.
         13    1    1    2    0    0  0.36211263980E+01  0.33113882082E+02 -0.19127959472E+02  0.38412650788E+02  0.10566000000E+00 0. -1.
         -4    1    1    2    0  502 -0.23689371790E+01  0.20293943357E+02  0.20336316553E+03  0.20438696899E+03  0.00000000000E+00 0. -1.
</event>
<event>
 5    1  0.8445827E-005  0.2748313E+02  0.7818608E-02  0.1426334E+00
         -4   -1    0    0    0  501 -0.00000000000E+00  0.00000000000E+00  0.18918305047E+02  0.18918305047E+02  0.00000000000E+00 0. -1.
         21   -1    0    0  501  502  0.00000000000E+00 -0.00000000000E+00 -0.18049078719E+03  0.18049078719E+03  0.00000000000E+00 0.  1.
        -13    1    1    2    0    0  0.49256550530E+01 -0.30149084364E+02 -0.12062618825E+03  0.12443439163E+03  0.10566000000E+00 0.  1.
         13    1    1    2    0    0  0.93737599839E+01  0.25882063990E+02  0.38158883468E+01  0.27790659951E+02  0.10566000000E+00 0. -1.
         -4    1    1    2    0  502 -0.14299415037E+02  0.42670203740E+01 -0.44762182246E+02  0.47184040657E+02  0.00000000000E+00 0. -1.
</event>
<event>
 5    1  0.8445827E-005  0.5724739E+03  0.7818608E-02  0.9331868E-01
         21   -1    0    0  501  502  0.00000000000E+00  0.00000000000E+00  0.34644944433E+03  0.34644944433E+03  0.00000000000E+00 0. -1.
         -4   -1    0    0    0  501 -0.00000000000E+00 -0.00000000000E+00 -0.30411764666E+04  0.30411764666E+04  0.00000000000E+00 0. -1.
        -13    1    1    2    0    0 -0.51332051810E+03 -0.47793630551E+03 -0.17038855780E+04  0.18425925052E+04  0.10566000000E+00 0.  1.
         13    1    1    2    0    0  0.11303251931E+03  0.49731409318E+03 -0.10229084175E+04  0.11429957565E+04  0.10566000000E+00 0. -1.
         -4    1    1    2    0  502  0.40028799880E+03 -0.19377787679E+02  0.32066973096E+02  0.40203764923E+03  0.00000000000E+00 0. -1.
</event>
<event>
 5    1  0.8445827E-005  0.3252251E+03  0.7818608E-02  0.9974051E-01
          4   -1    0    0  502    0 -0.00000000000E+00  0.00000000000E+00  0.14368681303E+03  0.14368681303E+03  0.00000000000E+00 0.  1.
         21   -1    0    0  501  502  0.00000000000E+00 -0.00000000000E+00 -0.12216699433E+04  0.12216699433E+04  0.00000000000E+00 0. -1.
        -13    1    1    2    0    0 -0.18874233024E+03 -0.26500836197E+03 -0.12651346548E+03  0.34908275130E+03  0.10566000000E+00 0.  1.
         13    1    1    2    0    0  0.17525521876E+03  0.27381433091E+03 -0.79391942250E+03  0.85790252366E+03  0.10566000000E+00 0. -1.
          4    1    1    2  501    0  0.13487111480E+02 -0.88059689335E+01 -0.15755024230E+03  0.15837148138E+03  0.00000000000E+00 0.  1.
</event>
<event>
 5    1  0.8445827E-005  0.2333728E+03  0.7818608E-02  0.1039389E+00
         21   -1    0    0  501  502  0.00000000000E+00  0.00000000000E+00  0.56049426234E+02  0.56049426234E+02  0.00000000000E+00 0. -1.
          4   -1    0    0  502    0 -0.00000000000E+00 -0.00000000000E+00 -0.12895212552E+04  0.12895212552E+04  0.00000000000E+00 0.  1.
        -13    1    1    2    0    0  0.23164827361E+03  0.77789696163E+02 -0.70369624654E+03  0.74491649066E+03  0.10566000000E+00 0.  1.
         13    1    1    2    0    0 -0.21337894216E+03 -0.60080285472E+02 -0.53075872026E+03  0.57519131075E+03  0.10566000000E+00 0. -1.
          4    1    1    2  501    0 -0.18269331453E+02 -0.17709410691E+02  0.98313784704E+00  0.25462880018E+02  0.00000000000E+00 0.  1.
</event>
<event>
 5    1  0.8445827E-005  0.1325601E+03  0.7818608E-02  0.1119709E+00
         21   -1    0    0  501  502  0.00000000000E+00  0.00000000000E+00  0.53498601507E+03  0.53498601507E+03  0.00000000000E+00 0. -1.
         -4   -1    0    0    0  501 -0.00000000000E+00 -0.00000000000E+00 -0.13342825045E+03  0.13342825045E+03  0.00000000000E+00 0. -1.
        -13    1    1    2    0    0  0.77853138162E+02 -0.85818199077E+02  0.92919028829E+02  0.14852552473E+03  0.10566000000E+00 0.  1.
         13    1    1    2    0    0 -0.87527416519E+02  0.10792061038E+03 -0.59359203027E+02  0.15110073771E+03  0.10566000000E+00 0. -1.
         -4    1    1    2    0  502  0.96742783572E+01 -0.22102411303E+02  0.36799793881E+03  0.36878800308E+03  0.00000000000E+00 0. -1.
</event>
<event>
 5    1  0.8445827E-005  0.5660018E+03  0.7818608E-02  0.9389056E-01
         21   -1    0    0  501  502  0.00000000000E+00  0.00000000000E+00  0.81294220960E+03  0.81294220960E+03  0.00000000000E+00 0. -1.
         -4   -1    0    0    0  501 -0.00000000000E+00 -0.00000000000E+00 -0.27334356993E+04  0.27334356993E+04  0.00000000000E+00 0. -1.
        -13    1    1    2    0    0  0.58194791408E+03  0.10830121508E+03 -0.22387827657E+04  0.23157160472E+04  0.10566000000E+00 0.  1.
         13    1    1    2    0    0 -0.20231539083E+03  0.31150484666E+03 -0.23468917665E+03  0.43936978465E+03  0.10566000000E+00 0. -1.
         -4    1    1    2    0  502 -0.37963252325E+03 -0.41980606174E+03  0.55297845265E+03  0.79129207710E+03  0.00000000000E+00 0. -1.
</event>
<event>
 5    1  0.8445827E-005  0.4656547E+03  0.7818608E-02  0.1018600E+00
          4   -1    0    0  502    0 -0.00000000000E+00  0.00000000000E+00  0.15406952473E+04  0.15406952473E+04  0.00000000000E+00 0.  1.
         21   -1    0    0  501  502  0.00000000000E+00 -0.00000000000E+00 -0.16602940777E+03  0.16602940777E+03  0.00000000000E+00 0.  1.
        -13    1    1    2    0    0  0.10627458768E+03 -0.47305060464E+03  0.46582680318E+03  0.67235837488E+03  0.10566000000E+00 0.  1.
         13    1    1    2    0    0  0.14990975428E+02  0.53872047296E+02  0.78969040948E+02  0.96762841094E+02  0.10566000000E+00 0. -1.
          4    1    1    2  501    0 -0.12126556311E+03  0.41917855735E+03  0.82986999543E+03  0.93760343912E+03  0.00000000000E+00 0.  1.
</event>
<event>
 5    1  0.8696316E-005  0.5756816E+03  0.7818608E-02  0.9325933E-01
          4   -1    0    0  502    0 -0.00000000000E+00  0.00000000000E+00  0.18898796444E+04  0.18898796444E+04  0.00000000000E+00 0.  1.
         21   -1    0    0  501  502  0.00000000000E+00 -0.00000000000E+00 -0.42189295161E+03  0.42189295161E+03  0.00000000000E+00 0.  1.
        -13    1    1    2    0    0 -0.20541757536E+02  0.60411527306E+03  0.90000709089E+03  0.10841540489E+04  0.10566000000E+00 0.  1.
         13    1    1    2    0    0  0.36616750508E+03 -0.47873177653E+03  0.61003186152E+03  0.85755561853E+03  0.10566000000E+00 0. -1.
          4    1    1    2  501    0 -0.34562574755E+03 -0.12538349653E+03 -0.42052259613E+02  0.37006292858E+03  0.00000000000E+00 0.  1.
</event>
<event>
 5    1  0.8445827E-005  0.4324973E+03  0.7818608E-02  0.9801316E-01
         -4   -1    0    0    0  501 -0.00000000000E+00  0.00000000000E+00  0.20195096859E+03  0.20195096859E+03  0.00000000000E+00 0. -1.
         21   -1    0    0  501  502  0.00000000000E+00 -0.00000000000E+00 -0.21642561760E+04  0.21642561760E+04  0.00000000000E+00 0. -1.
        -13    1    1    2    0    0  0.47607456449E+02 -0.24218989369E+03 -0.12895359241E+03  0.27848061813E+03  0.10566000000E+00 0.  1.
         13    1    1    2    0    0 -0.46550142661E+03  0.13972864602E+03 -0.54902640777E+03  0.73324326133E+03  0.10566000000E+00 0. -1.
         -4    1    1    2    0  502  0.41789397016E+03  0.10246124767E+03 -0.12843252072E+04  0.13544832651E+04  0.00000000000E+00 0. -1.
</event>
<event>
 5    1  0.8445827E-005  0.2158598E+03  0.7818608E-02  0.1049775E+00
         21   -1    0    0  501  502  0.00000000000E+00  0.00000000000E+00  0.15343614107E+03  0.15343614107E+03  0.00000000000E+00 0. -1.
          4   -1    0    0  502    0 -0.00000000000E+00 -0.00000000000E+00 -0.58070933385E+03  0.58070933385E+03  0.00000000000E+00 0.  1.
        -13    1    1    2    0    0  0.11188192205E+03 -0.20873703016E+03 -0.30966000233E+02  0.23884642886E+03  0.10566000000E+00 0.  1.
         13    1    1    2    0    0 -0.66517784507E+02  0.20047879979E+03 -0.39642724786E+03  0.44918920160E+03  0.10566000000E+00 0. -1.
          4    1    1    2  501    0 -0.45364137542E+02  0.82582303718E+01  0.12005531690E+00  0.46109844470E+02  0.00000000000E+00 0.  1.
</event>
<event>
 5    1  0.8445827E-005  0.5941860E+03  0.7818608E-02  0.9292475E-01
         -4   -1    0    0    0  501 -0.00000000000E+00  0.00000000000E+00  0.39392073276E+04  0.39392073276E+04  0.00000000000E+00 0. -1.
         21   -1    0    0  501  502  0.00000000000E+00 -0.00000000000E+00 -0.18815967791E+03  0.18815967791E+03  0.00000000000E+00 0.  1.
        -13    1    1    2    0    0  0.28508136078E+03 -0.51191688855E+03  0.58271126661E+03  0.82636717895E+03  0.10566000000E+00 0.  1.
         13    1    1    2    0    0 -0.29216353797E+03  0.51952846984E+03  0.32065089934E+04  0.32614366925E+04  0.10566000000E+00 0. -1.
         -4    1    1    2    0  502  0.70821771841E+01 -0.76115812959E+01 -0.38172610237E+02  0.39563134049E+02  0.00000000000E+00 0. -1.
</event>
<event>
 5    1  0.8445827E-005  0.3551428E+03  0.7818608E-02  0.9892467E-01
         21   -1    0    0  501  502  0.00000000000E+00  0.00000000000E+00  0.21650741691E+03  0.21650741691E+03  0.00000000000E+00 0.  1.
          4   -1    0    0  502    0 -0.00000000000E+00 -0.00000000000E+00 -0.22911097704E+04  0.22911097704E+04  0.00000000000E+00 0.  1.
        -13    1    1    2    0    0 -0.22765581082E+03  0.26333607281E+01 -0.13308756246E+04  0.13502088884E+04  0.10566000000E+00 0.  1.
         13    1    1    2    0    0  0.68675944709E+01 -0.32746166603E+03 -0.68632701747E+03  0.76047557005E+03  0.10566000000E+00 0. -1.
          4    1    1    2  501    0  0.22078821635E+03  0.32482830530E+03 -0.57399711381E+02  0.39693272890E+03  0.00000000000E+00 0.  1.
</event>
<event>
 5    1  0.8445827E-005  0.5000803E+02  0.7818608E-02  0.1291756E+00
          4   -1    0    0  502    0 -0.00000000000E+00  0.00000000000E+00  0.26227763917E+03  0.26227763917E+03  0.00000000000E+00 0.  1.
         21   -1    0    0  501  502  0.00000000000E+00 -0.00000000000E+00 -0.20194000375E+02  0.20194000375E+02  0.00000000000E+00 0.  1.
        -13    1    1    2    0    0  0.33479412687E+02 -0.39202693728E+02  0.19278929515E+03  0.19956313727E+03  0.10566000000E+00 0.  1.
         13    1    1    2    0    0 -0.41965499084E+02  0.22123281315E+02  0.37635976643E+02  0.60555929449E+02  0.10566000000E+00 0. -1.
          4    1    1    2  501    0  0.84860863963E+01  0.17079412413E+02  0.11658367002E+02  0.22352572824E+02  0.00000000000E+00 0.  1.
</event>
<event>
 5    1  0.8445827E-005  0.4698323E+03  0.7818608E-02  0.9806543E-01
          4   -1    0    0  502    0 -0.00000000000E+00  0.00000000000E+00  0.11166686635E+04  0.11166686635E+04  0.00000000000E+00 0.  1.
         21   -1    0    0  501  502  0.00000000000E+00 -0.00000000000E+00 -0.29592517367E+03  0.29592517367E+03  0.00000000000E+00 0.  1.
        -13    1    1    2    0    0 -0.96043904194E+02 -0.38967929466E+03  0.41205778223E+03  0.57520953685E+03  0.10566000000E+00 0.  1.
         13    1    1    2    0    0  0.11739201121E+03 -0.14829135693E+03  0.14234380254E+03  0.23671286429E+03  0.10566000000E+00 0. -1.
          4    1    1    2  501    0 -0.21348107015E+02  0.53797065159E+03  0.26634190502E+03  0.60067143599E+03  0.00000000000E+00 0.  1.
</event>
<event>
 5    1  0.8445827E-005  0.4909190E+03  0.7818608E-02  0.9498101E-01
         21   -1    0    0  501  502  0.00000000000E+00  0.00000000000E+00  0.38711696890E+03  0.38711696890E+03  0.00000000000E+00 0. -1.
         -4   -1    0    0    0  501 -0.00000000000E+00 -0.00000000000E+00 -0.14511412053E+04  0.14511412053E+04  0.00000000000E+00 0. -1.
        -13    1    1    2    0    0 -0.32630816813E+03 -0.24858855599E+03 -0.29139596045E+03  0.50317482815E+03  0.10566000000E+00 0.  1.
         13    1    1    2    0    0  0.49893915161E+03  0.23645213940E+03 -0.94267187579E+03  0.10924651792E+04  0.10566000000E+00 0. -1.
         -4    1    1    2    0  502 -0.17263098348E+03  0.12136416590E+02  0.17004359980E+03  0.24261816688E+03  0.00000000000E+00 0. -1.
</event>
<event>
 5    1  0.8445827E-005  0.5025974E+03  0.7818608E-02  0.9472297E-01
         21   -1    0    0  501  502  0.00000000000E+00  0.00000000000E+00  0.32532482794E+03  0.32532482794E+03  0.00000000000E+00 0.  1.
         -4   -1    0    0    0  501 -0.00000000000E+00 -0.00000000000E+00 -0.35969776376E+04  0.35969776376E+04  0.00000000000E+00 0. -1.
        -13    1    1    2    0    0  0.42438948000E+03  0.62406254089E+03 -0.79130928212E+03  0.10934947996E+04  0.10566000000E+00 0.  1.
         13    1    1    2    0    0 -0.22532895189E+03 -0.40883721442E+03 -0.24920602865E+04  0.25354063751E+04  0.10566000000E+00 0. -1.
         -4    1    1    2    0  502 -0.19906052811E+03 -0.21522532647E+03  0.11716758916E+02  0.29340129080E+03  0.00000000000E+00 0. -1.
</event>
<event>
 5    1  0.8445827E-005  0.4925171E+03  0.7818608E-02  0.9584344E-01
          4   -1    0    0  502    0 -0.00000000000E+00  0.00000000000E+00  0.30115789044E+04  0.30115789044E+04  0.00000000000E+00 0.  1.
         21   -1    0    0  501  502  0.00000000000E+00 -0.00000000000E+00 -0.22600621440E+03  0.22600621440E+03  0.00000000000E+00 0. -1.
        -13    1    1    2    0    0 -0.23629962392E+02 -0.46802561662E+03  0.61380151261E+03  0.77224261795E+03  0.10566000000E+00 0.  1.
         13    1    1    2    0    0 -0.35388392813E+03  0.41775393131E+02  0.16662406395E+04  0.17039181019E+04  0.10566000000E+00 0. -1.
          4    1    1    2  501    0  0.37751389052E+03  0.42625022349E+03  0.50553053788E+03  0.76142439894E+03  0.00000000000E+00 0.  1.
</event>
<event>
 5    1  0.8445827E-005  0.7379998E+02  0.7818608E-02  0.1217096E+00
         21   -1    0    0  501  502  0.00000000000E+00  0.00000000000E+00  0.25271903955E+02  0.25271903955E+02  0.00000000000E+00 0. -1.
         -4   -1    0    0    0  501 -0.00000000000E+00 -0.00000000000E+00 -0.45107792756E+03  0.45107792756E+03  0.00000000000E+00 0. -1.
        -13    1    1    2    0    0 -0.21115359743E+02 -0.54878298153E+02 -0.92175019670E+02  0.10933312142E+03  0.10566000000E+00 0.  1.
         13    1    1    2    0    0  0.72924670236E+01  0.83991668250E+02 -0.32184002412E+03  0.33269925263E+03  0.10566000000E+00 0. -1.
         -4    1    1    2    0  502  0.13822892719E+02 -0.29113370098E+02 -0.11790979816E+02  0.34317457461E+02  0.00000000000E+00 0. -1.
</event>
<event>
 5    1  0.8445827E-005  0.4072643E+03  0.7818608E-02  0.1034774E+00
         21   -1    0    0  501  502  0.00000000000E+00  0.00000000000E+00  0.21377885683E+03  0.21377885683E+03  0.00000000000E+00 0. -1.
         -4   -1    0    0    0  501 -0.00000000000E+00 -0.00000000000E+00 -0.15311743419E+04  0.15311743419E+04  0.00000000000E+00 0. -1.
        -13    1    1    2    0    0 -0.23215567574E+02  0.44892574554E+02 -0.24229403835E+03  0.24750902612E+03  0.10566000000E+00 0.  1.
         13    1    1    2    0    0 -0.11991276262E+03  0.37936881818E+03 -0.79419715714E+02  0.40571821903E+03  0.10566000000E+00 0. -1.
         -4    1    1    2    0  502  0.14312833019E+03 -0.42426139274E+03 -0.99568173104E+03  0.10917259536E+04  0.00000000000E+00 0. -1.
</event>
<event>
 5    1  0.8445827E-005  0.2827122E+03  0.7818608E-02  0.1014708E+00
          4   -1    0    0  502    0 -0.00000000000E+00  0.00000000000E+00  0.53784867291E+03  0.53784867291E+03  0.00000000000E+00 0.  1.
         21   -1    0    0  501  502  0.00000000000E+00 -0.00000000000E+00 -0.17842464137E+03  0.17842464137E+03  0.00000000000E+00 0. -1.
        -13    1    1    2    0    0  0.14029394288E+03 -0.26522644255E+03  0.13197637139E+03  0.32778839212E+03  0.10566000000E+00 0.  1.
         13    1    1    2    0    0 -0.14000985167E+03  0.23288203153E+03  0.23005179597E+03  0.35603460389E+03  0.10566000000E+00 0. -1.
          4    1    1    2  501    0 -0.28409120983E+00  0.32344411023E+02 -0.26041358205E+01  0.32450318266E+02  0.00000000000E+00 0.  1.
</event>
<event>
 5    1  0.8445827E-005  0.4914291E+03  0.7818608E-02  0.9857465E-01
          4   -1    0    0  502    0 -0.00000000000E+00  0.00000000000E+00  0.66818749765E+03  0.66818749765E+03  0.00000000000E+00 0.  1.
         21   -1    0    0  501  502  0.00000000000E+00 -0.00000000000E+00 -0.69549575330E+03  0.69549575330E+03  0.00000000000E+00 0.  1.
        -13    1    1    2    0    0  0.43975844707E+03 -0.22837320222E+03 -0.28391325352E+03  0.57109417608E+03  0.10566000000E+00 0.  1.
         13    1    1    2    0    0  0.47335890671E+02  0.13075397071E+03  0.26106293037E+03  0.29578903323E+03  0.10566000000E+00 0. -1.
          4    1    1    2  501    0 -0.48709433774E+03  0.97619231510E+02 -0.44579324976E+01  0.49680004165E+03  0.00000000000E+00 0.  1.
</event>
<event>
 5    1  0.8445827E-005  0.3399007E+03  0.7818608E-02  0.1038867E+00
         21   -1    0    0  501  502  0.00000000000E+00  0.00000000000E+00  0.12476322917E+03  0.12476322917E+03  0.00000000000E+00 0. -1.
         -4   -1    0    0    0  501 -0.00000000000E+00 -0.00000000000E+00 -0.21976579968E+04  0.21976579968E+04  0.00000000000E+00 0. -1.
        -13    1    1    2    0    0  0.74657104729E+02  0.17754386706E+02 -0.21402553640E+03  0.22736719845E+03  0.10566000000E+00 0.  1.
         13    1    1    2    0    0  0.24102319482E+03  0.22561604568E+03 -0.19355130619E+03  0.38269687718E+03  0.10566000000E+00 0. -1.
         -4    1    1    2    0  502 -0.31568029954E+03 -0.24337043239E+03 -0.16653179251E+04  0.17123571504E+04  0.00000000000E+00 0. -1.
</event>
<event>
 5    1  0.8445827E-005  0.3175063E+03  0.7818608E-02  0.1025120E+00
         -4   -1    0    0    0  501 -0.00000000000E+00  0.00000000000E+00  0.27682240945E+04  0.27682240945E+04  0.00000000000E+00 0. -1.
         21   -1    0    0  501  502  0.00000000000E+00 -0.00000000000E+00 -0.12447273762E+03  0.12447273762E+03  0.00000000000E+00 0. -1.
        -13    1    1    2    0    0  0.65324955007E+02  0.12804006989E+03  0.44939232545E+03  0.47182102813E+03  0.10566000000E+00 0.  1.
         13    1    1    2    0    0 -0.99130938549E+02 -0.42872172410E+03  0.20287904121E+04  0.20759623810E+04  0.10566000000E+00 0. -1.
         -4    1    1    2    0  502  0.33805983542E+02  0.30068165421E+03  0.16556861933E+03  0.34491342307E+03  0.00000000000E+00 0. -1.
</event>
<event>
 5    1  0.8445827E-005  0.5948587E+03  0.7818608E-02  0.9291282E-01
          4   -1    0    0  502    0 -0.00000000000E+00  0.00000000000E+00  0.20490579385E+04  0.20490579385E+04  0.00000000000E+00 0.  1.
         21   -1    0    0  501  502  0.00000000000E+00 -0.00000000000E+00 -0.44047687716E+03  0.44047687716E+03  0.00000000000E+00 0. -1.
        -13    1    1    2    0    0  0.49266368768E+03  0.34387549256E+03  0.85969525853E+03  0.10488297346E+04  0.10566000000E+00 0.  1.
         13    1    1    2    0    0 -0.18757459189E+03 -0.64320851703E+03  0.75998217978E+03  0.10131507038E+04  0.10566000000E+00 0. -1.
          4    1    1    2  501    0 -0.30508909578E+03  0.29933302446E+03 -0.11096376969E+02  0.42755437722E+03  0.00000000000E+00 0.  1.
</event>
<event>
 5    1  0.8445827E-005  0.4967638E+03  0.7818608E-02  0.9774757E-01
         -4   -1    0    0    0  501 -0.00000000000E+00  0.00000000000E+00  0.54908020110E+03  0.54908020110E+03  0.00000000000E+00 0. -1.
         21   -1    0    0  501  502  0.00000000000E+00 -0.00000000000E+00 -0.13519972647E+04  0.13519972647E+04  0.00000000000E+00 0. -1.
        -13    1    1    2    0    0  0.17807875884E+03  0.10469438591E+02  0.33458071577E+03  0.37916476633E+03  0.10566000000E+00 0.  1.
         13    1    1    2    0    0  0.39415455139E+03  0.85181530947E+02 -0.29787664380E+03  0.50134240763E+03  0.10566000000E+00 0. -1.
         -4    1    1    2    0  502 -0.57223331023E+03 -0.95650969538E+02 -0.83962113555E+03  0.10205702918E+04  0.00000000000E+00 0. -1.
</event>
<event>
 5    1  0.8445827E-005  0.2697053E+03  0.7818608E-02  0.1020658E+00
          4   -1    0    0  502    0 -0.00000000000E+00  0.00000000000E+00  0.94398923197E+03  0.94398923197E+03  0.00000000000E+00 0.  1.
         21   -1    0    0  501  502  0.00000000000E+00 -0.00000000000E+00 -0.17234948902E+03  0.17234948902E+03  0.00000000000E+00 0. -1.
        -13    1    1    2    0    0 -0.94347990134E+02 -0.27473593269E+03  0.52381887625E+03  0.59897212141E+03  0.10566000000E+00 0.  1.
         13    1    1    2    0    0 -0.88063231077E+02  0.24689621026E+03  0.98618263637E+02  0.28006864230E+03  0.10566000000E+00 0. -1.
          4    1    1    2  501    0  0.18241122121E+03  0.27839722421E+02  0.14920260307E+03  0.23729795728E+03  0.00000000000E+00 0.  1.
</event>
<event>
 5    1  0.8445827E-005  0.4881374E+02  0.7818608E-02  0.1300556E+00
         -4   -1    0    0    0  501 -0.00000000000E+00  0.00000000000E+00  0.26953304421E+03  0.26953304421E+03  0.00000000000E+00 0. -1.
         21   -1    0    0  501  502  0.00000000000E+00 -0.00000000000E+00 -0.60966052491E+02  0.60966052491E+02  0.00000000000E+00 0.  1.
        -13    1    1    2    0    0 -0.43632391856E+02 -0.12119034039E+02 -0.26754623901E+02  0.52597316179E+02  0.10566000000E+00 0.  1.
         13    1    1    2    0    0  0.39632009846E+02  0.59191869630E+02  0.21496436152E+03  0.22645984528E+03  0.10566000000E+00 0. -1.
         -4    1    1    2    0  502  0.40003820101E+01 -0.47072835591E+02  0.20357254092E+02  0.51441935238E+02  0.00000000000E+00 0. -1.
</event>
<event>
 5    1  0.8445827E-005  0.1775629E+03  0.7818608E-02  0.1076711E+00
         21   -1    0    0  501  502  0.00000000000E+00  0.00000000000E+00  0.81859915076E+02  0.81859915076E+02  0.00000000000E+00 0.  1.
         -4   -1    0    0    0  501 -0.00000000000E+00 -0.00000000000E+00 -0.67568624664E+03  0.67568624664E+03  0.00000000000E+00 0. -1.
        -13    1    1    2    0    0  0.16471744540E+03 -0.60532746079E+02 -0.25031323227E+03  0.30570046709E+03  0.10566000000E+00 0.  1.
         13    1    1    2    0    0 -0.19239531133E+03 -0.29178524410E+02 -0.19045132396E+03  0.27228488770E+03  0.10566000000E+00 0. -1.
         -4    1    1    2    0  502  0.27677865930E+02  0.89711270489E+02 -0.15306177533E+03  0.17956080692E+03  0.00000000000E+00 0. -1.
</event>
<event>
 5    1  0.8445827E-005  0.3302933E+02  0.7818608E-02  0.1402643E+00
          4   -1    0    0  502    0 -0.00000000000E+00  0.00000000000E+00  0.99299079887E+01  0.99299079887E+01  0.00000000000E+00 0.  1.
         21   -1    0    0  501  502  0.00000000000E+00 -0.00000000000E+00 -0.55442922549E+03  0.55442922549E+03  0.00000000000E+00 0.  1.
        -13    1    1    2    0    0 -0.65951488995E+01 -0.39974210234E+02 -0.67370665640E+02  0.78614573875E+02  0.10566000000E+00 0.  1.
         13    1    1    2    0    0 -0.16506657247E+02  0.16504316581E+02 -0.33136336342E+02  0.40532581333E+02  0.10566000000E+00 0. -1.
          4    1    1    2  501    0  0.23101806147E+02  0.23469893653E+02 -0.44399231552E+03  0.44521197827E+03  0.00000000000E+00 0.  1.
</event>
<event>
 5    1  0.8445827E-005  0.3680571E+03  0.7818608E-02  0.9826122E-01
          4   -1    0    0  502    0 -0.00000000000E+00  0.00000000000E+00  0.17208333866E+04  0.17208333866E+04  0.00000000000E+00 0.  1.
         21   -1    0    0  501  502  0.00000000000E+00 -0.00000000000E+00 -0.29968948284E+03  0.29968948284E+03  0.00000000000E+00 0.  1.
        -13    1    1    2    0    0  0.14159090200E+03 -0.36839032769E+03  0.15396222410E+04  0.15894011682E+04  0.10566000000E+00 0.  1.
         13    1    1    2    0    0 -0.10526803996E+03  0.21253124846E+03 -0.92300301240E+01  0.23735226232E+03  0.10566000000E+00 0. -1.
          4    1    1    2  501    0 -0.36322862030E+02  0.15585907924E+03 -0.10924830711E+03  0.19376943901E+03  0.00000000000E+00 0.  1.
</event>
<event>
 5    1  0.8445827E-005  0.2811711E+03  0.7818608E-02  0.1032711E+00
         21   -1    0    0  501  502  0.00000000000E+00  0.00000000000E+00  0.63924136157E+03  0.63924136157E+03  0.00000000000E+00 0. -1.
         -4   -1    0    0    0  501 -0.00000000000E+00 -0.00000000000E+00 -0.15419825701E+04  0.15419825701E+04  0.00000000000E+00 0. -1.
        -13    1    1    2    0    0  0.14032236079E+03  0.34083269903E+03 -0.10695940283E+04  0.11313216564E+04  0.10566000000E+00 0.  1.
         13    1    1    2    0    0 -0.20378110127E+03  0.68296261685E+02  0.48320961570E+03  0.52885031953E+03  0.10566000000E+00 0. -1.
         -4    1    1    2    0  502  0.63458740484E+02 -0.40912896071E+03 -0.31635679585E+03  0.52105195568E+03  0.00000000000E+00 0. -1.
</event>
<event>
 5    1  0.8445827E-005  0.4203453E+02  0.7818608E-02  0.1328117E+00
         -4   -1    0    0    0  501 -0.00000000000E+00  0.00000000000E+00  0.92095546644E+02  0.92095546644E+02  0.00000000000E+00 0. -1.
         21   -1    0    0  501  502  0.00000000000E+00 -0.00000000000E+00 -0.56137026966E+02  0.56137026966E+02  0.00000000000E+00 0.  1.
        -13    1    1    2    0    0 -0.27025219040E+02  0.32076321723E+02 -0.12080616865E+02  0.43648658024E+02  0.10566000000E+00 0.  1.
         13    1    1    2    0    0  0.40250828784E+02 -0.15328336407E+02  0.64551246802E+02  0.77601299877E+02  0.10566000000E+00 0. -1.
         -4    1    1    2    0  502 -0.13225609744E+02 -0.16747985317E+02 -0.16512110260E+02  0.26982615709E+02  0.00000000000E+00 0. -1.
</event>
<event>
 5    1  0.8445827E-005  0.3832458E+03  0.7818608E-02  0.9778719E-01
          4   -1    0    0  502    0 -0.00000000000E+00  0.00000000000E+00  0.28235120377E+04  0.28235120377E+04  0.00000000000E+00 0.  1.
         21   -1    0    0  501  502  0.00000000000E+00 -0.00000000000E+00 -0.73301057487E+02  0.73301057487E+02  0.00000000000E+00 0. -1.
        -13    1    1    2    0    0  0.20525286986E+03 -0.36845985018E+03  0.17993170804E+04  0.18480891128E+04  0.10566000000E+00 0.  1.
         13    1    1    2    0    0 -0.19243158534E+03  0.27206970552E+03  0.82416267394E+03  0.88898591888E+03  0.10566000000E+00 0. -1.
          4    1    1    2  501    0 -0.12821284525E+02  0.96390144666E+02  0.12673122585E+03  0.15973806350E+03  0.00000000000E+00 0.  1.
</event>
<event>
 5    1  0.8445827E-005  0.3834923E+02  0.7818608E-02  0.1380790E+00
         21   -1    0    0  501  502  0.00000000000E+00  0.00000000000E+00  0.42664839446E+02  0.42664839446E+02  0.00000000000E+00 0.  1.
          4   -1    0    0  502    0 -0.00000000000E+00 -0.00000000000E+00 -0.81972219627E+02  0.81972219627E+02  0.00000000000E+00 0.  1.
        -13    1    1    2    0    0  0.37391093010E+02  0.33934505198E+02 -0.27323997250E+02  0.57413033967E+02  0.10566000000E+00 0.  1.
         13    1    1    2    0    0 -0.45775731321E+01 -0.21097469945E+02 -0.21765442864E+02  0.30656207870E+02  0.10566000000E+00 0. -1.
          4    1    1    2  501    0 -0.32813519878E+02 -0.12837035254E+02  0.97820599324E+01  0.36567817236E+02  0.00000000000E+00 0.  1.
</event>
<event>
 5    1  0.8445827E-005  0.3699179E+03  0.7818608E-02  0.1004610E+00
          4   -1    0    0  502    0 -0.00000000000E+00  0.00000000000E+00  0.28548010296E+04  0.28548010296E+04  0.00000000000E+00 0.  1.
         21   -1    0    0  501  502  0.00000000000E+00 -0.00000000000E+00 -0.12190932954E+03  0.12190932954E+03  0.00000000000E+00 0.  1.
        -13    1    1    2    0    0 -0.39078349282E+03 -0.52336271469E+02  0.30984427834E+03  0.50145220266E+03  0.10566000000E+00 0.  1.
         13    1    1    2    0    0  0.13334033694E+03  0.11274530950E+03  0.42031970185E+03  0.45514812226E+03  0.10566000000E+00 0. -1.
          4    1    1    2  501    0  0.25744315587E+03 -0.60409038030E+02  0.20027277198E+04  0.20201100342E+04  0.00000000000E+00 0.  1.
</event>
<event>
 5    1  0.8445827E-005  0.6923192E+02  0.7818608E-02  0.1228757E+00
         -4   -1    0    0    0  501 -0.00000000000E+00  0.00000000000E+00  0.25345785109E+02  0.25345785109E+02  0.00000000000E+00 0. -1.
         21   -1    0    0  501  502  0.00000000000E+00 -0.00000000000E+00 -0.50996806780E+03  0.50996806780E+03  0.00000000000E+00 0. -1.
        -13    1    1    2    0    0  0.38178233053E+02  0.47736662364E+02 -0.11120996667E+03  0.12690167163E+03  0.10566000000E+00 0.  1.
         13    1    1    2    0    0 -0.55196310995E+02 -0.50927569698E+02 -0.64449666171E+02  0.98964744917E+02  0.10566000000E+00 0. -1.
         -4    1    1    2    0  502  0.17018077943E+02  0.31909073338E+01 -0.30896264986E+03  0.30944743637E+03  0.00000000000E+00 0. -1.
</event>
<event>
 5    1  0.8445827E-005  0.4425198E+03  0.7818608E-02  0.9798521E-01
          4   -1    0    0  502    0 -0.00000000000E+00  0.00000000000E+00  0.28171542588E+04  0.28171542588E+04  0.00000000000E+00 0.  1.
         21   -1    0    0  501  502  0.00000000000E+00 -0.00000000000E+00 -0.13167277158E+03  0.13167277158E+03  0.00000000000E+00 0.  1.
        -13    1    1    2    0    0  0.49758241833E+03  0.48262353313E+02  0.59415002578E+03  0.77648682029E+03  0.10566000000E+00 0.  1.
         13    1    1    2    0    0 -0.19227294845E+03  0.13096744767E+03  0.76708080339E+03  0.80158239074E+03  0.10566000000E+00 0. -1.
          4    1    1    2  501    0 -0.30530946988E+03 -0.17922980099E+03  0.13242506581E+04  0.13707578194E+04  0.00000000000E+00 0.  1.
</event>
<event>
 5    1  0.8445827E-005  0.3439502E+03  0.7818608E-02  0.1003843E+00
         -4   -1    0    0    0  501 -0.00000000000E+00  0.00000000000E+00  0.20661609931E+04  0.20661609931E+04  0.00000000000E+00 0. -1.
         21   -1    0    0  501  502  0.00000000000E+00 -0.00000000000E+00 -0.24453402118E+03  0.24453402118E+03  0.00000000000E+00 0. -1.
        -13    1    1    2    0    0  0.18758868630E+03  0.12003351340E+03  0.96537638674E+03  0.99073161795E+03  0.10566000000E+00 0.  1.
         13    1    1    2    0    0 -0.27569630869E+02  0.21445095873E+03  0.91883157331E+03  0.94392837097E+03  0.10566000000E+00 0. -1.
         -4    1    1    2    0  502 -0.16001905543E+03 -0.33448447213E+03 -0.62580988155E+02  0.37603502533E+03  0.00000000000E+00 0. -1.
</event>
<event>
 5    1  0.8445827E-005  0.5384054E+03  0.7818608E-02  0.9397547E-01
          4   -1    0    0  502    0 -0.00000000000E+00  0.00000000000E+00  0.23662061746E+04  0.23662061746E+04  0.00000000000E+00 0.  1.
         21   -1    0    0  501  502  0.00000000000E+00 -0.00000000000E+00 -0.58609587497E+03  0.58609587497E+03  0.00000000000E+00 0.  1.
        -13    1    1    2    0    0 -0.50066714712E+03  0.29436042533E+03 -0.18064564567E+03  0.60823392923E+03  0.10566000000E+00 0.  1.
         13    1    1    2    0    0  0.50594047906E+03  0.24390899313E+03  0.16008927169E+04  0.16965626624E+04  0.10566000000E+00 0. -1.
          4    1    1    2  501    0 -0.52733319350E+01 -0.53826941847E+03  0.35986322835E+03  0.64750545790E+03  0.00000000000E+00 0.  1.
</event>
<event>
 5    1  0.8445827E-005  0.4504036E+03  0.7818608E-02  0.9593851E-01
         21   -1    0    0  501  502  0.00000000000E+00  0.00000000000E+00  0.18106388981E+03  0.18106388981E+03  0.00000000000E+00 0.  1.
         -4   -1    0    0    0  501 -0.00000000000E+00 -0.00000000000E+00 -0.20032924984E+04  0.20032924984E+04  0.00000000000E+00 0. -1.
        -13    1    1    2    0    0  0.22383263031E+03  0.39363401033E+03 -0.44974536887E+03  0.63821602022E+03  0.10566000000E+00 0.  1.
         13    1    1    2    0    0 -0.24821006095E+03 -0.37510193783E+03 -0.14200434112E+04  0.14895747712E+04  0.10566000000E+00 0. -1.
         -4    1    1    2    0  502  0.24377430644E+02 -0.18532072506E+02  0.47560171449E+02  0.56565596827E+02  0.00000000000E+00 0. -1.
</event>
<event>
 5    1  0.8445827E-005  0.1236813E+03  0.7818608E-02  0.1130415E+00
          4   -1    0    0  502    0 -0.00000000000E+00  0.00000000000E+00  0.73156200702E+03  0.73156200702E+03  0.00000000000E+00 0.  1.
         21   -1    0    0  501  502  0.00000000000E+00 -0.00000000000E+00 -0.12986979348E+03  0.12986979348E+03  0.00000000000E+00 0. -1.
        -13    1    1    2    0    0  0.52018918906E+02 -0.11329955162E+03  0.68435134349E+03  0.69561449727E+03  0.10566000000E+00 0.  1.
         13    1    1    2    0    0 -0.48662566639E+02  0.99185827123E+02 -0.34836156032E+02  0.11584231794E+03  0.10566000000E+00 0. -1.
          4    1    1    2  501    0 -0.33563522670E+01  0.14113724500E+02 -0.47822973923E+02  0.49974985289E+02  0.00000000000E+00 0.  1.
</event>
<event>
 5    1  0.8445827E-005  0.2259632E+02  0.7818608E-02  0.1476649E+00
         21   -1    0    0  501  502  0.00000000000E+00  0.00000000000E+00  0.22624641020E+03  0.22624641020E+03  0.00000000000E+00 0.  1.
          4   -1    0    0  502    0 -0.00000000000E+00 -0.00000000000E+00 -0.12008551726E+03  0.12008551726E+03  0.00000000000E+00 0.  1.
        -13    1    1    2    0    0 -0.58269902270E+01 -0.21454254047E+02 -0.10257090756E+03  0.10495256583E+03  0.10566000000E+00 0.  1.
         13    1    1    2    0    0  0.28220693075E+02  0.21503646524E+02  0.43170058379E+01  0.35741600901E+02  0.10566000000E+00 0. -1.
          4    1    1    2  501    0 -0.22393702848E+02 -0.49392476530E-01  0.20441479466E+03  0.20563776074E+03  0.00000000000E+00 0.  1.
</event>
<event>
 5    1  0.8445827E-005  0.3976197E+03  0.7818608E-02  0.9956375E-01
         -4   -1    0    0    0  501 -0.00000000000E+00  0.00000000000E+00  0.10729587573E+04  0.10729587573E+04  0.00000000000E+00 0. -1.
         21   -1    0    0  501  502  0.00000000000E+00 -0.00000000000E+00 -0.34818876380E+03  0.34818876380E+03  0.00000000000E+00 0. -1.
        -13    1    1    2    0    0  0.73369782880E+02 -0.17380540193E+03  0.21051699034E+03  0.28268154727E+03  0.10566000000E+00 0.  1.
         13    1    1    2    0    0  0.36961479904E+02  0.42866644651E+03 -0.11949165582E+03  0.44654153260E+03  0.10566000000E+00 0. -1.
         -4    1    1    2    0  502 -0.11033126278E+03 -0.25486104458E+03  0.63374465897E+03  0.69192444122E+03  0.00000000000E+00 0. -1.
</event>
<event>
 5    1  0.8445827E-005  0.7067570E+03  0.7818608E-02  0.9113233E-01
          4   -1    0    0  502    0 -0.00000000000E+00  0.00000000000E+00  0.13673094388E+04  0.13673094388E+04  0.00000000000E+00 0.  1.
         21   -1    0    0  501  502  0.00000000000E+00 -0.00000000000E+00 -0.73007926997E+03  0.73007926997E+03  0.00000000000E+00 0. -1.
        -13    1    1    2    0    0 -0.41313954359E+03  0.75034381249E+03  0.11421339737E+03  0.86414398727E+03  0.10566000000E+00 0.  1.
         13    1    1    2    0    0  0.50745928300E+03 -0.42622091060E+03  0.59209466828E+03  0.88868177426E+03  0.10566000000E+00 0. -1.
          4    1    1    2  501    0 -0.94319739402E+02 -0.32412290189E+03 -0.69077896842E+02  0.34456294723E+03  0.00000000000E+00 0.  1.
</event>
<event>
 5    1  0.8445827E-005  0.3506309E+03  0.7818608E-02  0.9959824E-01
          4   -1    0    0  502    0 -0.00000000000E+00  0.00000000000E+00  0.13735163919E+04  0.13735163919E+04  0.00000000000E+00 0.  1.
         21   -1    0    0  501  502  0.00000000000E+00 -0.00000000000E+00 -0.40418256467E+03  0.40418256467E+03  0.00000000000E+00 0.  1.
        -13    1    1    2    0    0 -0.21447658119E+03 -0.19799199037E+03  0.75584598428E+03  0.81024946483E+03  0.10566000000E+00 0.  1.
         13    1    1    2    0    0  0.34242884676E+03 -0.12845895638E+03  0.42284784730E+03  0.55907023861E+03  0.10566000000E+00 0. -1.
          4    1    1    2  501    0 -0.12795226557E+03  0.32645094676E+03 -0.20936000440E+03  0.40837925308E+03  0.00000000000E+00 0.  1.
</event>
<event>
 5    1  0.8445827E-005  0.2063996E+03  0.7818608E-02  0.1055835E+00
         -4   -1    0    0    0  501 -0.00000000000E+00  0.00000000000E+00  0.12557117054E+04  0.12557117054E+04  0.00000000000E+00 0. -1.
         21   -1    0    0  501  502  0.00000000000E+00 -0.00000000000E+00 -0.80534179997E+02  0.80534179997E+02  0.00000000000E+00 0. -1.
        -13    1    1    2    0    0 -0.16709271795E+03 -0.94808196415E+02  0.60737644898E+03  0.63703589572E+03  0.10566000000E+00 0.  1.
         13    1    1    2    0    0  0.16641003479E+03  0.16136068027E+03  0.58602655999E+03  0.63020370436E+03  0.10566000000E+00 0. -1.
         -4    1    1    2    0  502  0.68268315769E+00 -0.66552483856E+02 -0.18225483553E+02  0.69006285326E+02  0.00000000000E+00 0. -1.
</event>
<event>
 5    1  0.8445827E-005  0.8798268E+02  0.7818608E-02  0.1186132E+00
         21   -1    0    0  501  502  0.00000000000E+00  0.00000000000E+00  0.49060125238E+03  0.49060125238E+03  0.00000000000E+00 0.  1.
          4   -1    0    0  502    0 -0.00000000000E+00 -0.00000000000E+00 -0.30919182037E+02  0.30919182037E+02  0.00000000000E+00 0.  1.
        -13    1    1    2    0    0 -0.43713658571E+02  0.77054262711E+02  0.73459203820E+02  0.11508479108E+03  0.10566000000E+00 0.  1.
         13    1    1    2    0    0  0.72043722542E+02 -0.56172649545E+02  0.28263450112E+03  0.29703187860E+03  0.10566000000E+00 0. -1.
          4    1    1    2  501    0 -0.28330063971E+02 -0.20881613166E+02  0.10358836540E+03  0.10940376474E+03  0.00000000000E+00 0.  1.
</event>
<event>
 5    1  0.8445827E-005  0.2649088E+03  0.7818608E-02  0.1060529E+00
          4   -1    0    0  502    0 -0.00000000000E+00  0.00000000000E+00  0.22654453822E+03  0.22654453822E+03  0.00000000000E+00 0.  1.
         21   -1    0    0  501  502  0.00000000000E+00 -0.00000000000E+00 -0.69896129246E+03  0.69896129246E+03  0.00000000000E+00 0.  1.
        -13    1    1    2    0    0 -0.31895236453E+03 -0.43814552641E+02 -0.12774193306E+02  0.32220105065E+03  0.10566000000E+00 0.  1.
         13    1    1    2    0    0  0.65626926791E+02  0.54151790005E+02 -0.81215095789E+01  0.85470930512E+02  0.10566000000E+00 0. -1.
          4    1    1    2  501    0  0.25332543774E+03 -0.10337237364E+02 -0.45152105135E+03  0.51783384951E+03  0.00000000000E+00 0.  1.
</event>
<event>
 5    1  0.8445827E-005  0.3059530E+02  0.7818608E-02  0.1409730E+00
         -4   -1    0    0    0  501 -0.00000000000E+00  0.00000000000E+00  0.85169389275E+02  0.85169389275E+02  0.00000000000E+00 0. -1.
         21   -1    0    0  501  502  0.00000000000E+00 -0.00000000000E+00 -0.23363833174E+03  0.23363833174E+03  0.00000000000E+00 0. -1.
        -13    1    1    2    0    0 -0.46142274865E+02  0.18599748631E+02 -0.58949670793E+02  0.77137118364E+02  0.10566000000E+00 0.  1.
         13    1    1    2    0    0  0.26622384946E+02  0.81526365150E+01  0.71788318704E+02  0.76998641083E+02  0.10566000000E+00 0. -1.
         -4    1    1    2    0  502  0.19519889920E+02 -0.26752385146E+02 -0.16130759037E+03  0.16467196156E+03  0.00000000000E+00 0. -1.
</event>
<event>
 5    1  0.8445827E-005  0.1839734E+03  0.7818608E-02  0.1071715E+00
         21   -1    0    0  501  502  0.00000000000E+00  0.00000000000E+00  0.40550145532E+02  0.40550145532E+02  0.00000000000E+00 0.  1.
         -4   -1    0    0    0  501 -0.00000000000E+00 -0.00000000000E+00 -0.14894733134E+04  0.14894733134E+04  0.00000000000E+00 0. -1.
        -13    1    1    2    0    0 -0.26686736264E+02  0.17496911504E+03 -0.94927594418E+03  0.96563512905E+03  0.10566000000E+00 0.  1.
         13    1    1    2    0    0 -0.13531604708E+02 -0.20712717427E+03 -0.43285805519E+03  0.48005299474E+03  0.10566000000E+00 0. -1.
         -4    1    1    2    0  502  0.40218340972E+02  0.32158059237E+02 -0.66789168514E+02  0.84335335152E+02  0.00000000000E+00 0. -1.
</event>
<event>
 5    1  0.8445827E-005  0.4625988E+03  0.7818608E-02  0.9563945E-01
         21   -1    0    0  501  502  0.00000000000E+00  0.00000000000E+00  0.35104030281E+03  0.35104030281E+03  0.00000000000E+00 0. -1.
         -4   -1    0    0    0  501 -0.00000000000E+00 -0.00000000000E+00 -0.18833688148E+04  0.18833688148E+04  0.00000000000E+00 0. -1.
        -13    1    1    2    0    0 -0.45590354256E+03 -0.14821981343E+02 -0.12231763695E+04  0.13054609046E+04  0.10566000000E+00 0.  1.
         13    1    1    2    0    0  0.50126566601E+03  0.15926173320E+03  0.60565934800E+02  0.52943348137E+03  0.10566000000E+00 0. -1.
         -4    1    1    2    0  502 -0.45362123450E+02 -0.14443975185E+03 -0.36971807726E+03  0.39951473166E+03  0.00000000000E+00 0. -1.
</event>
<event>
 5    1  0.8445827E-005  0.5764021E+02  0.7818608E-02  0.1331951E+00
         21   -1    0    0  501  502  0.00000000000E+00  0.00000000000E+00  0.87166019852E+02  0.87166019852E+02  0.00000000000E+00 0.  1.
          4   -1    0    0  502    0 -0.00000000000E+00 -0.00000000000E+00 -0.72402655965E+02  0.72402655965E+02  0.00000000000E+00 0.  1.
        -13    1    1    2    0    0 -0.48581214241E+02  0.41063977296E+02 -0.26317493193E+01  0.63665704088E+02  0.10566000000E+00 0.  1.
         13    1    1    2    0    0  0.14874957833E+02  0.30463050456E+01 -0.22779902005E+02  0.27376622223E+02  0.10566000000E+00 0. -1.
          4    1    1    2  501    0  0.33706256409E+02 -0.44110282341E+02  0.40175015211E+02  0.68526349506E+02  0.00000000000E+00 0.  1.
</event>
<event>
 5    1  0.8445827E-005  0.5018743E+03  0.7818608E-02  0.9786333E-01
         21   -1    0    0  501  502  0.00000000000E+00  0.00000000000E+00  0.22438245933E+03  0.22438245933E+03  0.00000000000E+00 0. -1.
         -4   -1    0    0    0  501 -0.00000000000E+00 -0.00000000000E+00 -0.15716522632E+04  0.15716522632E+04  0.00000000000E+00 0. -1.
        -13    1    1    2    0    0  0.41454747466E+02  0.16101211855E+03 -0.16401103813E+03  0.23354449298E+03  0.10566000000E+00 0.  1.
         13    1    1    2    0    0 -0.36091822190E+03  0.28369925652E+03 -0.66855435619E+03  0.81099455571E+03  0.10566000000E+00 0. -1.
         -4    1    1    2    0  502  0.31946347443E+03 -0.44471137507E+03 -0.51470440960E+03  0.75149567389E+03  0.00000000000E+00 0. -1.
</event>
<event>
 5    1  0.8445827E-005  0.3166936E+03  0.7818608E-02  0.1000643E+00
         21   -1    0    0  501  502  0.00000000000E+00  0.00000000000E+00  0.15565004429E+04  0.15565004429E+04  0.00000000000E+00 0.  1.
          4   -1    0    0  502    0 -0.00000000000E+00 -0.00000000000E+00 -0.10612052074E+03  0.10612052074E+03  0.00000000000E+00 0.  1.
        -13    1    1    2    0    0 -0.29573204387E+03 -0.21959913950E+03  0.65798995080E+03  0.75407692602E+03  0.10566000000E+00 0.  1.
         13    1    1    2    0    0  0.25060812915E+03  0.14420510297E+03  0.33380259969E+03  0.44161491465E+03  0.10566000000E+00 0. -1.
          4    1    1    2  501    0  0.45123914712E+02  0.75394036538E+02  0.45858737170E+03  0.46692912300E+03  0.00000000000E+00 0.  1.
</event>
<event>
 5    1  0.8445827E-005  0.3166039E+02  0.7818608E-02  0.1392052E+00
          4   -1    0    0  502    0 -0.00000000000E+00  0.00000000000E+00  0.12541423473E+03  0.12541423473E+03  0.00000000000E+00 0.  1.
         21   -1    0    0  501  502  0.00000000000E+00 -0.00000000000E+00 -0.72462682120E+02  0.72462682120E+02  0.00000000000E+00 0. -1.
        -13    1    1    2    0    0 -0.23410666015E+01  0.31456767649E+02  0.11433394655E+03  0.11860552820E+03  0.10566000000E+00 0.  1.
         13    1    1    2    0    0 -0.96816548721E+01 -0.35493779266E+02 -0.50977311842E+02  0.62866845748E+02  0.10566000000E+00 0. -1.
          4    1    1    2  501    0  0.12022721474E+02  0.40370116173E+01 -0.10405082092E+02  0.16404542901E+02  0.00000000000E+00 0.  1.
</event>
<event>
 5    1  0.8445827E-005  0.5641153E+02  0.7818608E-02  0.1267680E+00
          4   -1    0    0  502    0 -0.00000000000E+00  0.00000000000E+00  0.25887219156E+02  0.25887219156E+02  0.00000000000E+00 0.  1.
         21   -1    0    0  501  502  0.00000000000E+00 -0.00000000000E+00 -0.44529223080E+03  0.44529223080E+03  0.00000000000E+00 0.  1.
        -13    1    1    2    0    0  0.54844799851E+02  0.25037242207E+02 -0.17237870769E+02  0.62705429755E+02  0.10566000000E+00 0.  1.
         13    1    1    2    0    0 -0.41317949788E+02 -0.19869128266E+01 -0.17928656956E+03  0.18399675537E+03  0.10566000000E+00 0. -1.
          4    1    1    2  501    0 -0.13526850064E+02 -0.23050329380E+02 -0.22288057131E+03  0.22447726483E+03  0.00000000000E+00 0.  1.
</event>
<event>
 5    1  0.8445827E-005  0.4850031E+03  0.7818608E-02  0.9717834E-01
          4   -1    0    0  502    0 -0.00000000000E+00  0.00000000000E+00  0.13663769613E+04  0.13663769613E+04  0.00000000000E+00 0.  1.
         21   -1    0    0  501  502  0.00000000000E+00 -0.00000000000E+00 -0.31143889600E+03  0.31143889600E+03  0.00000000000E+00 0.  1.
        -13    1    1    2    0    0  0.54979636059E+03 -0.13690476350E+03  0.13270118173E+03  0.58191800727E+03  0.10566000000E+00 0.  1.
         13    1    1    2    0    0 -0.23167584573E+03 -0.27345532072E+02  0.39013947034E+03  0.45456604922E+03  0.10566000000E+00 0. -1.
          4    1    1    2  501    0 -0.31812051486E+03  0.16425029557E+03  0.53209741319E+03  0.64133180078E+03  0.00000000000E+00 0.  1.
</event>
<event>
 5    1  0.8445827E-005  0.1652487E+03  0.7818608E-02  0.1086975E+00
          4   -1    0    0  502    0 -0.00000000000E+00  0.00000000000E+00  0.19045561351E+03  0.19045561351E+03  0.00000000000E+00 0.  1.
         21   -1    0    0  501  502  0.00000000000E+00 -0.00000000000E+00 -0.41661973138E+03  0.41661973138E+03  0.00000000000E+00 0. -1.
        -13    1    1    2    0    0 -0.58308202866E+02 -0.14998742911E+03  0.76213333311E+01  0.16110298352E+03  0.10566000000E+00 0.  1.
         13    1    1    2    0    0  0.54452845136E+02  0.16011726014E+03  0.38517398997E+02  0.17345388589E+03  0.10566000000E+00 0. -1.
          4    1    1    2  501    0  0.38553577296E+01 -0.10129831034E+02 -0.27230285019E+03  0.27251847549E+03  0.00000000000E+00 0.  1.
</event>
<event>
 5    1  0.8445827E-005  0.4684003E+03  0.7818608E-02  0.9865151E-01
         -4   -1    0    0    0  501 -0.00000000000E+00  0.00000000000E+00  0.60282334274E+03  0.60282334274E+03  0.00000000000E+00 0. -1.
         21   -1    0    0  501  502  0.00000000000E+00 -0.00000000000E+00 -0.62396088466E+03  0.62396088466E+03  0.00000000000E+00 0. -1.
        -13    1    1    2    0    0 -0.12488002813E+02 -0.15598596534E+03  0.63866953468E+02  0.16901647999E+03  0.10566000000E+00 0.  1.
         13    1    1    2    0    0 -0.24849436169E+03  0.50351938750E+03  0.12473861767E+03  0.57518775655E+03  0.10566000000E+00 0. -1.
         -4    1    1    2    0  502  0.26098236451E+03 -0.34753342216E+03 -0.20974311305E+03  0.48257999086E+03  0.00000000000E+00 0. -1.
</event>
<event>
 5    1  0.8445827E-005  0.5702310E+03  0.7818608E-02  0.9336043E-01
         21   -1    0    0  501  502  0.00000000000E+00  0.00000000000E+00  0.28438328135E+03  0.28438328135E+03  0.00000000000E+00 0.  1.
         -4   -1    0    0    0  501 -0.00000000000E+00 -0.00000000000E+00 -0.31559864785E+04  0.31559864785E+04  0.00000000000E+00 0. -1.
        -13    1    1    2    0    0 -0.43619330560E+03  0.47425701308E+03 -0.14770819707E+04  0.16115072056E+04  0.10566000000E+00 0.  1.
         13    1    1    2    0    0  0.59578201037E+03  0.66584937752E+02 -0.55116794721E+03  0.81435611069E+03  0.10566000000E+00 0. -1.
         -4    1    1    2    0  502 -0.15958870478E+03 -0.54084195084E+03 -0.84335327921E+03  0.10145064436E+04  0.00000000000E+00 0. -1.
</event>
<event>
 5    1  0.8445827E-005  0.4978502E+03  0.7818608E-02  0.9878505E-01
         21   -1    0    0  501  502  0.00000000000E+00  0.00000000000E+00  0.15444041328E+03  0.15444041328E+03  0.00000000000E+00 0. -1.
         -4   -1    0    0    0  501 -0.00000000000E+00 -0.00000000000E+00 -0.21891723612E+04  0.21891723612E+04  0.00000000000E+00 0. -1.
        -13    1    1    2    0    0  0.10758861083E+03 -0.62846499852E+02 -0.45801189361E+03  0.47465766356E+03  0.10566000000E+00 0.  1.
         13    1    1    2    0    0 -0.25511220236E+03  0.48664480990E+03 -0.77193120599E+03  0.94751422403E+03  0.10566000000E+00 0. -1.
         -4    1    1    2    0  502  0.14752359153E+03 -0.42379831005E+03 -0.80478884834E+03  0.92144088691E+03  0.00000000000E+00 0. -1.
</event>
<event>
 5    1  0.8445827E-005  0.4297421E+02  0.7818608E-02  0.1323376E+00
          4   -1    0    0  502    0 -0.00000000000E+00  0.00000000000E+00  0.80496926116E+02  0.80496926116E+02  0.00000000000E+00 0.  1.
         21   -1    0    0  501  502  0.00000000000E+00 -0.00000000000E+00 -0.42610432833E+03  0.42610432833E+03  0.00000000000E+00 0.  1.
        -13    1    1    2    0    0 -0.14440968497E+02 -0.39084462455E+02  0.58374833056E+02  0.71720074421E+02  0.10566000000E+00 0.  1.
         13    1    1    2    0    0 -0.32513405859E+01  0.58113495454E+02 -0.41537073678E+02  0.71505868454E+02  0.10566000000E+00 0. -1.
          4    1    1    2  501    0  0.17692309083E+02 -0.19029032999E+02 -0.36244516159E+03  0.36337531157E+03  0.00000000000E+00 0.  1.
</event>
<event>
 5    1  0.8445827E-005  0.4182691E+03  0.7818608E-02  0.1034220E+00
          4   -1    0    0  502    0 -0.00000000000E+00  0.00000000000E+00  0.95039988242E+03  0.95039988242E+03  0.00000000000E+00 0.  1.
         21   -1    0    0  501  502  0.00000000000E+00 -0.00000000000E+00 -0.33513137435E+03  0.33513137435E+03  0.00000000000E+00 0.  1.
        -13    1    1    2    0    0 -0.38715040693E+03 -0.16924263629E+03 -0.10417163446E+03  0.43517840952E+03  0.10566000000E+00 0.  1.
         13    1    1    2    0    0  0.49376324724E+01  0.47194872179E+02  0.43898934619E+02  0.64644131978E+02  0.10566000000E+00 0. -1.
          4    1    1    2  501    0  0.38221277445E+03  0.12204776411E+03  0.67554120791E+03  0.78570871528E+03  0.00000000000E+00 0.  1.
</event>
<event>
 5    1  0.8445827E-005  0.8767017E+03  0.7818608E-02  0.8899959E-01
         21   -1    0    0  501  502  0.00000000000E+00  0.00000000000E+00  0.43942534496E+03  0.43942534496E+03  0.00000000000E+00 0. -1.
          4   -1    0    0  502    0 -0.00000000000E+00 -0.00000000000E+00 -0.27776993078E+04  0.27776993078E+04  0.00000000000E+00 0.  1.
        -13    1    1    2    0    0 -0.22112495804E+03  0.97348118383E+03 -0.73225800254E+03  0.12380483253E+04  0.10566000000E+00 0.  1.
         13    1    1    2    0    0 -0.56686032668E+02 -0.82890680665E+03 -0.12881337708E+04  0.15328367242E+04  0.10566000000E+00 0. -1.
          4    1    1    2  501    0  0.27781099071E+03 -0.14457437718E+03 -0.31788218949E+03  0.44623960323E+03  0.00000000000E+00 0.  1.
</event>
<event>
 5    1  0.9304481E-005  0.4156237E+03  0.7818608E-02  0.9736618E-01
          4   -1    0    0  502    0 -0.00000000000E+00  0.00000000000E+00  0.20089178073E+04  0.20089178073E+04  0.00000000000E+00 0.  1.
         21   -1    0    0  501  502  0.00000000000E+00 -0.00000000000E+00 -0.52466609170E+03  0.52466609170E+03  0.00000000000E+00 0.  1.
        -13    1    1    2    0    0  0.17973056487E+03 -0.27724495249E+03  0.10590233909E+04  0.11093684660E+04  0.10566000000E+00 0.  1.
         13    1    1    2    0    0 -0.41474323478E+03  0.66643491531E+03  0.54312848392E+03  0.95453444587E+03  0.10566000000E+00 0. -1.
          4    1    1    2  501    0  0.23501266992E+03 -0.38918996282E+03 -0.11790015921E+03  0.46968098718E+03  0.00000000000E+00 0.  1.
</event>
<event>
 5    1  0.8445827E-005  0.4619744E+03  0.7818608E-02  0.9597442E-01
         21   -1    0    0  501  502  0.00000000000E+00  0.00000000000E+00  0.42575544631E+03  0.42575544631E+03  0.00000000000E+00 0.  1.
          4   -1    0    0  502    0 -0.00000000000E+00 -0.00000000000E+00 -0.13022481882E+04  0.13022481882E+04  0.00000000000E+00 0.  1.
        -13    1    1    2    0    0 -0.49160490861E+03 -0.41407573104E+03 -0.44170136103E+03  0.77989371116E+03  0.10566000000E+00 0.  1.
         13    1    1    2    0    0  0.74597510351E+02  0.40529047413E+03 -0.30014380887E+03  0.50981513722E+03  0.10566000000E+00 0. -1.
          4    1    1    2  501    0  0.41700739826E+03  0.87852569038E+01 -0.13464757204E+03  0.43829478618E+03  0.00000000000E+00 0.  1.
</event>
<event>
 5    1  0.8445827E-005  0.4642136E+03  0.7818608E-02  0.9744423E-01
         -4   -1    0    0    0  501 -0.00000000000E+00  0.00000000000E+00  0.74151895095E+03  0.74151895095E+03  0.00000000000E+00 0. -1.
         21   -1    0    0  501  502  0.00000000000E+00 -0.00000000000E+00 -0.62764532741E+03  0.62764532741E+03  0.00000000000E+00 0. -1.
        -13    1    1    2    0    0  0.12746185891E+03  0.20648802389E+03  0.21199854558E+03  0.32222232073E+03  0.10566000000E+00 0.  1.
         13    1    1    2    0    0 -0.43262210666E+02 -0.60661385966E+03  0.54282884334E+02  0.61057238416E+03  0.10566000000E+00 0. -1.
         -4    1    1    2    0  502 -0.84199648244E+02  0.40012583577E+03 -0.15240780637E+03  0.43636957348E+03  0.00000000000E+00 0. -1.
</event>
<event>
 5    1  0.8445827E-005  0.4628749E+03  0.7818608E-02  0.1014181E+00
         21   -1    0    0  501  502  0.00000000000E+00  0.00000000000E+00  0.13650055123E+03  0.13650055123E+03  0.00000000000E+00 0.  1.
          4   -1    0    0  502    0 -0.00000000000E+00 -0.00000000000E+00 -0.22267274858E+04  0.22267274858E+04  0.00000000000E+00 0.  1.
        -13    1    1    2    0    0  0.13208296280E+03 -0.46352170977E+03 -0.12786926309E+04  0.13665113026E+04  0.10566000000E+00 0.  1.
         13    1    1    2    0    0  0.47749294132E+02  0.44844831604E+02 -0.31930946095E+03  0.32595950212E+03  0.10566000000E+00 0. -1.
          4    1    1    2  501    0 -0.17983225693E+03  0.41867687817E+03 -0.49222484268E+03  0.67075723231E+03  0.00000000000E+00 0.  1.
</event>
<event>
 5    1  0.8445827E-005  0.1579389E+02  0.7818608E-02  0.1578516E+00
         21   -1    0    0  501  502  0.00000000000E+00  0.00000000000E+00  0.27917881548E+02  0.27917881548E+02  0.00000000000E+00 0.  1.
         -4   -1    0    0    0  501 -0.00000000000E+00 -0.00000000000E+00 -0.25247160284E+02  0.25247160284E+02  0.00000000000E+00 0. -1.
        -13    1    1    2    0    0 -0.13621615672E+02  0.18024374661E+01  0.49642108838E+01  0.14609987955E+02  0.10566000000E+00 0.  1.
         13    1    1    2    0    0  0.14397867974E+02  0.11592912787E+02 -0.11960772099E+02  0.22017389997E+02  0.10566000000E+00 0. -1.
         -4    1    1    2    0  502 -0.77625230202E+00 -0.13395350253E+02  0.96672824793E+01  0.16537663879E+02  0.00000000000E+00 0. -1.
</event>
<event>
 5    1  0.8445827E-005  0.4808662E+03  0.7818608E-02  0.9520925E-01
         21   -1    0    0  501  502  0.00000000000E+00  0.00000000000E+00  0.33638408402E+03  0.33638408402E+03  0.00000000000E+00 0. -1.
         -4   -1    0    0    0  501 -0.00000000000E+00 -0.00000000000E+00 -0.24186963244E+04  0.24186963244E+04  0.00000000000E+00 0. -1.
        -13    1    1    2    0    0 -0.32680961947E+03 -0.42952627102E+03 -0.12007847443E+04  0.13165034593E+04  0.10566000000E+00 0.  1.
         13    1    1    2    0    0  0.31392456081E+03  0.30830375076E+03 -0.11020293416E+04  0.11866206275E+04  0.10566000000E+00 0. -1.
         -4    1    1    2    0  502  0.12885058662E+02  0.12122252026E+03  0.22050184554E+03  0.25195632170E+03  0.00000000000E+00 0. -1.
</event>
<event>
 5    1  0.8445827E-005  0.7403172E+02  0.7818608E-02  0.1216530E+00
         21   -1    0    0  501  502  0.00000000000E+00  0.00000000000E+00  0.47528095765E+02  0.47528095765E+02  0.00000000000E+00 0. -1.
          4   -1    0    0  502    0 -0.00000000000E+00 -0.00000000000E+00 -0.46402304040E+03  0.46402304040E+03  0.00000000000E+00 0.  1.
        -13    1    1    2    0    0 -0.56335667536E+02  0.42342805708E+02 -0.34241467078E+03  0.34959181707E+03  0.10566000000E+00 0.  1.
         13    1    1    2    0    0  0.67574021352E+02 -0.77861551725E+02 -0.69705750450E+02  0.12444907556E+03  0.10566000000E+00 0. -1.
          4    1    1    2  501    0 -0.11238353817E+02  0.35518746018E+02 -0.43745234088E+01  0.37510243537E+02  0.00000000000E+00 0.  1.
</event>
<event>
 5    1  0.8445827E-005  0.4708315E+03  0.7818608E-02  0.1033908E+00
         -4   -1    0    0    0  501 -0.00000000000E+00  0.00000000000E+00  0.36827295836E+03  0.36827295836E+03  0.00000000000E+00 0. -1.
         21   -1    0    0  501  502  0.00000000000E+00 -0.00000000000E+00 -0.77194980033E+03  0.77194980033E+03  0.00000000000E+00 0. -1.
        -13    1    1    2    0    0 -0.10260605345E+02  0.31982900204E+02  0.27691006424E+02  0.43531470551E+02  0.10566000000E+00 0.  1.
         13    1    1    2    0    0 -0.22492640937E+03 -0.42211354000E+03 -0.42694055931E+03  0.64113179818E+03  0.10566000000E+00 0. -1.
         -4    1    1    2    0  502  0.23518701472E+03  0.39013063980E+03 -0.44272890807E+01  0.45555948996E+03  0.00000000000E+00 0. -1.
</event>
<event>
 5    1  0.8445827E-005  0.1152758E+03  0.7818608E-02  0.1141494E+00
         21   -1    0    0  501  502  0.00000000000E+00  0.00000000000E+00  0.60472267114E+03  0.60472267114E+03  0.00000000000E+00 0. -1.
         -4   -1    0    0    0  501 -0.00000000000E+00 -0.00000000000E+00 -0.87925673334E+02  0.87925673334E+02  0.00000000000E+00 0. -1.
        -13    1    1    2    0    0  0.30784531749E+02  0.13223500867E+03  0.22982978064E+03  0.26693730378E+03  0.10566000000E+00 0.  1.
         13    1    1    2    0    0 -0.62168738040E+02 -0.94008010837E+02 -0.20274041449E+02  0.11451421751E+03  0.10566000000E+00 0. -1.
         -4    1    1    2    0  502  0.31384206290E+02 -0.38226997838E+02  0.30724125861E+03  0.31119682318E+03  0.00000000000E+00 0. -1.
</event>
<event>
 5    1  0.8445827E-005  0.3638849E+02  0.7818608E-02  0.1428543E+00
         21   -1    0    0  501  502  0.00000000000E+00  0.00000000000E+00  0.34810769287E+03  0.34810769287E+03  0.00000000000E+00 0. -1.
         -4   -1    0    0    0  501 -0.00000000000E+00 -0.00000000000E+00 -0.22073340618E+02  0.22073340618E+02  0.00000000000E+00 0. -1.
        -13    1    1    2    0    0 -0.35610812670E+01 -0.10857460101E+02  0.15679179605E+01  0.11534091659E+02  0.10566000000E+00 0.  1.
         13    1    1    2    0    0 -0.22782245338E+02  0.35525803663E+02  0.11686195179E+02  0.43791457504E+02  0.10566000000E+00 0. -1.
         -4    1    1    2    0  502  0.26343326605E+02 -0.24668343562E+02  0.31278023911E+03  0.31485548433E+03  0.00000000000E+00 0. -1.
</event>
<event>
 5    1  0.8445827E-005  0.3655890E+02  0.7818608E-02  0.1361244E+00
          4   -1    0    0  502    0 -0.00000000000E+00  0.00000000000E+00  0.27271657082E+03  0.27271657082E+03  0.00000000000E+00 0.  1.
         21   -1    0    0  501  502  0.00000000000E+00 -0.00000000000E+00 -0.60319812000E+02  0.60319812000E+02  0.00000000000E+00 0. -1.
        -13    1    1    2    0    0 -0.39412169062E+02  0.26560547679E+02  0.24829404921E+03  0.25280175593E+03  0.10566000000E+00 0.  1.
         13    1    1    2    0    0  0.36449573408E+01 -0.34850103236E+02 -0.17716511638E+02  0.39264505068E+02  0.10566000000E+00 0. -1.
          4    1    1    2  501    0  0.35767211721E+02  0.82895555567E+01 -0.18180778758E+02  0.40970121819E+02  0.00000000000E+00 0.  1.
</event>
<event>
 5    1  0.8445827E-005  0.8368138E+02  0.7818608E-02  0.1194803E+00
         -4   -1    0    0    0  501 -0.00000000000E+00  0.00000000000E+00  0.25035954158E+03  0.25035954158E+03  0.00000000000E+00 0. -1.
         21   -1    0    0  501  502  0.00000000000E+00 -0.00000000000E+00 -0.99606193862E+02  0.99606193862E+02  0.00000000000E+00 0. -1.
        -13    1    1    2    0    0 -0.44620111122E+02  0.63848794114E+02  0.85578765230E+02  0.11572103978E+03  0.10566000000E+00 0.  1.
         13    1    1    2    0    0  0.45209424829E+02 -0.76519981182E+02  0.13590461830E+03  0.16238619416E+03  0.10566000000E+00 0. -1.
         -4    1    1    2    0  502 -0.58931370677E+00  0.12671187068E+02 -0.70730035811E+02  0.71858501503E+02  0.00000000000E+00 0. -1.
</event>
<event>
 5    1  0.8445827E-005  0.4261382E+02  0.7818608E-02  0.1325178E+00
         21   -1    0    0  501  502  0.00000000000E+00  0.00000000000E+00  0.10304244439E+03  0.10304244439E+03  0.00000000000E+00 0. -1.
          4   -1    0    0  502    0 -0.00000000000E+00 -0.00000000000E+00 -0.17551526216E+03  0.17551526216E+03  0.00000000000E+00 0.  1.
        -13    1    1    2    0    0  0.41259822892E+02 -0.93861757094E+01 -0.16319931808E+03  0.16859567571E+03  0.10566000000E+00 0.  1.
         13    1    1    2    0    0 -0.49115597520E+02  0.15775293130E+02  0.70683642909E+02  0.87506515940E+02  0.10566000000E+00 0. -1.
          4    1    1    2  501    0  0.78557746275E+01 -0.63891174207E+01  0.20042857404E+02  0.22455514898E+02  0.00000000000E+00 0.  1.
</event>
<event>
 5    1  0.8445827E-005  0.3220767E+03  0.7818608E-02  0.9985875E-01
         -4   -1    0    0    0  501 -0.00000000000E+00  0.00000000000E+00  0.90962011309E+03  0.90962011309E+03  0.00000000000E+00 0. -1.
         21   -1    0    0  501  502  0.00000000000E+00 -0.00000000000E+00 -0.73748890361E+03  0.73748890361E+03  0.00000000000E+00 0. -1.
        -13    1    1    2    0    0  0.23109303709E+03 -0.17678596338E+03  0.50531988257E+03  0.58309987440E+03  0.10566000000E+00 0.  1.
         13    1    1    2    0    0 -0.41092824097E+03  0.17210028003E+03  0.20947731433E+03  0.49230202315E+03  0.10566000000E+00 0. -1.
         -4    1    1    2    0  502  0.17983520388E+03  0.46856833504E+01 -0.54266598742E+03  0.57170711915E+03  0.00000000000E+00 0. -1.
</event>
<event>
 5    1  0.8445827E-005  0.8082312E+02  0.7818608E-02  0.1203921E+00
         21   -1    0    0  501  502  0.00000000000E+00  0.00000000000E+00  0.45143513405E+02  0.45143513405E+02  0.00000000000E+00 0. -1.
         -4   -1    0    0    0  501 -0.00000000000E+00 -0.00000000000E+00 -0.49972627063E+03  0.49972627063E+03  0.00000000000E+00 0. -1.
        -13    1    1    2    0    0  0.16150937536E+02 -0.82077730857E+02 -0.76257943392E+02  0.11319404481E+03  0.10566000000E+00 0.  1.
         13    1    1    2    0    0 -0.81169016894E+02  0.26956398912E+02 -0.31246060242E+03  0.32395477458E+03  0.10566000000E+00 0. -1.
         -4    1    1    2    0  502  0.65018079358E+02  0.55121331945E+02 -0.65864211413E+02  0.10772096464E+03  0.00000000000E+00 0. -1.
</event>
<event>
 5    1  0.8445827E-005  0.1714212E+03  0.7818608E-02  0.1081714E+00
         21   -1    0    0  501  502  0.00000000000E+00  0.00000000000E+00  0.10475973925E+03  0.10475973925E+03  0.00000000000E+00 0. -1.
          4   -1    0    0  502    0 -0.00000000000E+00 -0.00000000000E+00 -0.67100769343E+03  0.67100769343E+03  0.00000000000E+00 0.  1.
        -13    1    1    2    0    0 -0.12821598470E+03 -0.10925303238E+03 -0.50117509985E+03  0.52872682520E+03  0.10566000000E+00 0.  1.
         13    1    1    2    0    0  0.15661619480E+03  0.99028519851E+02 -0.91739138653E+02  0.20676402236E+03  0.10566000000E+00 0. -1.
          4    1    1    2  501    0 -0.28400210100E+02  0.10224512533E+02  0.26666284310E+02  0.40276585123E+02  0.00000000000E+00 0.  1.
</event>
<event>
 5    1  0.8445827E-005  0.4505117E+03  0.7818608E-02  0.9991614E-01
          4   -1    0    0  502    0 -0.00000000000E+00  0.00000000000E+00  0.12043573293E+04  0.12043573293E+04  0.00000000000E+00 0.  1.
         21   -1    0    0  501  502  0.00000000000E+00 -0.00000000000E+00 -0.26058484668E+03  0.26058484668E+03  0.00000000000E+00 0.  1.
        -13    1    1    2    0    0 -0.30094867522E+03  0.37160434754E+03  0.11985952066E+03  0.49297688799E+03  0.10566000000E+00 0.  1.
         13    1    1    2    0    0  0.14803177856E+02 -0.11453373402E+03  0.10252643852E+03  0.15443054122E+03  0.10566000000E+00 0. -1.
          4    1    1    2  501    0  0.28614549737E+03 -0.25707061353E+03  0.72138652345E+03  0.81753474680E+03  0.00000000000E+00 0.  1.
</event>
<event>
 5    1  0.8445827E-005  0.3719397E+03  0.7818608E-02  0.1004570E+00
         -4   -1    0    0    0  501 -0.00000000000E+00  0.00000000000E+00  0.20500733066E+04  0.20500733066E+04  0.00000000000E+00 0. -1.
         21   -1    0    0  501  502  0.00000000000E+00 -0.00000000000E+00 -0.17587972424E+03  0.17587972424E+03  0.00000000000E+00 0. -1.
        -13    1    1    2    0    0  0.55000549214E+02 -0.16297541812E+03  0.19928519978E+03  0.26325016494E+03  0.10566000000E+00 0.  1.
         13    1    1    2    0    0 -0.31986419414E+03  0.38826520742E+03  0.14820123205E+04  0.15650634182E+04  0.10566000000E+00 0. -1.
         -4    1    1    2    0  502  0.26486364492E+03 -0.22528978930E+03  0.19289606216E+03  0.39763944769E+03  0.00000000000E+00 0. -1.
</event>
<event>
 5    1  0.8445827E-005  0.3092676E+02  0.7818608E-02  0.1397618E+00
         21   -1    0    0  501  502  0.00000000000E+00  0.00000000000E+00  0.18679504296E+02  0.18679504296E+02  0.00000000000E+00 0. -1.
          4   -1    0    0  502    0 -0.00000000000E+00 -0.00000000000E+00 -0.17049262271E+03  0.17049262271E+03  0.00000000000E+00 0.  1.
        -13    1    1    2    0    0  0.31346876219E+02 -0.10793668241E+01 -0.13442937772E+03  0.13804006824E+03  0.10566000000E+00 0.  1.
         13    1    1    2    0    0 -0.26667898930E+02  0.13847851319E+02 -0.13101805784E+01  0.30077692010E+02  0.10566000000E+00 0. -1.
          4    1    1    2  501    0 -0.46789772890E+01 -0.12768484494E+02 -0.16073560118E+02  0.21054366759E+02  0.00000000000E+00 0.  1.
</event>
<event>
 5    1  0.8445827E-005  0.3513014E+03  0.7818608E-02  0.1029446E+00
          4   -1    0    0  502    0 -0.00000000000E+00  0.00000000000E+00  0.10158136642E+04  0.10158136642E+04  0.00000000000E+00 0.  1.
         21   -1    0    0  501  502  0.00000000000E+00 -0.00000000000E+00 -0.46933640116E+03  0.46933640116E+03  0.00000000000E+00 0.  1.
        -13    1    1    2    0    0 -0.14572603059E+03 -0.27239092482E+03  0.44669311963E+03  0.54310923966E+03  0.10566000000E+00 0.  1.
         13    1    1    2    0    0  0.54648574208E+02 -0.74971557571E+02  0.43861417800E+03  0.44831864719E+03  0.10566000000E+00 0. -1.
          4    1    1    2  501    0  0.91077456383E+02  0.34736248239E+03 -0.33883003458E+03  0.49372217852E+03  0.00000000000E+00 0.  1.
</event>
<event>
 5    1  0.8445827E-005  0.4676445E+03  0.7818608E-02  0.9646044E-01
         21   -1    0    0  501  502  0.00000000000E+00  0.00000000000E+00  0.18342326769E+03  0.18342326769E+03  0.00000000000E+00 0.  1.
          4   -1    0    0  502    0 -0.00000000000E+00 -0.00000000000E+00 -0.28139378993E+04  0.28139378993E+04  0.00000000000E+00 0.  1.
        -13    1    1    2    0    0  0.18889236114E+03  0.23166185805E+03 -0.78772993059E+03  0.84253545639E+03  0.10566000000E+00 0.  1.
         13    1    1    2    0    0  0.29686518597E+03  0.15409910309E+03 -0.12602257949E+04  0.13038575603E+04  0.10566000000E+00 0. -1.
          4    1    1    2  501    0 -0.48575754711E+03 -0.38576096113E+03 -0.58255890605E+03  0.85096815024E+03  0.00000000000E+00 0.  1.
</event>
<event>
 5    1  0.8445827E-005  0.4202055E+03  0.7818608E-02  0.1026498E+00
          4   -1    0    0  502    0 -0.00000000000E+00  0.00000000000E+00  0.28458842136E+04  0.28458842136E+04  0.00000000000E+00 0.  1.
         21   -1    0    0  501  502  0.00000000000E+00 -0.00000000000E+00 -0.10585535549E+03  0.10585535549E+03  0.00000000000E+00 0.  1.
        -13    1    1    2    0    0  0.31009142382E+03 -0.21648328888E+03  0.19753936805E+04  0.20112687313E+04  0.10566000000E+00 0.  1.
         13    1    1    2    0    0  0.27923016910E+02 -0.52431006792E+02  0.30101680524E+03  0.30682215296E+03  0.10566000000E+00 0. -1.
          4    1    1    2  501    0 -0.33801444073E+03  0.26891429567E+03  0.46361837243E+03  0.63364868485E+03  0.00000000000E+00 0.  1.
</event>
<event>
 5    1  0.8445827E-005  0.3408405E+03  0.7818608E-02  0.1017745E+00
          4   -1    0    0  502    0 -0.00000000000E+00  0.00000000000E+00  0.20863505366E+04  0.20863505366E+04  0.00000000000E+00 0.  1.
         21   -1    0    0  501  502  0.00000000000E+00 -0.00000000000E+00 -0.16622628647E+03  0.16622628647E+03  0.00000000000E+00 0.  1.
        -13    1    1    2    0    0  0.39464609287E+03 -0.24941507436E+03  0.13856627191E+04  0.14621951307E+04  0.10566000000E+00 0.  1.
         13    1    1    2    0    0 -0.11651093144E+03  0.88814296291E+02  0.42743725922E+03  0.45184665331E+03  0.10566000000E+00 0. -1.
          4    1    1    2  501    0 -0.27813516143E+03  0.16060077807E+03  0.10702427184E+03  0.33853503911E+03  0.00000000000E+00 0.  1.
</event>
<event>
 5    1  0.8445827E-005  0.3650381E+03  0.7818608E-02  0.9974301E-01
          4   -1    0    0  502    0 -0.00000000000E+00  0.00000000000E+00  0.55777821859E+03  0.55777821859E+03  0.00000000000E+00 0.  1.
         21   -1    0    0  501  502  0.00000000000E+00 -0.00000000000E+00 -0.55260991649E+03  0.55260991649E+03  0.00000000000E+00 0.  1.
        -13    1    1    2    0    0 -0.34692549950E+03 -0.87190410144E+02  0.15691678352E+03  0.39061791810E+03  0.10566000000E+00 0.  1.
         13    1    1    2    0    0  0.97121007688E+02 -0.20827592112E+03  0.10783015274E+03  0.25384779388E+03  0.10566000000E+00 0. -1.
          4    1    1    2  501    0  0.24980449182E+03  0.29546633127E+03 -0.25957863416E+03  0.46592242311E+03  0.00000000000E+00 0.  1.
</event>
<event>
 5    1  0.8445827E-005  0.2781546E+03  0.7818608E-02  0.1016753E+00
          4   -1    0    0  502    0 -0.00000000000E+00  0.00000000000E+00  0.17107532358E+04  0.17107532358E+04  0.00000000000E+00 0.  1.
         21   -1    0    0  501  502  0.00000000000E+00 -0.00000000000E+00 -0.57575594259E+03  0.57575594259E+03  0.00000000000E+00 0. -1.
        -13    1    1    2    0    0 -0.71044009170E+02  0.26854374324E+03  0.16557097560E+04  0.16788501423E+04  0.10566000000E+00 0.  1.
         13    1    1    2    0    0  0.73377588737E+02 -0.28563329573E+03 -0.47877597877E+03  0.56231405742E+03  0.10566000000E+00 0. -1.
          4    1    1    2  501    0 -0.23335795668E+01  0.17089552486E+02 -0.41936483982E+02  0.45344978626E+02  0.00000000000E+00 0.  1.
</event>
<event>
 5    1  0.8445827E-005  0.6264043E+02  0.7818608E-02  0.1247471E+00
         -4   -1    0    0    0  501 -0.00000000000E+00  0.00000000000E+00  0.45528225815E+03  0.45528225815E+03  0.00000000000E+00 0. -1.
         21   -1    0    0  501  502  0.00000000000E+00 -0.00000000000E+00 -0.13464977605E+02  0.13464977605E+02  0.00000000000E+00 0. -1.
        -13    1    1    2    0    0 -0.21793523685E+02 -0.49954540830E+02  0.12975840422E+03  0.14073971882E+03  0.10566000000E+00 0.  1.
         13    1    1    2    0    0  0.48356018088E+02  0.55200794653E+02  0.21161903026E+03  0.22398227017E+03  0.10566000000E+00 0. -1.
         -4    1    1    2    0  502 -0.26562494402E+02 -0.52462538228E+01  0.10043984606E+03  0.10402524676E+03  0.00000000000E+00 0. -1.
</event>
<event>
 5    1  0.8445827E-005  0.1170849E+03  0.7818608E-02  0.1139024E+00
         21   -1    0    0  501  502  0.00000000000E+00  0.00000000000E+00  0.20266939791E+04  0.20266939791E+04  0.00000000000E+00 0.  1.
          4   -1    0    0  502    0 -0.00000000000E+00 -0.00000000000E+00 -0.32670583267E+02  0.32670583267E+02  0.00000000000E+00 0.  1.
        -13    1    1    2    0    0  0.10596587104E+03 -0.64912299537E+02  0.10553529167E+03  0.16303398850E+03  0.10566000000E+00 0.  1.
         13    1    1    2    0    0 -0.81066387649E+02  0.36335356310E+02  0.53604762030E+03  0.54335907071E+03  0.10566000000E+00 0. -1.
          4    1    1    2  501    0 -0.24899483388E+02  0.28576943228E+02  0.13524404838E+04  0.13529715031E+04  0.00000000000E+00 0.  1.
</event>
<event>
 5    1  0.8445827E-005  0.4358328E+03  0.7818608E-02  0.9837770E-01
         21   -1    0    0  501  502  0.00000000000E+00  0.00000000000E+00  0.23361202916E+03  0.23361202916E+03  0.00000000000E+00 0. -1.
         -4   -1    0    0    0  501 -0.00000000000E+00 -0.00000000000E+00 -0.16533007780E+04  0.16533007780E+04  0.00000000000E+00 0. -1.
        -13    1    1    2    0    0 -0.79652318950E+02 -0.19763198404E+03 -0.18466583509E+03  0.28196520148E+03  0.10566000000E+00 0.  1.
         13    1    1    2    0    0  0.42387914179E+03  0.38676257527E+03 -0.98318323214E+03  0.11383795920E+04  0.10566000000E+00 0. -1.
         -4    1    1    2    0  502 -0.34422682284E+03 -0.18913059124E+03 -0.25183968158E+03  0.46656801360E+03  0.00000000000E+00 0. -1.
</event>
<event>
 5    1  0.8445827E-005  0.4648242E+03  0.7818608E-02  0.9983036E-01
         -4   -1    0    0    0  501 -0.00000000000E+00  0.00000000000E+00  0.17102733808E+04  0.17102733808E+04  0.00000000000E+00 0. -1.
         21   -1    0    0  501  502  0.00000000000E+00 -0.00000000000E+00 -0.19890832733E+03  0.19890832733E+03  0.00000000000E+00 0. -1.
        -13    1    1    2    0    0 -0.51322807670E+02 -0.95195838760E+02  0.52758019565E+03  0.53855097467E+03  0.10566000000E+00 0.  1.
         13    1    1    2    0    0  0.49094666380E+03 -0.82018932832E+01  0.61893624601E+03  0.79004935639E+03  0.10566000000E+00 0. -1.
         -4    1    1    2    0  502 -0.43962385613E+03  0.10339773204E+03  0.36484861181E+03  0.58058137708E+03  0.00000000000E+00 0. -1.
</event>
<event>
 5    1  0.8445827E-005  0.3031759E+03  0.7818608E-02  0.1013217E+00
         21   -1    0    0  501  502  0.00000000000E+00  0.00000000000E+00  0.51712409644E+03  0.51712409644E+03  0.00000000000E+00 0.  1.
          4   -1    0    0  502    0 -0.00000000000E+00 -0.00000000000E+00 -0.93018891668E+03  0.93018891668E+03  0.00000000000E+00 0.  1.
        -13    1    1    2    0    0 -0.10670609072E+03  0.32236771037E+02 -0.50785535280E+03  0.51994467950E+03  0.10566000000E+00 0.  1.
         13    1    1    2    0    0 -0.10391044144E+03  0.21678734509E+03 -0.31966392115E+03  0.39997395725E+03  0.10566000000E+00 0. -1.
          4    1    1    2  501    0  0.21061653216E+03 -0.24902411612E+03  0.41445445371E+03  0.52739437637E+03  0.00000000000E+00 0.  1.
</event>
<event>
 5    1  0.8445827E-005  0.4737100E+03  0.7818608E-02  0.9740043E-01
          4   -1    0    0  502    0 -0.00000000000E+00  0.00000000000E+00  0.88751835707E+03  0.88751835707E+03  0.00000000000E+00 0.  1.
         21   -1    0    0  501  502  0.00000000000E+00 -0.00000000000E+00 -0.58932382117E+03  0.58932382117E+03  0.00000000000E+00 0.  1.
        -13    1    1    2    0    0 -0.20953599068E+03  0.39048870966E+03  0.79477737777E+01  0.44322673885E+03  0.10566000000E+00 0.  1.
         13    1    1    2    0    0 -0.21586929347E+03 -0.84550910001E+02  0.43244642138E+03  0.49067130218E+03  0.10566000000E+00 0. -1.
          4    1    1    2  501    0  0.42540528416E+03 -0.30593779965E+03 -0.14219965927E+03  0.54294413722E+03  0.00000000000E+00 0.  1.
</event>
<event>
 5    1  0.8445827E-005  0.4911575E+03  0.7818608E-02  0.9694704E-01
          4   -1    0    0  502    0 -0.00000000000E+00  0.00000000000E+00  0.23891425552E+04  0.23891425552E+04  0.00000000000E+00 0.  1.
         21   -1    0    0  501  502  0.00000000000E+00 -0.00000000000E+00 -0.19914320587E+03  0.19914320587E+03  0.00000000000E+00 0.  1.
        -13    1    1    2    0    0  0.49107420808E+02  0.49589096679E+03  0.53622914658E+03  0.73202534009E+03  0.10566000000E+00 0.  1.
         13    1    1    2    0    0  0.23432043052E+03 -0.66016888428E+02  0.97128292065E+03  0.10013265286E+04  0.10566000000E+00 0. -1.
          4    1    1    2  501    0 -0.28342785133E+03 -0.42987407836E+03  0.68248728210E+03  0.85493389241E+03  0.00000000000E+00 0.  1.
</event>
<event>
 5    1  0.8445827E-005  0.6525743E+02  0.7818608E-02  0.1239749E+00
          4   -1    0    0  502    0 -0.00000000000E+00  0.00000000000E+00  0.16928131742E+02  0.16928131742E+02  0.00000000000E+00 0.  1.
         21   -1    0    0  501  502  0.00000000000E+00 -0.00000000000E+00 -0.40356879621E+03  0.40356879621E+03  0.00000000000E+00 0. -1.
        -13    1    1    2    0    0 -0.68515688254E+02 -0.14554424139E+02 -0.86605389984E+02  0.11138552661E+03  0.10566000000E+00 0.  1.
         13    1    1    2    0    0  0.53988087809E+02  0.14883469089E+02 -0.18878991458E+03  0.19692098489E+03  0.10566000000E+00 0. -1.
          4    1    1    2  501    0  0.14527600445E+02 -0.32904494948E+00 -0.11124535990E+03  0.11219041646E+03  0.00000000000E+00 0.  1.
</event>
<event>
 5    1  0.8445827E-005  0.2130806E+03  0.7818608E-02  0.1051521E+00
          4   -1    0    0  502    0 -0.00000000000E+00  0.00000000000E+00  0.12565830758E+04  0.12565830758E+04  0.00000000000E+00 0.  1.
         21   -1    0    0  501  502  0.00000000000E+00 -0.00000000000E+00 -0.81274431647E+02  0.81274431647E+02  0.00000000000E+00 0.  1.
        -13    1    1    2    0    0  0.21113323319E+03 -0.44458099338E+02  0.97193828639E+03  0.99559922081E+03  0.10566000000E+00 0.  1.
         13    1    1    2    0    0 -0.20214959385E+03  0.31256938659E+02  0.23210982774E+03  0.30938073276E+03  0.10566000000E+00 0. -1.
          4    1    1    2  501    0 -0.89836393467E+01  0.13201160679E+02 -0.28739469940E+02  0.32877553917E+02  0.00000000000E+00 0.  1.
</event>
<event>
 5    1  0.8445827E-005  0.4070897E+03  0.7818608E-02  0.9997136E-01
         -4   -1    0    0    0  501 -0.00000000000E+00  0.00000000000E+00  0.35263416801E+03  0.35263416801E+03  0.00000000000E+00 0. -1.
         21   -1    0    0  501  502  0.00000000000E+00 -0.00000000000E+00 -0.97753466160E+03  0.97753466160E+03  0.00000000000E+00 0. -1.
        -13    1    1    2    0    0 -0.13892038518E+03 -0.65793207031E+02 -0.15478672773E+02  0.15449019381E+03  0.10566000000E+00 0.  1.
         13    1    1    2    0    0  0.28908380498E+03 -0.31347395260E+03  0.18580812899E+02  0.42682622112E+03  0.10566000000E+00 0. -1.
         -4    1    1    2    0  502 -0.15016341981E+03  0.37926715963E+03 -0.62800263371E+03  0.74885241468E+03  0.00000000000E+00 0. -1.
</event>
<event>
 5    1  0.8445827E-005  0.2707006E+03  0.7818608E-02  0.1067554E+00
         21   -1    0    0  501  502  0.00000000000E+00  0.00000000000E+00  0.20582215102E+03  0.20582215102E+03  0.00000000000E+00 0.  1.
          4   -1    0    0  502    0 -0.00000000000E+00 -0.00000000000E+00 -0.85217118198E+03  0.85217118198E+03  0.00000000000E+00 0.  1.
        -13    1    1    2    0    0  0.31777126781E+03 -0.65883261020E+02 -0.63875435923E+03  0.71646795136E+03  0.10566000000E+00 0.  1.
         13    1    1    2    0    0 -0.58919781296E+02  0.27593497522E+02 -0.42244830664E+02  0.77573053410E+02  0.10566000000E+00 0. -1.
          4    1    1    2  501    0 -0.25885148652E+03  0.38289763498E+02  0.34650158937E+02  0.26395232822E+03  0.00000000000E+00 0.  1.
</event>
<event>
 5    1  0.8445827E-005  0.5049382E+03  0.7818608E-02  0.9501127E-01
         21   -1    0    0  501  502  0.00000000000E+00  0.00000000000E+00  0.37001583344E+03  0.37001583344E+03  0.00000000000E+00 0. -1.
         -4   -1    0    0    0  501 -0.00000000000E+00 -0.00000000000E+00 -0.28895368721E+04  0.28895368721E+04  0.00000000000E+00 0. -1.
        -13    1    1    2    0    0  0.21209783679E+02 -0.44571522302E+03 -0.19803664491E+04  0.20300155661E+04  0.10566000000E+00 0.  1.
         13    1    1    2    0    0  0.42578346654E+03 -0.42124273035E+02 -0.31363487720E+03  0.53050246193E+03  0.10566000000E+00 0. -1.
         -4    1    1    2    0  502 -0.44699325022E+03  0.48783949605E+03 -0.22551971241E+03  0.69903467749E+03  0.00000000000E+00 0. -1.
</event>
<event>
 5    1  0.8445827E-005  0.3135147E+03  0.7818608E-02  0.1001878E+00
         21   -1    0    0  501  502  0.00000000000E+00  0.00000000000E+00  0.10534048218E+03  0.10534048218E+03  0.00000000000E+00 0.  1.
         -4   -1    0    0    0  501 -0.00000000000E+00 -0.00000000000E+00 -0.13633980766E+04  0.13633980766E+04  0.00000000000E+00 0. -1.
        -13    1    1    2    0    0  0.29899406605E+03  0.26681554805E+02 -0.66813688077E+03  0.73247270223E+03  0.10566000000E+00 0.  1.
         13    1    1    2    0    0 -0.34361293519E+03  0.78689755282E+00 -0.34920205054E+03  0.48991075891E+03  0.10566000000E+00 0. -1.
         -4    1    1    2    0  502  0.44618869138E+02 -0.27468452358E+02 -0.24071866313E+03  0.24635509765E+03  0.00000000000E+00 0. -1.
</event>
<event>
 5    1  0.8445827E-005  0.1171418E+03  0.7818608E-02  0.1159803E+00
         -4   -1    0    0    0  501 -0.00000000000E+00  0.00000000000E+00  0.40802036229E+03  0.40802036229E+03  0.00000000000E+00 0. -1.
         21   -1    0    0  501  502  0.00000000000E+00 -0.00000000000E+00 -0.15137723950E+03  0.15137723950E+03  0.00000000000E+00 0.  1.
        -13    1    1    2    0    0  0.15140727816E+02  0.68156791550E+02 -0.92155394093E+02  0.11561668434E+03  0.10566000000E+00 0.  1.
         13    1    1    2    0    0  0.72249191671E+02 -0.13236345940E+03  0.27164302864E+03  0.31069273769E+03  0.10566000000E+00 0. -1.
         -4    1    1    2    0  502 -0.87389919488E+02  0.64206667854E+02  0.77155488248E+02  0.13308817976E+03  0.00000000000E+00 0. -1.
</event>
<event>
 5    1  0.1066670E-004  0.2476716E+03  0.7818608E-02  0.1055645E+00
          4   -1    0    0  502    0 -0.00000000000E+00  0.00000000000E+00  0.12051014071E+04  0.12051014071E+04  0.00000000000E+00 0.  1.
         21   -1    0    0  501  502  0.00000000000E+00 -0.00000000000E+00 -0.26858621547E+03  0.26858621547E+03  0.00000000000E+00 0.  1.
        -13    1    1    2    0    0  0.15746152404E+03 -0.11620664234E+03  0.92400502524E+03  0.94450167448E+03  0.10566000000E+00 0.  1.
         13    1    1    2    0    0 -0.46230428314E+02 -0.11087141501E+03  0.18679325664E+03  0.22208434222E+03  0.10566000000E+00 0. -1.
          4    1    1    2  501    0 -0.11123109573E+03  0.22707805735E+03 -0.17428309024E+03  0.30710160588E+03  0.00000000000E+00 0.  1.
</event>
<event>
 5    1  0.8445827E-005  0.5209690E+02  0.7818608E-02  0.1283479E+00
         21   -1    0    0  501  502  0.00000000000E+00  0.00000000000E+00  0.21154328091E+03  0.21154328091E+03  0.00000000000E+00 0. -1.
          4   -1    0    0  502    0 -0.00000000000E+00 -0.00000000000E+00 -0.17015387813E+02  0.17015387813E+02  0.00000000000E+00 0.  1.
        -13    1    1    2    0    0  0.42596537935E+02 -0.33246192320E+02  0.56946051616E+02  0.78502473251E+02  0.10566000000E+00 0.  1.
         13    1    1    2    0    0 -0.32585547132E+02  0.36891314006E+02  0.11471813249E+03  0.12483207928E+03  0.10566000000E+00 0. -1.
          4    1    1    2  501    0 -0.10010990802E+02 -0.36451216857E+01  0.22863708984E+02  0.25224116188E+02  0.00000000000E+00 0.  1.
</event>
<event>
 5    1  0.8445827E-005  0.3116302E+03  0.7818608E-02  0.1007330E+00
         21   -1    0    0  501  502  0.00000000000E+00  0.00000000000E+00  0.17493887857E+03  0.17493887857E+03  0.00000000000E+00 0. -1.
         -4   -1    0    0    0  501 -0.00000000000E+00 -0.00000000000E+00 -0.27387241131E+04  0.27387241131E+04  0.00000000000E+00 0. -1.
        -13    1    1    2    0    0  0.55021140163E+02  0.26172037747E+03 -0.99905165268E+03  0.10342287454E+04  0.10566000000E+00 0.  1.
         13    1    1    2    0    0  0.24146619441E+03 -0.12098365287E+03 -0.15251298634E+04  0.15488589603E+04  0.10566000000E+00 0. -1.
         -4    1    1    2    0  502 -0.29648733457E+03 -0.14073672460E+03 -0.39603718388E+02  0.33057528601E+03  0.00000000000E+00 0. -1.
</event>
<event>
 5    1  0.8445827E-005  0.1050097E+03  0.7818608E-02  0.1156523E+00
         21   -1    0    0  501  502  0.00000000000E+00  0.00000000000E+00  0.14040528732E+03  0.14040528732E+03  0.00000000000E+00 0. -1.
          4   -1    0    0  502    0 -0.00000000000E+00 -0.00000000000E+00 -0.12031842505E+03  0.12031842505E+03  0.00000000000E+00 0.  1.
        -13    1    1    2    0    0 -0.10236096303E+03 -0.29520054734E+02 -0.58386423388E+02  0.12148327450E+03  0.10566000000E+00 0.  1.
         13    1    1    2    0    0  0.92947813495E+02  0.39648684805E+02  0.66695096514E+02  0.12107667531E+03  0.10566000000E+00 0. -1.
          4    1    1    2  501    0  0.94131495324E+01 -0.10128630071E+02  0.11778189144E+02  0.18163762571E+02  0.00000000000E+00 0.  1.
</event>
<event>
 5    1  0.8445827E-005  0.3299379E+03  0.7818608E-02  0.9980799E-01
         21   -1    0    0  501  502  0.00000000000E+00  0.00000000000E+00  0.12113933484E+04  0.12113933484E+04  0.00000000000E+00 0. -1.
         -4   -1    0    0    0  501 -0.00000000000E+00 -0.00000000000E+00 -0.45247458889E+03  0.45247458889E+03  0.00000000000E+00 0. -1.
        -13    1    1    2    0    0 -0.33200299805E+03 -0.87589362991E+02 -0.33888273658E+02  0.34503088772E+03  0.10566000000E+00 0.  1.
         13    1    1    2    0    0  0.20867520399E+03 -0.25713068470E+03  0.88191005733E+03  0.94203338060E+03  0.10566000000E+00 0. -1.
         -4    1    1    2    0  502  0.12332779406E+03  0.34472004769E+03 -0.89103024131E+02  0.37680366901E+03  0.00000000000E+00 0. -1.
</event>
<event>
 5    1  0.8445827E-005  0.3005907E+02  0.7818608E-02  0.1425681E+00
         21   -1    0    0  501  502  0.00000000000E+00  0.00000000000E+00  0.23187610539E+03  0.23187610539E+03  0.00000000000E+00 0. -1.
         -4   -1    0    0    0  501 -0.00000000000E+00 -0.00000000000E+00 -0.68155708187E+02  0.68155708187E+02  0.00000000000E+00 0. -1.
        -13    1    1    2    0    0  0.71533022795E+01 -0.19986026209E+02  0.25085984647E+02  0.32862269655E+02  0.10566000000E+00 0.  1.
         13    1    1    2    0    0 -0.12958976140E+02 -0.98370825334E+01 -0.62075870966E+02  0.64172643514E+02  0.10566000000E+00 0. -1.
         -4    1    1    2    0  502  0.58056738609E+01  0.29823108742E+02  0.20071028352E+03  0.20299690040E+03  0.00000000000E+00 0. -1.
</event>
<event>
 5    1  0.8445827E-005  0.7750648E+02  0.7818608E-02  0.1217906E+00
         -4   -1    0    0    0  501 -0.00000000000E+00  0.00000000000E+00  0.34611101379E+02  0.34611101379E+02  0.00000000000E+00 0. -1.
         21   -1    0    0  501  502  0.00000000000E+00 -0.00000000000E+00 -0.47496652355E+03  0.47496652355E+03  0.00000000000E+00 0. -1.
        -13    1    1    2    0    0  0.44452822792E+02  0.76615799616E+02 -0.16446476042E+03  0.18680123872E+03  0.10566000000E+00 0.  1.
         13    1    1    2    0    0  0.30372596299E+02 -0.56406631959E+02 -0.42567774028E+02  0.76917028574E+02  0.10566000000E+00 0. -1.
         -4    1    1    2    0  502 -0.74825419091E+02 -0.20209167657E+02 -0.23332288772E+03  0.24585935763E+03  0.00000000000E+00 0. -1.
</event>
<event>
 5    1  0.8445827E-005  0.2391465E+03  0.7818608E-02  0.1036176E+00
         21   -1    0    0  501  502  0.00000000000E+00  0.00000000000E+00  0.67684467862E+03  0.67684467862E+03  0.00000000000E+00 0.  1.
         -4   -1    0    0    0  501 -0.00000000000E+00 -0.00000000000E+00 -0.15466368736E+03  0.15466368736E+03  0.00000000000E+00 0. -1.
        -13    1    1    2    0    0  0.23562595818E+03  0.41018775458E+02  0.68478710473E+02  0.24877997721E+03  0.10566000000E+00 0.  1.
         13    1    1    2    0    0 -0.23781736335E+03 -0.27098840608E+02  0.15824924541E+03  0.28693950636E+03  0.10566000000E+00 0. -1.
         -4    1    1    2    0  502  0.21914051703E+01 -0.13919934850E+02  0.29545303537E+03  0.29578888241E+03  0.00000000000E+00 0. -1.
</event>
<event>
 5    1  0.8445827E-005  0.1006490E+03  0.7818608E-02  0.1163486E+00
         21   -1    0    0  501  502  0.00000000000E+00  0.00000000000E+00  0.22575522434E+03  0.22575522434E+03  0.00000000000E+00 0. -1.
         -4   -1    0    0    0  501 -0.00000000000E+00 -0.00000000000E+00 -0.12377465589E+03  0.12377465589E+03  0.00000000000E+00 0. -1.
        -13    1    1    2    0    0  0.64650364688E+02 -0.68418904648E+02 -0.54753131516E+02  0.10889780871E+03  0.10566000000E+00 0.  1.
         13    1    1    2    0    0 -0.87687168085E+02  0.87600525096E+02  0.56879352445E+02  0.13637508329E+03  0.10566000000E+00 0. -1.
         -4    1    1    2    0  502  0.23036803397E+02 -0.19181620448E+02  0.99854347528E+02  0.10425698823E+03  0.00000000000E+00 0. -1.
</event>
<event>
 5    1  0.8445827E-005  0.1059855E+03  0.7818608E-02  0.1155015E+00
          4   -1    0    0  502    0 -0.00000000000E+00  0.00000000000E+00  0.42737454338E+03  0.42737454338E+03  0.00000000000E+00 0.  1.
         21   -1    0    0  501  502  0.00000000000E+00 -0.00000000000E+00 -0.70643753070E+02  0.70643753070E+02  0.00000000000E+00 0.  1.
        -13    1    1    2    0    0  0.11408854397E+03 -0.20175477094E+02  0.25888569077E+03  0.28362837973E+03  0.10566000000E+00 0.  1.
         13    1    1    2    0    0 -0.67709484713E+02  0.78643784175E+02  0.93417828176E+02  0.13962922651E+03  0.10566000000E+00 0. -1.
          4    1    1    2  501    0 -0.46379059253E+02 -0.58468307081E+02  0.44272713713E+01  0.74760690218E+02  0.00000000000E+00 0.  1.
</event>
<event>
 5    1  0.8445827E-005  0.1016229E+04  0.7818608E-02  0.8759491E-01
         21   -1    0    0  501  502  0.00000000000E+00  0.00000000000E+00  0.36607135727E+03  0.36607135727E+03  0.00000000000E+00 0. -1.
          4   -1    0    0  502    0 -0.00000000000E+00 -0.00000000000E+00 -0.37937129247E+04  0.37937129247E+04  0.00000000000E+00 0.  1.
        -13    1    1    2    0    0 -0.68743132083E+02 -0.10418763175E+04 -0.24869860728E+04  0.26972822649E+04  0.10566000000E+00 0.  1.
         13    1    1    2    0    0 -0.31976693175E+02  0.96413556669E+03 -0.92106649920E+03  0.13337703727E+04  0.10566000000E+00 0. -1.
          4    1    1    2  501    0  0.10071982526E+03  0.77740750772E+02 -0.19588995435E+02  0.12873164441E+03  0.00000000000E+00 0.  1.
</event>
<event>
 5    1  0.8445827E-005  0.1920120E+03  0.7818608E-02  0.1065754E+00
          4   -1    0    0  502    0 -0.00000000000E+00  0.00000000000E+00  0.23467529945E+03  0.23467529945E+03  0.00000000000E+00 0.  1.
         21   -1    0    0  501  502  0.00000000000E+00 -0.00000000000E+00 -0.29955292624E+03  0.29955292624E+03  0.00000000000E+00 0. -1.
        -13    1    1    2    0    0  0.16960036846E+03 -0.92329214318E+02  0.11347271995E+03  0.22397553021E+03  0.10566000000E+00 0.  1.
         13    1    1    2    0    0 -0.18046899834E+03  0.62663670803E+02 -0.80284339400E+02  0.20722302313E+03  0.10566000000E+00 0. -1.
          4    1    1    2  501    0  0.10868629878E+02  0.29665543514E+02 -0.98066007341E+02  0.10302967234E+03  0.00000000000E+00 0.  1.
</event>
<event>
 5    1  0.8445827E-005  0.1589543E+03  0.7818608E-02  0.1092602E+00
         21   -1    0    0  501  502  0.00000000000E+00  0.00000000000E+00  0.83902411994E+03  0.83902411994E+03  0.00000000000E+00 0.  1.
         -4   -1    0    0    0  501 -0.00000000000E+00 -0.00000000000E+00 -0.28186213820E+03  0.28186213820E+03  0.00000000000E+00 0. -1.
        -13    1    1    2    0    0 -0.11471519092E+03 -0.13089442824E+03  0.75365308593E+03  0.77348943850E+03  0.10566000000E+00 0.  1.
         13    1    1    2    0    0  0.11112773634E+03  0.11302185805E+03 -0.24712117721E+03  0.29358508404E+03  0.10566000000E+00 0. -1.
         -4    1    1    2    0  502  0.35874545739E+01  0.17872570186E+02  0.50630073011E+02  0.53811735601E+02  0.00000000000E+00 0. -1.
</event>
<event>
 5    1  0.8445827E-005  0.6731371E+03  0.7818608E-02  0.9162884E-01
          4   -1    0    0  502    0 -0.00000000000E+00  0.00000000000E+00  0.18639624713E+04  0.18639624713E+04  0.00000000000E+00 0.  1.
         21   -1    0    0  501  502  0.00000000000E+00 -0.00000000000E+00 -0.43953283131E+03  0.43953283131E+03  0.00000000000E+00 0. -1.
        -13    1    1    2    0    0  0.61824597394E+03  0.26477097860E+03  0.13108181382E+04  0.14732874662E+04  0.10566000000E+00 0.  1.
         13    1    1    2    0    0 -0.62420340215E+03 -0.25667460730E+03  0.23026996355E+03  0.71311710719E+03  0.10566000000E+00 0. -1.
          4    1    1    2  501    0  0.59574282086E+01 -0.80963713033E+01 -0.11665846175E+03  0.11709072926E+03  0.00000000000E+00 0.  1.
</event>
<event>
 5    1  0.8445827E-005  0.3595140E+03  0.7818608E-02  0.1001185E+00
         21   -1    0    0  501  502  0.00000000000E+00  0.00000000000E+00  0.85255897200E+03  0.85255897200E+03  0.00000000000E+00 0. -1.
         -4   -1    0    0    0  501 -0.00000000000E+00 -0.00000000000E+00 -0.50205241885E+03  0.50205241885E+03  0.00000000000E+00 0. -1.
        -13    1    1    2    0    0 -0.21227153865E+03  0.13081013209E+02 -0.99038429591E+02  0.23460379521E+03  0.10566000000E+00 0.  1.
         13    1    1    2    0    0 -0.17518472211E+03  0.43387358450E+02 -0.25592595919E+03  0.31316171140E+03  0.10566000000E+00 0. -1.
         -4    1    1    2    0  502  0.38745626076E+03 -0.56468371660E+02  0.70547094193E+03  0.80684588424E+03  0.00000000000E+00 0. -1.
</event>
<event>
 5    1  0.8445827E-005  0.4977839E+03  0.7818608E-02  0.9748130E-01
          4   -1    0    0  502    0 -0.00000000000E+00  0.00000000000E+00  0.36147951893E+04  0.36147951893E+04  0.00000000000E+00 0.  1.
         21   -1    0    0  501  502  0.00000000000E+00 -0.00000000000E+00 -0.10855890711E+03  0.10855890711E+03  0.00000000000E+00 0.  1.
        -13    1    1    2    0    0 -0.15512708634E+03 -0.44080391135E+03  0.11263658255E+04  0.12194558152E+04  0.10566000000E+00 0.  1.
         13    1    1    2    0    0 -0.19389039919E+03  0.12612110496E+02  0.97797576612E+03  0.99709034822E+03  0.10566000000E+00 0. -1.
          4    1    1    2  501    0  0.34901748553E+03  0.42819180085E+03  0.14018946906E+04  0.15068079330E+04  0.00000000000E+00 0.  1.
</event>
<event>
 5    1  0.8445827E-005  0.4573620E+03  0.7818608E-02  0.9576666E-01
         21   -1    0    0  501  502  0.00000000000E+00  0.00000000000E+00  0.37927987281E+03  0.37927987281E+03  0.00000000000E+00 0. -1.
          4   -1    0    0  502    0 -0.00000000000E+00 -0.00000000000E+00 -0.72464204103E+03  0.72464204103E+03  0.00000000000E+00 0.  1.
        -13    1    1    2    0    0  0.12662833472E+03 -0.43850989499E+03 -0.40674361459E+03  0.61136408328E+03  0.10566000000E+00 0.  1.
         13    1    1    2    0    0 -0.13771001383E+03  0.43858666551E+03  0.31601774037E+02  0.46078302308E+03  0.10566000000E+00 0. -1.
          4    1    1    2  501    0  0.11081679115E+02 -0.76770519759E-01  0.29779672328E+02  0.31774807469E+02  0.00000000000E+00 0.  1.
</event>
<event>
 5    1  0.8445827E-005  0.3420562E+03  0.7818608E-02  0.9913179E-01
         21   -1    0    0  501  502  0.00000000000E+00  0.00000000000E+00  0.24740409191E+03  0.24740409191E+03  0.00000000000E+00 0. -1.
          4   -1    0    0  502    0 -0.00000000000E+00 -0.00000000000E+00 -0.19296722311E+04  0.19296722311E+04  0.00000000000E+00 0.  1.
        -13    1    1    2    0    0 -0.44900523242E+02 -0.43939402784E+03 -0.98006701866E+02  0.45242512471E+03  0.10566000000E+00 0.  1.
         13    1    1    2    0    0 -0.80369541460E+02  0.30274951682E+03 -0.32336835947E+03  0.45020399842E+03  0.10566000000E+00 0. -1.
          4    1    1    2  501    0  0.12527006470E+03  0.13664451102E+03 -0.12608930778E+04  0.12744471998E+04  0.00000000000E+00 0.  1.
</event>
<event>
 5    1  0.8445827E-005  0.1546954E+03  0.7818608E-02  0.1096571E+00
         -4   -1    0    0    0  501 -0.00000000000E+00  0.00000000000E+00  0.29896826123E+03  0.29896826123E+03  0.00000000000E+00 0. -1.
         21   -1    0    0  501  502  0.00000000000E+00 -0.00000000000E+00 -0.31152038119E+03  0.31152038119E+03  0.00000000000E+00 0.  1.
        -13    1    1    2    0    0  0.35030710374E+02  0.16123049252E+03 -0.10350819718E+03  0.19477263779E+03  0.10566000000E+00 0.  1.
         13    1    1    2    0    0 -0.29831735234E+02 -0.15016563587E+03  0.22991213202E+03  0.27622318917E+03  0.10566000000E+00 0. -1.
         -4    1    1    2    0  502 -0.51989751403E+01 -0.11064856648E+02 -0.13895605480E+03  0.13949281545E+03  0.00000000000E+00 0. -1.
</event>
<event>
 5    1  0.8445827E-005  0.5086990E+03  0.7818608E-02  0.9467845E-01
         -4   -1    0    0    0  501 -0.00000000000E+00  0.00000000000E+00  0.13791080144E+04  0.13791080144E+04  0.00000000000E+00 0. -1.
         21   -1    0    0  501  502  0.00000000000E+00 -0.00000000000E+00 -0.51594154874E+03  0.51594154874E+03  0.00000000000E+00 0. -1.
        -13    1    1    2    0    0 -0.50701203147E+03 -0.10062350214E+03  0.82905260659E+02  0.52350700343E+03  0.10566000000E+00 0.  1.
         13    1    1    2    0    0  0.34333106491E+02  0.50392254844E+03  0.38551115709E+03  0.63540188891E+03  0.10566000000E+00 0. -1.
         -4    1    1    2    0  502  0.47267892497E+03 -0.40329904629E+03  0.39475004791E+03  0.73614067078E+03  0.00000000000E+00 0. -1.
</event>
<event>
 5    1  0.8445827E-005  0.4532692E+03  0.7818608E-02  0.9773867E-01
          4   -1    0    0  502    0 -0.00000000000E+00  0.00000000000E+00  0.15487442012E+04  0.15487442012E+04  0.00000000000E+00 0.  1.
         21   -1    0    0  501  502  0.00000000000E+00 -0.00000000000E+00 -0.45052739341E+03  0.45052739341E+03  0.00000000000E+00 0.  1.
        -13    1    1    2    0    0 -0.18900443126E+03 -0.34102918071E+03 -0.35413788645E+02  0.39150699192E+03  0.10566000000E+00 0.  1.
         13    1    1    2    0    0 -0.71814811627E+00 -0.23554110891E+03  0.94237178399E+03  0.97136230117E+03  0.10566000000E+00 0. -1.
          4    1    1    2  501    0  0.18972257938E+03  0.57657028963E+03  0.19125881243E+03  0.63640230148E+03  0.00000000000E+00 0.  1.
</event>
<event>
 5    1  0.8445827E-005  0.4808654E+03  0.7818608E-02  0.9699266E-01
         -4   -1    0    0    0  501 -0.00000000000E+00  0.00000000000E+00  0.17359037439E+04  0.17359037439E+04  0.00000000000E+00 0. -1.
         21   -1    0    0  501  502  0.00000000000E+00 -0.00000000000E+00 -0.23902301238E+03  0.23902301238E+03  0.00000000000E+00 0. -1.
        -13    1    1    2    0    0 -0.17080118482E+03  0.18977650496E+03  0.38456663315E+03  0.46160553838E+03  0.10566000000E+00 0.  1.
         13    1    1    2    0    0  0.41617836860E+03  0.25631120133E+03  0.36925188151E+03  0.61257393805E+03  0.10566000000E+00 0. -1.
         -4    1    1    2    0  502 -0.24537718378E+03 -0.44608770629E+03  0.74306221688E+03  0.90074727986E+03  0.00000000000E+00 0. -1.
</event>
<event>
 5    1  0.8445827E-005  0.1207819E+03  0.7818608E-02  0.1134125E+00
         21   -1    0    0  501  502  0.00000000000E+00  0.00000000000E+00  0.11028027228E+03  0.11028027228E+03  0.00000000000E+00 0.  1.
          4   -1    0    0  502    0 -0.00000000000E+00 -0.00000000000E+00 -0.29132164744E+03  0.29132164744E+03  0.00000000000E+00 0.  1.
        -13    1    1    2    0    0  0.43891743975E+02 -0.10867441717E+03 -0.18882820284E+03  0.22224471983E+03  0.10566000000E+00 0.  1.
         13    1    1    2    0    0 -0.56088741156E+02  0.11950266726E+03 -0.32449809166E+02  0.13594055924E+03  0.10566000000E+00 0. -1.
          4    1    1    2  501    0  0.12196997181E+02 -0.10828250090E+02  0.40236636857E+02  0.43416640655E+02  0.00000000000E+00 0.  1.
</event>
<event>
 5    1  0.8445827E-005  0.4956587E+03  0.7818608E-02  0.9883949E-01
          4   -1    0    0  502    0 -0.00000000000E+00  0.00000000000E+00  0.29879780669E+04  0.29879780669E+04  0.00000000000E+00 0.  1.
         21   -1    0    0  501  502  0.00000000000E+00 -0.00000000000E+00 -0.11342020569E+03  0.11342020569E+03  0.00000000000E+00 0.  1.
        -13    1    1    2    0    0 -0.15088787299E+03  0.39703740298E+03  0.14345067243E+04  0.14960666439E+04  0.10566000000E+00 0.  1.
         13    1    1    2    0    0 -0.79441135425E+02  0.95174418216E+02  0.53912258961E+03  0.55319277081E+03  0.10566000000E+00 0. -1.
          4    1    1    2  501    0  0.23032900841E+03 -0.49221182119E+03  0.90092854725E+03  0.10521388579E+04  0.00000000000E+00 0.  1.
</event>
<event>
 5    1  0.8445827E-005  0.9839904E+02  0.7818608E-02  0.1167232E+00
         21   -1    0    0  501  502  0.00000000000E+00  0.00000000000E+00  0.35745613054E+03  0.35745613054E+03  0.00000000000E+00 0. -1.
         -4   -1    0    0    0  501 -0.00000000000E+00 -0.00000000000E+00 -0.10998116295E+03  0.10998116295E+03  0.00000000000E+00 0. -1.
        -13    1    1    2    0    0  0.10929230363E+03 -0.16539959026E+02  0.19746286649E+03  0.22629620563E+03  0.10566000000E+00 0.  1.
         13    1    1    2    0    0 -0.91083413597E+02  0.33960719547E+02 -0.69181246237E+02  0.11931292763E+03  0.10566000000E+00 0. -1.
         -4    1    1    2    0  502 -0.18208890035E+02 -0.17420760520E+02  0.11919334734E+03  0.12182816023E+03  0.00000000000E+00 0. -1.
</event>
<event>
 5    1  0.8445827E-005  0.4653263E+03  0.7818608E-02  0.1050997E+00
         21   -1    0    0  501  502  0.00000000000E+00  0.00000000000E+00  0.11980853315E+03  0.11980853315E+03  0.00000000000E+00 0.  1.
          4   -1    0    0  502    0 -0.00000000000E+00 -0.00000000000E+00 -0.20298828075E+04  0.20298828075E+04  0.00000000000E+00 0.  1.
        -13    1    1    2    0    0 -0.41472998977E+03  0.22736754646E+03 -0.12164871244E+04  0.13051964989E+04  0.10566000000E+00 0.  1.
         13    1    1    2    0    0  0.27137927999E+01 -0.20602081073E+02 -0.30957496025E+02  0.37285226834E+02  0.10566000000E+00 0. -1.
          4    1    1    2  501    0  0.41201619697E+03 -0.20676546539E+03 -0.66262965393E+03  0.80720961497E+03  0.00000000000E+00 0.  1.
</event>
<event>
 5    1  0.8445827E-005  0.4205555E+03  0.7818608E-02  0.9671489E-01
          4   -1    0    0  502    0 -0.00000000000E+00  0.00000000000E+00  0.12285716598E+04  0.12285716598E+04  0.00000000000E+00 0.  1.
         21   -1    0    0  501  502  0.00000000000E+00 -0.00000000000E+00 -0.63844303579E+03  0.63844303579E+03  0.00000000000E+00 0.  1.
        -13    1    1    2    0    0 -0.62767959144E+03  0.20995177232E+03  0.13918766034E+03  0.67633913990E+03  0.10566000000E+00 0.  1.
         13    1    1    2    0    0  0.32509343134E+03 -0.19589729012E+03  0.70147789630E+03  0.79757929859E+03  0.10566000000E+00 0. -1.
          4    1    1    2  501    0  0.30258616010E+03 -0.14054482205E+02 -0.25053693261E+03  0.39309625711E+03  0.00000000000E+00 0.  1.
</event>
<event>
 5    1  0.8445827E-005  0.5936226E+02  0.7818608E-02  0.1257760E+00
         21   -1    0    0  501  502  0.00000000000E+00  0.00000000000E+00  0.13497187412E+03  0.13497187412E+03  0.00000000000E+00 0.  1.
          4   -1    0    0  502    0 -0.00000000000E+00 -0.00000000000E+00 -0.71593260451E+02  0.71593260451E+02  0.00000000000E+00 0.  1.
        -13    1    1    2    0    0  0.75763520948E+01  0.59998165697E+02 -0.30463646302E+02  0.67714296188E+02  0.10566000000E+00 0.  1.
         13    1    1    2    0    0 -0.22037070043E+02 -0.54064714135E+02  0.17536137707E+02  0.60960258040E+02  0.10566000000E+00 0. -1.
          4    1    1    2  501    0  0.14460717949E+02 -0.59334515621E+01  0.76306122270E+02  0.77890580348E+02  0.00000000000E+00 0.  1.
</event>
<event>
 5    1  0.8445827E-005  0.5172741E+03  0.7818608E-02  0.9678523E-01
         21   -1    0    0  501  502  0.00000000000E+00  0.00000000000E+00  0.39587300107E+03  0.39587300107E+03  0.00000000000E+00 0.  1.
          4   -1    0    0  502    0 -0.00000000000E+00 -0.00000000000E+00 -0.14911284349E+04  0.14911284349E+04  0.00000000000E+00 0.  1.
        -13    1    1    2    0    0  0.12288374085E+03 -0.62647305420E+03 -0.26193894145E+03  0.69005863636E+03  0.10566000000E+00 0.  1.
         13    1    1    2    0    0  0.47444350521E+02  0.21534985641E+03 -0.69771292181E+03  0.73173072881E+03  0.10566000000E+00 0. -1.
          4    1    1    2  501    0 -0.17032809137E+03  0.41112319779E+03 -0.13560357058E+03  0.46521207081E+03  0.00000000000E+00 0.  1.
</event>
<event>
 5    1  0.8445827E-005  0.3273226E+02  0.7818608E-02  0.1384225E+00
         -4   -1    0    0    0  501 -0.00000000000E+00  0.00000000000E+00  0.10715736530E+03  0.10715736530E+03  0.00000000000E+00 0. -1.
         21   -1    0    0  501  502  0.00000000000E+00 -0.00000000000E+00 -0.39172933861E+03  0.39172933861E+03  0.00000000000E+00 0.  1.
        -13    1    1    2    0    0 -0.30467667216E+02 -0.42575751432E+02 -0.25044402780E+03  0.25585776436E+03  0.10566000000E+00 0.  1.
         13    1    1    2    0    0  0.25401598637E+02  0.20358375823E+02  0.10093627770E+03  0.10605587206E+03  0.10566000000E+00 0. -1.
         -4    1    1    2    0  502  0.50660685782E+01  0.22217375609E+02 -0.13506422320E+03  0.13697306749E+03  0.00000000000E+00 0. -1.
</event>
<event>
 5    1  0.8445827E-005  0.4616782E+03  0.7818608E-02  0.9566168E-01
          4   -1    0    0  502    0 -0.00000000000E+00  0.00000000000E+00  0.25007599686E+04  0.25007599686E+04  0.00000000000E+00 0.  1.
         21   -1    0    0  501  502  0.00000000000E+00 -0.00000000000E+00 -0.35079637197E+03  0.35079637197E+03  0.00000000000E+00 0.  1.
        -13    1    1    2    0    0  0.54161964918E+03  0.13837204449E+03  0.73120595490E+03  0.92041339990E+03  0.10566000000E+00 0.  1.
         13    1    1    2    0    0 -0.41010955706E+03  0.21601679692E+03  0.14775906486E+04  0.15485887903E+04  0.10566000000E+00 0. -1.
          4    1    1    2  501    0 -0.13151009212E+03 -0.35438884141E+03 -0.58833006931E+02  0.38255415035E+03  0.00000000000E+00 0.  1.
</event>
<event>
 5    1  0.8445827E-005  0.2617221E+03  0.7818608E-02  0.1024491E+00
         -4   -1    0    0    0  501 -0.00000000000E+00  0.00000000000E+00  0.33707012556E+03  0.33707012556E+03  0.00000000000E+00 0. -1.
         21   -1    0    0  501  502  0.00000000000E+00 -0.00000000000E+00 -0.12041392849E+04  0.12041392849E+04  0.00000000000E+00 0.  1.
        -13    1    1    2    0    0 -0.28070327979E+03 -0.25131729986E+03 -0.89767075374E+03  0.97353351754E+03  0.10566000000E+00 0.  1.
         13    1    1    2    0    0  0.17621911070E+03  0.18387565921E+03  0.22304692362E+03  0.33854597077E+03  0.10566000000E+00 0. -1.
         -4    1    1    2    0  502  0.10448416909E+03  0.67441640655E+02 -0.19244532917E+03  0.22912992211E+03  0.00000000000E+00 0. -1.
</event>
<event>
 5    1  0.8445827E-005  0.3686027E+03  0.7818608E-02  0.1023493E+00
          4   -1    0    0  502    0 -0.00000000000E+00  0.00000000000E+00  0.84556623767E+03  0.84556623767E+03  0.00000000000E+00 0.  1.
         21   -1    0    0  501  502  0.00000000000E+00 -0.00000000000E+00 -0.35699454786E+03  0.35699454786E+03  0.00000000000E+00 0.  1.
        -13    1    1    2    0    0 -0.11485687824E+03 -0.30073505547E+03  0.54406006955E+03  0.63216694513E+03  0.10566000000E+00 0.  1.
         13    1    1    2    0    0  0.60876592565E+02 -0.75080407495E+02  0.11835849699E+03  0.15281286623E+03  0.10566000000E+00 0. -1.
          4    1    1    2  501    0  0.53980285677E+02  0.37581546296E+03 -0.17384687673E+03  0.41758097417E+03  0.00000000000E+00 0.  1.
</event>
<event>
 5    1  0.8445827E-005  0.8024925E+02  0.7818608E-02  0.1214113E+00
         -4   -1    0    0    0  501 -0.00000000000E+00  0.00000000000E+00  0.30806827412E+02  0.30806827412E+02  0.00000000000E+00 0. -1.
         21   -1    0    0  501  502  0.00000000000E+00 -0.00000000000E+00 -0.62324467233E+03  0.62324467233E+03  0.00000000000E+00 0. -1.
        -13    1    1    2    0    0 -0.34323946406E+02 -0.50822001248E+02 -0.34854321206E+02  0.70539662450E+02  0.10566000000E+00 0.  1.
         13    1    1    2    0    0  0.78178930544E+01 -0.52902037551E+02 -0.98180709072E+02  0.11179985611E+03  0.10566000000E+00 0. -1.
         -4    1    1    2    0  502  0.26506053351E+02  0.10372403880E+03 -0.45940281464E+03  0.47171198118E+03  0.00000000000E+00 0. -1.
</event>
<event>
 5    1  0.8445827E-005  0.4370667E+02  0.7818608E-02  0.1319774E+00
         21   -1    0    0  501  502  0.00000000000E+00  0.00000000000E+00  0.29109395608E+02  0.29109395608E+02  0.00000000000E+00 0.  1.
          4   -1    0    0  502    0 -0.00000000000E+00 -0.00000000000E+00 -0.26064858352E+03  0.26064858352E+03  0.00000000000E+00 0.  1.
        -13    1    1    2    0    0 -0.12114753032E+02 -0.34355553233E+02 -0.87034830379E+02  0.94351174567E+02  0.10566000000E+00 0.  1.
         13    1    1    2    0    0  0.20156615474E+02  0.47611839826E+02 -0.16315602957E+03  0.17115220591E+03  0.10566000000E+00 0. -1.
          4    1    1    2  501    0 -0.80418624415E+01 -0.13256286594E+02  0.18651672038E+02  0.24254598649E+02  0.00000000000E+00 0.  1.
</event>
<event>
 5    1  0.8445827E-005  0.4552567E+03  0.7818608E-02  0.9775935E-01
         21   -1    0    0  501  502  0.00000000000E+00  0.00000000000E+00  0.13976395507E+03  0.13976395507E+03  0.00000000000E+00 0. -1.
         -4   -1    0    0    0  501 -0.00000000000E+00 -0.00000000000E+00 -0.26199682872E+04  0.26199682872E+04  0.00000000000E+00 0. -1.
        -13    1    1    2    0    0  0.73053422726E+02 -0.21896216477E+03 -0.81145450796E+03  0.84364664513E+03  0.10566000000E+00 0.  1.
         13    1    1    2    0    0  0.35489010699E+03 -0.11060900442E+03 -0.92494752335E+03  0.99684967373E+03  0.10566000000E+00 0. -1.
         -4    1    1    2    0  502 -0.42794352972E+03  0.32957116919E+03 -0.74380230078E+03  0.91923592338E+03  0.00000000000E+00 0. -1.
</event>
<event>
 5    1  0.8445827E-005  0.4985382E+03  0.7818608E-02  0.9652950E-01
         21   -1    0    0  501  502  0.00000000000E+00  0.00000000000E+00  0.16455528460E+04  0.16455528460E+04  0.00000000000E+00 0.  1.
          4   -1    0    0  502    0 -0.00000000000E+00 -0.00000000000E+00 -0.53309150176E+03  0.53309150176E+03  0.00000000000E+00 0.  1.
        -13    1    1    2    0    0 -0.32859535819E+03  0.31275425946E+03  0.69642532273E+03  0.83114281417E+03  0.10566000000E+00 0.  1.
         13    1    1    2    0    0 -0.24166947351E+03 -0.11913629948E+03 -0.30570851740E+03  0.40749883565E+03  0.10566000000E+00 0. -1.
          4    1    1    2  501    0  0.57026483170E+03 -0.19361795999E+03  0.72174453891E+03  0.94000269795E+03  0.00000000000E+00 0.  1.
</event>
<event>
 5    1  0.8445827E-005  0.4980955E+03  0.7818608E-02  0.9654765E-01
          4   -1    0    0  502    0 -0.00000000000E+00  0.00000000000E+00  0.18759408444E+04  0.18759408444E+04  0.00000000000E+00 0.  1.
         21   -1    0    0  501  502  0.00000000000E+00 -0.00000000000E+00 -0.26776404279E+03  0.26776404279E+03  0.00000000000E+00 0.  1.
        -13    1    1    2    0    0  0.57385122307E+03  0.54572978195E+02  0.33246295130E+03  0.66544350724E+03  0.10566000000E+00 0.  1.
         13    1    1    2    0    0 -0.16991635483E+03 -0.20781875106E+03  0.75705885763E+03  0.80324238310E+03  0.10566000000E+00 0. -1.
          4    1    1    2  501    0 -0.40393486824E+03  0.15324577286E+03  0.51865499270E+03  0.67501899687E+03  0.00000000000E+00 0.  1.
</event>
<event>
 5    1  0.8445827E-005  0.2577498E+03  0.7818608E-02  0.1026453E+00
         21   -1    0    0  501  502  0.00000000000E+00  0.00000000000E+00  0.27036686949E+03  0.27036686949E+03  0.00000000000E+00 0. -1.
         -4   -1    0    0    0  501 -0.00000000000E+00 -0.00000000000E+00 -0.71832238611E+03  0.71832238611E+03  0.00000000000E+00 0. -1.
        -13    1    1    2    0    0 -0.28132315990E+03  0.86469752485E+01 -0.13570778979E+03  0.31246456736E+03  0.10566000000E+00 0.  1.
         13    1    1    2    0    0  0.24869081339E+03 -0.18026672616E+02 -0.46074915770E+03  0.52389109467E+03  0.10566000000E+00 0. -1.
         -4    1    1    2    0  502  0.32632346516E+02  0.93796973674E+01  0.14850143087E+03  0.15233359358E+03  0.00000000000E+00 0. -1.
</event>
<event>
 5    1  0.8445827E-005  0.1198324E+03  0.7818608E-02  0.1135364E+00
         -4   -1    0    0    0  501 -0.00000000000E+00  0.00000000000E+00  0.31039305793E+03  0.31039305793E+03  0.00000000000E+00 0. -1.
         21   -1    0    0  501  502  0.00000000000E+00 -0.00000000000E+00 -0.18320833073E+03  0.18320833073E+03  0.00000000000E+00 0. -1.
        -13    1    1    2    0    0  0.10080461454E+03  0.35006382573E+02  0.28306403129E+02  0.11040054690E+03  0.10566000000E+00 0.  1.
         13    1    1    2    0    0 -0.12505525789E+03 -0.14535267037E+02  0.22245742707E+03  0.25561183372E+03  0.10566000000E+00 0. -1.
         -4    1    1    2    0  502  0.24250643352E+02 -0.20471115536E+02 -0.12357910300E+03  0.12758900804E+03  0.00000000000E+00 0. -1.
</event>
<event>
 5    1  0.8445827E-005  0.2806388E+02  0.7818608E-02  0.1429902E+00
         21   -1    0    0  501  502  0.00000000000E+00  0.00000000000E+00  0.36341709472E+02  0.36341709472E+02  0.00000000000E+00 0.  1.
          4   -1    0    0  502    0 -0.00000000000E+00 -0.00000000000E+00 -0.12882411313E+03  0.12882411313E+03  0.00000000000E+00 0.  1.
        -13    1    1    2    0    0 -0.74471590464E+01 -0.47365471488E+02 -0.10199990073E+03  0.11270731556E+03  0.10566000000E+00 0.  1.
         13    1    1    2    0    0 -0.36108458845E+01  0.24103658119E+02  0.10825690818E+02  0.26668919897E+02  0.10566000000E+00 0. -1.
          4    1    1    2  501    0  0.11058004931E+02  0.23261813369E+02 -0.13081937427E+01  0.25789587146E+02  0.00000000000E+00 0.  1.
</event>
<event>
 5    1  0.8445827E-005  0.3662870E+03  0.7818608E-02  0.9831804E-01
         21   -1    0    0  501  502  0.00000000000E+00  0.00000000000E+00  0.21792773734E+03  0.21792773734E+03  0.00000000000E+00 0.  1.
          4   -1    0    0  502    0 -0.00000000000E+00 -0.00000000000E+00 -0.30456160307E+04  0.30456160307E+04  0.00000000000E+00 0.  1.
        -13    1    1    2    0    0 -0.35820310168E+03 -0.15988496393E+03 -0.13451871870E+04  0.14012142031E+04  0.10566000000E+00 0.  1.
         13    1    1    2    0    0  0.37403430331E+03 -0.15331829114E+03 -0.14947909289E+04  0.15484857413E+04  0.10566000000E+00 0. -1.
          4    1    1    2  501    0 -0.15831201631E+02  0.31320325506E+03  0.12289822580E+02  0.31384382369E+03  0.00000000000E+00 0.  1.
</event>
<event>
 5    1  0.8445827E-005  0.2063655E+03  0.7818608E-02  0.1055857E+00
         21   -1    0    0  501  502  0.00000000000E+00  0.00000000000E+00  0.36122151366E+03  0.36122151366E+03  0.00000000000E+00 0. -1.
         -4   -1    0    0    0  501 -0.00000000000E+00 -0.00000000000E+00 -0.10202644304E+04  0.10202644304E+04  0.00000000000E+00 0. -1.
        -13    1    1    2    0    0 -0.51093991556E+02 -0.19068438540E+03 -0.18111632739E+03  0.26790719666E+03  0.10566000000E+00 0.  1.
         13    1    1    2    0    0  0.39480370594E+02  0.27018750353E+03  0.25657985991E+03  0.37469083576E+03  0.10566000000E+00 0. -1.
         -4    1    1    2    0  502  0.11613620962E+02 -0.79503118128E+02 -0.73450644922E+03  0.73888791161E+03  0.00000000000E+00 0. -1.
</event>
<event>
 5    1  0.8445827E-005  0.4802630E+02  0.7818608E-02  0.1352763E+00
         21   -1    0    0  501  502  0.00000000000E+00  0.00000000000E+00  0.30717854931E+03  0.30717854931E+03  0.00000000000E+00 0.  1.
          4   -1    0    0  502    0 -0.00000000000E+00 -0.00000000000E+00 -0.37377673438E+02  0.37377673438E+02  0.00000000000E+00 0.  1.
        -13    1    1    2    0    0  0.20408981766E+02 -0.57373312845E+02 -0.57419221966E+01  0.61165385621E+02  0.10566000000E+00 0.  1.
         13    1    1    2    0    0 -0.14532996904E+02  0.10576873384E+02  0.55049410788E+02  0.57909645499E+02  0.10566000000E+00 0. -1.
          4    1    1    2  501    0 -0.58759848618E+01  0.46796439462E+02  0.22049338728E+03  0.22548119163E+03  0.00000000000E+00 0.  1.
</event>
<event>
 5    1  0.8445827E-005  0.1585208E+03  0.7818608E-02  0.1093000E+00
         21   -1    0    0  501  502  0.00000000000E+00  0.00000000000E+00  0.37084110960E+03  0.37084110960E+03  0.00000000000E+00 0. -1.
         -4   -1    0    0    0  501 -0.00000000000E+00 -0.00000000000E+00 -0.59367224900E+03  0.59367224900E+03  0.00000000000E+00 0. -1.
        -13    1    1    2    0    0  0.12855754882E+03  0.17311985138E+03  0.97467286117E+02  0.23663771746E+03  0.10566000000E+00 0.  1.
         13    1    1    2    0    0 -0.11247510247E+03 -0.10632349687E+03 -0.50638528433E+03  0.52951053060E+03  0.10566000000E+00 0. -1.
         -4    1    1    2    0  502 -0.16082446354E+02 -0.66796354503E+02  0.18608685881E+03  0.19836511054E+03  0.00000000000E+00 0. -1.
</event>
<event>
 5    1  0.8445827E-005  0.4803523E+03  0.7818608E-02  0.9792650E-01
         21   -1    0    0  501  502  0.00000000000E+00  0.00000000000E+00  0.89247461054E+02  0.89247461054E+02  0.00000000000E+00 0. -1.
          4   -1    0    0  502    0 -0.00000000000E+00 -0.00000000000E+00 -0.40749873619E+04  0.40749873619E+04  0.00000000000E+00 0.  1.
        -13    1    1    2    0    0  0.30104497744E+03 -0.31075678437E+03 -0.20304844538E+04  0.20760696004E+04  0.10566000000E+00 0.  1.
         13    1    1    2    0    0  0.16540195787E+03  0.84140383511E+02 -0.80976478253E+03  0.83075653834E+03  0.10566000000E+00 0. -1.
          4    1    1    2  501    0 -0.46644693531E+03  0.22661640086E+03 -0.11454906645E+04  0.12574086842E+04  0.00000000000E+00 0.  1.
</event>
<event>
 5    1  0.8445827E-005  0.5183520E+03  0.7818608E-02  0.9438631E-01
         21   -1    0    0  501  502  0.00000000000E+00  0.00000000000E+00  0.30536797387E+03  0.30536797387E+03  0.00000000000E+00 0. -1.
          4   -1    0    0  502    0 -0.00000000000E+00 -0.00000000000E+00 -0.17213953375E+04  0.17213953375E+04  0.00000000000E+00 0.  1.
        -13    1    1    2    0    0 -0.21440053631E+03  0.48383282575E+03 -0.90201585749E+03  0.10457984565E+04  0.10566000000E+00 0.  1.
         13    1    1    2    0    0  0.43013361106E+03 -0.32579663393E+03 -0.21778705822E+03  0.58188451082E+03  0.10566000000E+00 0. -1.
          4    1    1    2  501    0 -0.21573307475E+03 -0.15803619182E+03 -0.29622444788E+03  0.39908034403E+03  0.00000000000E+00 0.  1.
</event>
<event>
 5    1  0.8445827E-005  0.1686637E+03  0.7818608E-02  0.1089087E+00
         21   -1    0    0  501  502  0.00000000000E+00  0.00000000000E+00  0.26687077907E+03  0.26687077907E+03  0.00000000000E+00 0. -1.
         -4   -1    0    0    0  501 -0.00000000000E+00 -0.00000000000E+00 -0.14295722935E+04  0.14295722935E+04  0.00000000000E+00 0. -1.
        -13    1    1    2    0    0  0.14256990579E+03  0.34069515489E+02 -0.42408277511E+03  0.44870159486E+03  0.10566000000E+00 0.  1.
         13    1    1    2    0    0 -0.10314704371E+03  0.13188915247E+03 -0.95649270566E+03  0.97103674921E+03  0.10566000000E+00 0. -1.
         -4    1    1    2    0  502 -0.39422862085E+02 -0.16595866796E+03  0.21787396639E+03  0.27670472846E+03  0.00000000000E+00 0. -1.
</event>
<event>
 5    1  0.8445827E-005  0.4857650E+03  0.7818608E-02  0.9670640E-01
         -4   -1    0    0    0  501 -0.00000000000E+00  0.00000000000E+00  0.14577099151E+04  0.14577099151E+04  0.00000000000E+00 0. -1.
         21   -1    0    0  501  502  0.00000000000E+00 -0.00000000000E+00 -0.30106162071E+03  0.30106162071E+03  0.00000000000E+00 0. -1.
        -13    1    1    2    0    0 -0.18289238025E+03 -0.20364919615E+03  0.14551798518E+03  0.30999695647E+03  0.10566000000E+00 0.  1.
         13    1    1    2    0    0 -0.40626706352E+03 -0.20750841026E+02  0.37874910813E+03  0.55581869560E+03  0.10566000000E+00 0. -1.
         -4    1    1    2    0  502  0.58915944377E+03  0.22440003717E+03  0.63238120113E+03  0.89295588380E+03  0.00000000000E+00 0. -1.
</event>
<event>
 5    1  0.8445827E-005  0.4741368E+03  0.7818608E-02  0.9674314E-01
         21   -1    0    0  501  502  0.00000000000E+00  0.00000000000E+00  0.11886043987E+04  0.11886043987E+04  0.00000000000E+00 0. -1.
         -4   -1    0    0    0  501 -0.00000000000E+00 -0.00000000000E+00 -0.68737062758E+03  0.68737062758E+03  0.00000000000E+00 0. -1.
        -13    1    1    2    0    0 -0.27972743659E+03 -0.78718687811E+02 -0.40676020238E+03  0.49989793358E+03  0.10566000000E+00 0.  1.
         13    1    1    2    0    0  0.27290667232E+03 -0.41420254034E+03  0.25452198680E+03  0.55751524567E+03  0.10566000000E+00 0. -1.
         -4    1    1    2    0  502  0.68207642662E+01  0.49292122815E+03  0.65347198667E+03  0.81856184699E+03  0.00000000000E+00 0. -1.
</event>
<event>
 5    1  0.8445827E-005  0.4913890E+03  0.7818608E-02  0.1001471E+00
          4   -1    0    0  502    0 -0.00000000000E+00  0.00000000000E+00  0.18498042442E+04  0.18498042442E+04  0.00000000000E+00 0.  1.
         21   -1    0    0  501  502  0.00000000000E+00 -0.00000000000E+00 -0.17287064940E+03  0.17287064940E+03  0.00000000000E+00 0.  1.
        -13    1    1    2    0    0  0.43274139110E+03 -0.17167480922E+03  0.53959415450E+03  0.71267048096E+03  0.10566000000E+00 0.  1.
         13    1    1    2    0    0  0.76479227597E+02  0.30970586462E+02  0.36535354740E+03  0.37455503633E+03  0.10566000000E+00 0. -1.
          4    1    1    2  501    0 -0.50922061870E+03  0.14070422275E+03  0.77198589292E+03  0.93544937633E+03  0.00000000000E+00 0.  1.
</event>
<event>
 5    1  0.8445827E-005  0.5585170E+03  0.7818608E-02  0.9358179E-01
         21   -1    0    0  501  502  0.00000000000E+00  0.00000000000E+00  0.19239456355E+03  0.19239456355E+03  0.00000000000E+00 0.  1.
         -4   -1    0    0    0  501 -0.00000000000E+00 -0.00000000000E+00 -0.24959173925E+04  0.24959173925E+04  0.00000000000E+00 0. -1.
        -13    1    1    2    0    0 -0.55016126033E+03  0.79184897326E+02 -0.17144376268E+04  0.18022885583E+04  0.10566000000E+00 0.  1.
         13    1    1    2    0    0  0.56177168726E+03 -0.63501261233E+02 -0.62647079724E+03  0.84385159225E+03  0.10566000000E+00 0. -1.
         -4    1    1    2    0  502 -0.11610426933E+02 -0.15683636092E+02  0.37385595072E+02  0.42171805434E+02  0.00000000000E+00 0. -1.
</event>
<event>
 5    1  0.8445827E-005  0.2704972E+02  0.7818608E-02  0.1455160E+00
         21   -1    0    0  501  502  0.00000000000E+00  0.00000000000E+00  0.82666994788E+02  0.82666994788E+02  0.00000000000E+00 0.  1.
          4   -1    0    0  502    0 -0.00000000000E+00 -0.00000000000E+00 -0.25371627375E+02  0.25371627375E+02  0.00000000000E+00 0.  1.
        -13    1    1    2    0    0 -0.36509240556E+02 -0.69201899093E+01  0.62257341796E+01  0.37677375234E+02  0.10566000000E+00 0.  1.
         13    1    1    2    0    0  0.16197303989E+02 -0.84800704815E+01  0.72523395566E+01  0.19669058060E+02  0.10566000000E+00 0. -1.
          4    1    1    2  501    0  0.20311936567E+02  0.15400260391E+02  0.43817293677E+02  0.50692188869E+02  0.00000000000E+00 0.  1.
</event>
<event>
 5    1  0.8445827E-005  0.2670645E+03  0.7818608E-02  0.1021910E+00
          4   -1    0    0  502    0 -0.00000000000E+00  0.00000000000E+00  0.26149126304E+04  0.26149126304E+04  0.00000000000E+00 0.  1.
         21   -1    0    0  501  502  0.00000000000E+00 -0.00000000000E+00 -0.19963131130E+03  0.19963131130E+03  0.00000000000E+00 0.  1.
        -13    1    1    2    0    0  0.59390148999E+02 -0.33214220293E+03  0.11734321962E+04  0.12209786088E+04  0.10566000000E+00 0.  1.
         13    1    1    2    0    0  0.10179900884E+03  0.22876964745E+03  0.13504206820E+04  0.13734389754E+04  0.10566000000E+00 0. -1.
          4    1    1    2  501    0 -0.16118915784E+03  0.10337255549E+03 -0.10857155908E+03  0.22012635752E+03  0.00000000000E+00 0.  1.
</event>
<event>
 5    1  0.8445827E-005  0.3261973E+03  0.7818608E-02  0.9970429E-01
         -4   -1    0    0    0  501 -0.00000000000E+00  0.00000000000E+00  0.24937750199E+04  0.24937750199E+04  0.00000000000E+00 0. -1.
         21   -1    0    0  501  502  0.00000000000E+00 -0.00000000000E+00 -0.59978464951E+03  0.59978464951E+03  0.00000000000E+00 0. -1.
        -13    1    1    2    0    0 -0.34405914207E+03  0.24468659632E+03  0.19573553270E+04  0.20023706228E+04  0.10566000000E+00 0.  1.
         13    1    1    2    0    0  0.10392997346E+03 -0.20439065413E+03  0.45998648243E+03  0.51396940966E+03  0.10566000000E+00 0. -1.
         -4    1    1    2    0  502  0.24012916861E+03 -0.40295942185E+02 -0.52335143904E+03  0.57721963698E+03  0.00000000000E+00 0. -1.
</event>
<event>
 5    1  0.8445827E-005  0.1437776E+03  0.7818608E-02  0.1107416E+00
         21   -1    0    0  501  502  0.00000000000E+00  0.00000000000E+00  0.26224176319E+03  0.26224176319E+03  0.00000000000E+00 0. -1.
          4   -1    0    0  502    0 -0.00000000000E+00 -0.00000000000E+00 -0.13091851182E+03  0.13091851182E+03  0.00000000000E+00 0.  1.
        -13    1    1    2    0    0  0.75610732039E+02  0.11464569827E+03  0.13859948850E+03  0.19511649932E+03  0.10566000000E+00 0.  1.
         13    1    1    2    0    0 -0.87756761837E+02 -0.11650765455E+03 -0.49529145991E+02  0.15404035278E+03  0.10566000000E+00 0. -1.
          4    1    1    2  501    0  0.12146029798E+02  0.18619562827E+01  0.42252908855E+02  0.44003422910E+02  0.00000000000E+00 0.  1.
</event>
<event>
 5    1  0.8445827E-005  0.6043058E+03  0.7818608E-02  0.9274715E-01
         21   -1    0    0  501  502  0.00000000000E+00  0.00000000000E+00  0.92015828735E+03  0.92015828735E+03  0.00000000000E+00 0. -1.
         -4   -1    0    0    0  501 -0.00000000000E+00 -0.00000000000E+00 -0.15436669339E+04  0.15436669339E+04  0.00000000000E+00 0. -1.
        -13    1    1    2    0    0 -0.22397224165E+03  0.54444729489E+03 -0.10689466809E+04  0.12203415258E+04  0.10566000000E+00 0.  1.
         13    1    1    2    0    0 -0.82522936107E+01 -0.79538297527E+03  0.42285262236E+03  0.90083657180E+03  0.10566000000E+00 0. -1.
         -4    1    1    2    0  502  0.23222453526E+03  0.25093568038E+03  0.22585411998E+02  0.34264712358E+03  0.00000000000E+00 0. -1.
</event>
<event>
 5    1  0.8445827E-005  0.4684433E+03  0.7818608E-02  0.9950227E-01
         21   -1    0    0  501  502  0.00000000000E+00  0.00000000000E+00  0.66231810345E+03  0.66231810345E+03  0.00000000000E+00 0.  1.
          4   -1    0    0  502    0 -0.00000000000E+00 -0.00000000000E+00 -0.76256838215E+03  0.76256838215E+03  0.00000000000E+00 0.  1.
        -13    1    1    2    0    0  0.47971701599E+03 -0.24114282410E+03  0.49721940081E+02  0.53921290743E+03  0.10566000000E+00 0.  1.
         13    1    1    2    0    0 -0.11769165213E+03  0.35280537554E+01 -0.37824780418E+03  0.39615045711E+03  0.10566000000E+00 0. -1.
          4    1    1    2  501    0 -0.36202536387E+03  0.23761477034E+03  0.22827558539E+03  0.48952312106E+03  0.00000000000E+00 0.  1.
</event>
<event>
 5    1  0.8445827E-005  0.2281988E+03  0.7818608E-02  0.1047332E+00
         21   -1    0    0  501  502  0.00000000000E+00  0.00000000000E+00  0.79001323302E+03  0.79001323302E+03  0.00000000000E+00 0.  1.
          4   -1    0    0  502    0 -0.00000000000E+00 -0.00000000000E+00 -0.58436428798E+03  0.58436428798E+03  0.00000000000E+00 0.  1.
        -13    1    1    2    0    0 -0.16544529903E+03 -0.28303671740E+03 -0.24249585834E+03  0.40778202859E+03  0.10566000000E+00 0.  1.
         13    1    1    2    0    0 -0.41197302618E+02  0.19214395067E+03 -0.19992465801E+03  0.28033265162E+03  0.10566000000E+00 0. -1.
          4    1    1    2  501    0  0.20664260165E+03  0.90892766724E+02  0.64806946139E+03  0.68626284078E+03  0.00000000000E+00 0.  1.
</event>
<event>
 5    1  0.8445827E-005  0.7954528E+02  0.7818608E-02  0.1203698E+00
          4   -1    0    0  502    0 -0.00000000000E+00  0.00000000000E+00  0.38781444705E+02  0.38781444705E+02  0.00000000000E+00 0.  1.
         21   -1    0    0  501  502  0.00000000000E+00 -0.00000000000E+00 -0.35099095630E+03  0.35099095630E+03  0.00000000000E+00 0.  1.
        -13    1    1    2    0    0 -0.40865795644E+02  0.86639460369E+02 -0.23006077026E+03  0.24920750094E+03  0.10566000000E+00 0.  1.
         13    1    1    2    0    0  0.31867960985E+02 -0.65182028166E+02 -0.90365785187E+02  0.11588895560E+03  0.10566000000E+00 0. -1.
          4    1    1    2  501    0  0.89978346588E+01 -0.21457432203E+02  0.82170438604E+01  0.24675944462E+02  0.00000000000E+00 0.  1.
</event>
<event>
 5    1  0.8445827E-005  0.1458440E+03  0.7818608E-02  0.1105284E+00
         21   -1    0    0  501  502  0.00000000000E+00  0.00000000000E+00  0.15584466134E+03  0.15584466134E+03  0.00000000000E+00 0. -1.
         -4   -1    0    0    0  501 -0.00000000000E+00 -0.00000000000E+00 -0.52465285919E+03  0.52465285919E+03  0.00000000000E+00 0. -1.
        -13    1    1    2    0    0 -0.28185925122E+02  0.15033892631E+03 -0.11490765460E+03  0.19131131537E+03  0.10566000000E+00 0.  1.
         13    1    1    2    0    0  0.33324169184E+02 -0.13938819194E+03 -0.35735743162E+03  0.38502456208E+03  0.10566000000E+00 0. -1.
         -4    1    1    2    0  502 -0.51382440624E+01 -0.10950734375E+02  0.10345688838E+03  0.10416164308E+03  0.00000000000E+00 0. -1.
</event>
<event>
 5    1  0.8445827E-005  0.3539982E+03  0.7818608E-02  0.9872210E-01
         21   -1    0    0  501  502  0.00000000000E+00  0.00000000000E+00  0.34259942338E+03  0.34259942338E+03  0.00000000000E+00 0.  1.
          4   -1    0    0  502    0 -0.00000000000E+00 -0.00000000000E+00 -0.24891238388E+04  0.24891238388E+04  0.00000000000E+00 0.  1.
        -13    1    1    2    0    0 -0.27644142295E+03  0.13257848040E+03 -0.95042402111E+03  0.99865046180E+03  0.10566000000E+00 0.  1.
         13    1    1    2    0    0  0.33067593415E+03 -0.24896433765E+03 -0.14718226801E+04  0.15289185157E+04  0.10566000000E+00 0. -1.
          4    1    1    2  501    0 -0.54234511200E+02  0.11638585725E+03  0.27572228581E+03  0.30415428464E+03  0.00000000000E+00 0.  1.
</event>
<event>
 5    1  0.8445827E-005  0.4864616E+02  0.7818608E-02  0.1297401E+00
          4   -1    0    0  502    0 -0.00000000000E+00  0.00000000000E+00  0.59955686120E+02  0.59955686120E+02  0.00000000000E+00 0.  1.
         21   -1    0    0  501  502  0.00000000000E+00 -0.00000000000E+00 -0.68238616730E+02  0.68238616730E+02  0.00000000000E+00 0. -1.
        -13    1    1    2    0    0 -0.34816718069E+02 -0.33091877841E+02 -0.11871959315E+01  0.48048900449E+02  0.10566000000E+00 0.  1.
         13    1    1    2    0    0  0.17795714171E+02  0.48477130362E+02  0.85930490055E+01  0.52350465769E+02  0.10566000000E+00 0. -1.
          4    1    1    2  501    0  0.17021003898E+02 -0.15385252521E+02 -0.15688783684E+02  0.27794936631E+02  0.00000000000E+00 0.  1.
</event>
<event>
 5    1  0.8445827E-005  0.2868936E+03  0.7818608E-02  0.1045387E+00
         -4   -1    0    0    0  501 -0.00000000000E+00  0.00000000000E+00  0.84858263167E+03  0.84858263167E+03  0.00000000000E+00 0. -1.
         21   -1    0    0  501  502  0.00000000000E+00 -0.00000000000E+00 -0.48698687798E+03  0.48698687798E+03  0.00000000000E+00 0. -1.
        -13    1    1    2    0    0 -0.61101607485E+02 -0.85174178340E+02  0.29481692629E+03  0.31289787197E+03  0.10566000000E+00 0.  1.
         13    1    1    2    0    0  0.19747012635E+03 -0.17172966373E+03  0.46259184256E+03  0.53148542047E+03  0.10566000000E+00 0. -1.
         -4    1    1    2    0  502 -0.13636851887E+03  0.25690384207E+03 -0.39581301516E+03  0.49118621721E+03  0.00000000000E+00 0. -1.
</event>
<event>
 5    1  0.8445827E-005  0.3480364E+03  0.7818608E-02  0.9892444E-01
          4   -1    0    0  502    0 -0.00000000000E+00  0.00000000000E+00  0.29950057935E+03  0.29950057935E+03  0.00000000000E+00 0.  1.
         21   -1    0    0  501  502  0.00000000000E+00 -0.00000000000E+00 -0.52345246703E+03  0.52345246703E+03  0.00000000000E+00 0. -1.
        -13    1    1    2    0    0 -0.35210791286E+03 -0.12479131833E+02  0.63481237394E+02  0.35800222024E+03  0.10566000000E+00 0.  1.
         13    1    1    2    0    0  0.33747343627E+03  0.27602258736E+02 -0.24616185623E+03  0.41862378755E+03  0.10566000000E+00 0. -1.
          4    1    1    2  501    0  0.14634476592E+02 -0.15123126903E+02 -0.41271268851E+02  0.46327038595E+02  0.00000000000E+00 0.  1.
</event>
<event>
 5    1  0.8445827E-005  0.3061815E+03  0.7818608E-02  0.1004786E+00
         21   -1    0    0  501  502  0.00000000000E+00  0.00000000000E+00  0.12519785504E+03  0.12519785504E+03  0.00000000000E+00 0.  1.
         -4   -1    0    0    0  501 -0.00000000000E+00 -0.00000000000E+00 -0.12937323986E+04  0.12937323986E+04  0.00000000000E+00 0. -1.
        -13    1    1    2    0    0  0.24404704696E+03 -0.20673649093E+03 -0.40421766881E+03  0.51545210520E+03  0.10566000000E+00 0.  1.
         13    1    1    2    0    0 -0.23224634917E+03  0.18922055444E+03 -0.80428986001E+03  0.85826859141E+03  0.10566000000E+00 0. -1.
         -4    1    1    2    0  502 -0.11800697791E+02  0.17515936495E+02  0.39972985245E+02  0.45209557054E+02  0.00000000000E+00 0. -1.
</event>
<event>
 5    1  0.8445827E-005  0.3215043E+03  0.7818608E-02  0.9988040E-01
         21   -1    0    0  501  502  0.00000000000E+00  0.00000000000E+00  0.34697660315E+03  0.34697660315E+03  0.00000000000E+00 0.  1.
         -4   -1    0    0    0  501 -0.00000000000E+00 -0.00000000000E+00 -0.45635566996E+03  0.45635566996E+03  0.00000000000E+00 0. -1.
        -13    1    1    2    0    0 -0.18168554482E+03 -0.25316115401E+03  0.27229233334E+02  0.31279649840E+03  0.10566000000E+00 0.  1.
         13    1    1    2    0    0  0.19040931445E+03  0.26517885121E+03 -0.22783973754E+03  0.39810361380E+03  0.10566000000E+00 0. -1.
         -4    1    1    2    0  502 -0.87237696246E+01 -0.12017697204E+02  0.91231437393E+02  0.92432160915E+02  0.00000000000E+00 0. -1.
</event>
<event>
 5    1  0.8445827E-005  0.2509320E+03  0.7818608E-02  0.1094626E+00
         21   -1    0    0  501  502  0.00000000000E+00  0.00000000000E+00  0.64390075118E+03  0.64390075118E+03  0.00000000000E+00 0. -1.
         -4   -1    0    0    0  501 -0.00000000000E+00 -0.00000000000E+00 -0.41228209648E+03  0.41228209648E+03  0.00000000000E+00 0. -1.
        -13    1    1    2    0    0 -0.34515248160E+02 -0.16421690603E+02  0.87272695693E+00  0.38232801286E+02  0.10566000000E+00 0.  1.
         13    1    1    2    0    0 -0.23431385661E+03 -0.82197462799E+02  0.54129536733E+03  0.59553345175E+03  0.10566000000E+00 0. -1.
         -4    1    1    2    0  502  0.26882910477E+03  0.98619153401E+02 -0.31054943959E+03  0.42241659463E+03  0.00000000000E+00 0. -1.
</event>
<event>
 5    1  0.8445827E-005  0.4331131E+03  0.7818608E-02  0.9674701E-01
         -4   -1    0    0    0  501 -0.00000000000E+00  0.00000000000E+00  0.18614878845E+04  0.18614878845E+04  0.00000000000E+00 0. -1.
         21   -1    0    0  501  502  0.00000000000E+00 -0.00000000000E+00 -0.29568525810E+03  0.29568525810E+03  0.00000000000E+00 0. -1.
        -13    1    1    2    0    0  0.97513576120E+02 -0.36801910482E+03  0.58468143459E+03  0.69771007600E+03  0.10566000000E+00 0.  1.
         13    1    1    2    0    0  0.34288793093E+03  0.16118620538E+03  0.88611968041E+03  0.96372258724E+03  0.10566000000E+00 0. -1.
         -4    1    1    2    0  502 -0.44040150705E+03  0.20683289944E+03  0.95001511411E+02  0.49574047936E+03  0.00000000000E+00 0. -1.
</event>
<event>
 5    1  0.8445827E-005  0.4272382E+03  0.7818608E-02  0.9837264E-01
         21   -1    0    0  501  502  0.00000000000E+00  0.00000000000E+00  0.20376412839E+03  0.20376412839E+03  0.00000000000E+00 0. -1.
         -4   -1    0    0    0  501 -0.00000000000E+00 -0.00000000000E+00 -0.23233327029E+04  0.23233327029E+04  0.00000000000E+00 0. -1.
        -13    1    1    2    0    0  0.20304707141E+03 -0.10056751402E+03 -0.95883402974E+03  0.98524344496E+03  0.10566000000E+00 0.  1.
         13    1    1    2    0    0 -0.57979250471E+03  0.86194279778E+02 -0.93159745438E+03  0.11006646313E+04  0.10566000000E+00 0. -1.
         -4    1    1    2    0  502  0.37674543330E+03  0.14373234246E+02 -0.22913709034E+03  0.44118875501E+03  0.00000000000E+00 0. -1.
</event>
<event>
 5    1  0.8445827E-005  0.3328478E+02  0.7818608E-02  0.1380323E+00
         21   -1    0    0  501  502  0.00000000000E+00  0.00000000000E+00  0.58759616166E+02  0.58759616166E+02  0.00000000000E+00 0.  1.
         -4   -1    0    0    0  501 -0.00000000000E+00 -0.00000000000E+00 -0.96811760281E+02  0.96811760281E+02  0.00000000000E+00 0. -1.
        -13    1    1    2    0    0  0.12446007660E+02 -0.39460165232E+02  0.38657533028E+02  0.56625292676E+02  0.10566000000E+00 0.  1.
         13    1    1    2    0    0 -0.15936305147E+01  0.32778276769E+02 -0.79405389968E+02  0.85919626432E+02  0.10566000000E+00 0. -1.
         -4    1    1    2    0  502 -0.10852377146E+02  0.66818884633E+01  0.26957128250E+01  0.13026457338E+02  0.00000000000E+00 0. -1.
</event>
<event>
 5    1  0.8445827E-005  0.3798084E+02  0.7818608E-02  0.1350305E+00
         -4   -1    0    0    0  501 -0.00000000000E+00  0.00000000000E+00  0.26687072061E+03  0.26687072061E+03  0.00000000000E+00 0. -1.
         21   -1    0    0  501  502  0.00000000000E+00 -0.00000000000E+00 -0.19498216833E+02  0.19498216833E+02  0.00000000000E+00 0. -1.
        -13    1    1    2    0    0  0.27942312577E+02 -0.17550836985E+02  0.68365279273E+02  0.75911970631E+02  0.10566000000E+00 0.  1.
         13    1    1    2    0    0 -0.41491805813E+02  0.72009412783E+01  0.18695936742E+03  0.19164352255E+03  0.10566000000E+00 0. -1.
         -4    1    1    2    0  502  0.13549493236E+02  0.10349895707E+02 -0.79521429146E+01  0.18813444263E+02  0.00000000000E+00 0. -1.
</event>
<event>
 5    1  0.8445827E-005  0.5865809E+03  0.7818608E-02  0.9306068E-01
         -4   -1    0    0    0  501 -0.00000000000E+00  0.00000000000E+00  0.26496266388E+04  0.26496266388E+04  0.00000000000E+00 0. -1.
         21   -1    0    0  501  502  0.00000000000E+00 -0.00000000000E+00 -0.18488789673E+03  0.18488789673E+03  0.00000000000E+00 0.  1.
        -13    1    1    2    0    0  0.29256729573E+02  0.57790220154E+03  0.57998598796E+03  0.81927447670E+03  0.10566000000E+00 0.  1.
         13    1    1    2    0    0 -0.41934304523E+02 -0.58808284479E+03  0.19021514229E+04  0.19914266155E+04  0.10566000000E+00 0. -1.
         -4    1    1    2    0  502  0.12677574950E+02  0.10180643246E+02 -0.17398668822E+02  0.23813443268E+02  0.00000000000E+00 0. -1.
</event>
<event>
 5    1  0.8445827E-005  0.4709513E+03  0.7818608E-02  0.9751276E-01
         21   -1    0    0  501  502  0.00000000000E+00  0.00000000000E+00  0.20589173833E+03  0.20589173833E+03  0.00000000000E+00 0.  1.
         -4   -1    0    0    0  501 -0.00000000000E+00 -0.00000000000E+00 -0.21748475611E+04  0.21748475611E+04  0.00000000000E+00 0. -1.
        -13    1    1    2    0    0  0.27220922063E+02  0.22532475223E+03 -0.58232291467E+02  0.23431439030E+03  0.10566000000E+00 0.  1.
         13    1    1    2    0    0  0.45469755391E+03 -0.15486416483E+03 -0.11057701174E+04  0.12055954292E+04  0.10566000000E+00 0. -1.
         -4    1    1    2    0  502 -0.48191847597E+03 -0.70460587402E+02 -0.80495341385E+03  0.94082947994E+03  0.00000000000E+00 0. -1.
</event>
<event>
 5    1  0.8445827E-005  0.1411078E+03  0.7818608E-02  0.1126174E+00
         -4   -1    0    0    0  501 -0.00000000000E+00  0.00000000000E+00  0.10155197573E+04  0.10155197573E+04  0.00000000000E+00 0. -1.
         21   -1    0    0  501  502  0.00000000000E+00 -0.00000000000E+00 -0.29115041862E+03  0.29115041862E+03  0.00000000000E+00 0. -1.
        -13    1    1    2    0    0  0.85761197818E+02  0.35703245888E+02 -0.21480884343E+03  0.23403537169E+03  0.10566000000E+00 0.  1.
         13    1    1    2    0    0 -0.11268562095E+03  0.10420869630E+03  0.91540862634E+03  0.92818665466E+03  0.10566000000E+00 0. -1.
         -4    1    1    2    0  502  0.26924423132E+02 -0.13991194218E+03  0.23769555758E+02  0.14444814955E+03  0.00000000000E+00 0. -1.
</event>
<event>
 5    1  0.8445827E-005  0.4941184E+03  0.7818608E-02  0.9492426E-01
         -4   -1    0    0    0  501 -0.00000000000E+00  0.00000000000E+00  0.59465298890E+03  0.59465298890E+03  0.00000000000E+00 0. -1.
         21   -1    0    0  501  502  0.00000000000E+00 -0.00000000000E+00 -0.12793829058E+04  0.12793829058E+04  0.00000000000E+00 0. -1.
        -13    1    1    2    0    0  0.35318654533E+03 -0.34178209492E+03  0.46197495897E+02  0.49364962879E+03  0.10566000000E+00 0.  1.
         13    1    1    2    0    0  0.18939393762E+03  0.47545980662E+03 -0.72673172998E+02  0.51692697023E+03  0.10566000000E+00 0. -1.
         -4    1    1    2    0  502 -0.54258048294E+03 -0.13367771169E+03 -0.65825423976E+03  0.86345929565E+03  0.00000000000E+00 0. -1.
</event>
<event>
 5    1  0.8445827E-005  0.3253056E+03  0.7818608E-02  0.1009886E+00
          4   -1    0    0  502    0 -0.00000000000E+00  0.00000000000E+00  0.26380332176E+04  0.26380332176E+04  0.00000000000E+00 0.  1.
         21   -1    0    0  501  502  0.00000000000E+00 -0.00000000000E+00 -0.15392617325E+03  0.15392617325E+03  0.00000000000E+00 0.  1.
        -13    1    1    2    0    0 -0.16999172421E+03  0.27824790461E+03  0.14905389845E+04  0.15257868652E+04  0.10566000000E+00 0.  1.
         13    1    1    2    0    0  0.20971678784E+03  0.53866195429E+02  0.89009424257E+03  0.91605156510E+03  0.10566000000E+00 0. -1.
          4    1    1    2  501    0 -0.39725063629E+02 -0.33211410004E+03  0.10347381732E+03  0.35012096052E+03  0.00000000000E+00 0.  1.
</event>
<event>
 5    1  0.8445827E-005  0.5585781E+03  0.7818608E-02  0.9358062E-01
          4   -1    0    0  502    0 -0.00000000000E+00  0.00000000000E+00  0.87430363759E+03  0.87430363759E+03  0.00000000000E+00 0.  1.
         21   -1    0    0  501  502  0.00000000000E+00 -0.00000000000E+00 -0.87395934616E+03  0.87395934616E+03  0.00000000000E+00 0. -1.
        -13    1    1    2    0    0  0.55440973454E+03 -0.46474768981E+02  0.63895476380E+03  0.84722680508E+03  0.10566000000E+00 0.  1.
         13    1    1    2    0    0 -0.57081802585E+03  0.37311507370E+02 -0.49580484322E+03  0.75699922123E+03  0.10566000000E+00 0. -1.
          4    1    1    2  501    0  0.16408291308E+02  0.91632616110E+01 -0.14280562915E+03  0.14403695743E+03  0.00000000000E+00 0.  1.
</event>
<event>
 5    1  0.8445827E-005  0.6867746E+03  0.7818608E-02  0.9142387E-01
         -4   -1    0    0    0  501 -0.00000000000E+00  0.00000000000E+00  0.45043355909E+03  0.45043355909E+03  0.00000000000E+00 0. -1.
         21   -1    0    0  501  502  0.00000000000E+00 -0.00000000000E+00 -0.13920030801E+04  0.13920030801E+04  0.00000000000E+00 0.  1.
        -13    1    1    2    0    0  0.64170278290E+03  0.12870944109E+03 -0.30967228507E+03  0.72404800746E+03  0.10566000000E+00 0.  1.
         13    1    1    2    0    0 -0.68088524234E+03 -0.29729663720E+03 -0.56265493687E+03  0.93197134767E+03  0.10566000000E+00 0. -1.
         -4    1    1    2    0  502  0.39182459439E+02  0.16858719611E+03 -0.69242299078E+02  0.18641728407E+03  0.00000000000E+00 0. -1.
</event>
<event>
 5    1  0.8445827E-005  0.4887346E+03  0.7818608E-02  0.9583144E-01
         21   -1    0    0  501  502  0.00000000000E+00  0.00000000000E+00  0.50912436141E+03  0.50912436141E+03  0.00000000000E+00 0.  1.
          4   -1    0    0  502    0 -0.00000000000E+00 -0.00000000000E+00 -0.10425286739E+04  0.10425286739E+04  0.00000000000E+00 0.  1.
        -13    1    1    2    0    0 -0.10252253495E+03 -0.30370421298E+03 -0.41341354974E+03  0.52312321056E+03  0.10566000000E+00 0.  1.
         13    1    1    2    0    0  0.22993674008E+03 -0.28506841156E+03 -0.20570809916E+03  0.42006039677E+03  0.10566000000E+00 0. -1.
          4    1    1    2  501    0 -0.12741420513E+03  0.58877262455E+03  0.85717336373E+02  0.60846942802E+03  0.00000000000E+00 0.  1.
</event>
<event>
 5    1  0.8445827E-005  0.5039375E+03  0.7818608E-02  0.9838428E-01
         -4   -1    0    0    0  501 -0.00000000000E+00  0.00000000000E+00  0.35266463199E+04  0.35266463199E+04  0.00000000000E+00 0. -1.
         21   -1    0    0  501  502  0.00000000000E+00 -0.00000000000E+00 -0.12188899483E+03  0.12188899483E+03  0.00000000000E+00 0. -1.
        -13    1    1    2    0    0 -0.11662594991E+03 -0.72892957562E+02  0.60138889963E+02  0.15010560518E+03  0.10566000000E+00 0.  1.
         13    1    1    2    0    0 -0.25585339712E+03  0.42902479544E+03  0.19030995681E+04  0.19675647926E+04  0.10566000000E+00 0. -1.
         -4    1    1    2    0  502  0.37247934704E+03 -0.35613183788E+03  0.14415188670E+04  0.15308649169E+04  0.00000000000E+00 0. -1.
</event>
<event>
 5    1  0.8445827E-005  0.5723848E+02  0.7818608E-02  0.1264832E+00
         21   -1    0    0  501  502  0.00000000000E+00  0.00000000000E+00  0.32913960993E+03  0.32913960993E+03  0.00000000000E+00 0. -1.
         -4   -1    0    0    0  501 -0.00000000000E+00 -0.00000000000E+00 -0.21009815518E+03  0.21009815518E+03  0.00000000000E+00 0. -1.
        -13    1    1    2    0    0 -0.45439283875E+02  0.13502898858E+02 -0.45713440063E+02  0.65854282800E+02  0.10566000000E+00 0.  1.
         13    1    1    2    0    0  0.60781098186E+02 -0.18932434292E+02 -0.14752757649E+03  0.16067724156E+03  0.10566000000E+00 0. -1.
         -4    1    1    2    0  502 -0.15341814312E+02  0.54295354345E+01  0.31228247130E+03  0.31270624075E+03  0.00000000000E+00 0. -1.
</event>
<event>
 5    1  0.8445827E-005  0.3808096E+03  0.7818608E-02  0.1020190E+00
         21   -1    0    0  501  502  0.00000000000E+00  0.00000000000E+00  0.13434211753E+03  0.13434211753E+03  0.00000000000E+00 0. -1.
         -4   -1    0    0    0  501 -0.00000000000E+00 -0.00000000000E+00 -0.22699472272E+04  0.22699472272E+04  0.00000000000E+00 0. -1.
        -13    1    1    2    0    0 -0.38246335752E+02  0.89401301542E+02 -0.22765109998E+03  0.24754880206E+03  0.10566000000E+00 0.  1.
         13    1    1    2    0    0 -0.37381896916E+03 -0.12336362572E+01 -0.25895928690E+03  0.45475495269E+03  0.10566000000E+00 0. -1.
         -4    1    1    2    0  502  0.41206530491E+03 -0.88167665284E+02 -0.16489947228E+04  0.17019855900E+04  0.00000000000E+00 0. -1.
</event>
<event>
 5    1  0.8445827E-005  0.2066326E+03  0.7818608E-02  0.1055682E+00
         21   -1    0    0  501  502  0.00000000000E+00  0.00000000000E+00  0.11422477278E+04  0.11422477278E+04  0.00000000000E+00 0. -1.
          4   -1    0    0  502    0 -0.00000000000E+00 -0.00000000000E+00 -0.69157905765E+02  0.69157905765E+02  0.00000000000E+00 0.  1.
        -13    1    1    2    0    0 -0.23691075281E+03 -0.44880860747E+02  0.36716539568E+03  0.43926237650E+03  0.10566000000E+00 0.  1.
         13    1    1    2    0    0  0.14023095793E+03  0.12340533427E+03  0.38582922738E+03  0.42866980527E+03  0.10566000000E+00 0. -1.
          4    1    1    2  501    0  0.96679794881E+02 -0.78524473521E+02  0.32009519897E+03  0.34347345179E+03  0.00000000000E+00 0.  1.
</event>
<event>
 5    1  0.8445827E-005  0.4235741E+03  0.7818608E-02  0.9949335E-01
         21   -1    0    0  501  502  0.00000000000E+00  0.00000000000E+00  0.96042261162E+03  0.96042261162E+03  0.00000000000E+00 0. -1.
         -4   -1    0    0    0  501 -0.00000000000E+00 -0.00000000000E+00 -0.44021728632E+03  0.44021728632E+03  0.00000000000E+00 0. -1.
        -13    1    1    2    0    0 -0.74226891029E+02 -0.14144403200E+03 -0.12178811141E+03  0.20086911357E+03  0.10566000000E+00 0.  1.
         13    1    1    2    0    0 -0.32427457399E+03 -0.76377957619E+02 -0.83869190117E+02  0.34354278331E+03  0.10566000000E+00 0. -1.
         -4    1    1    2    0  502  0.39850146502E+03  0.21782198962E+03  0.72586262683E+03  0.85622800107E+03  0.00000000000E+00 0. -1.
</event>
<event>
 5    1  0.8445827E-005  0.4638046E+03  0.7818608E-02  0.9561041E-01
          4   -1    0    0  502    0 -0.00000000000E+00  0.00000000000E+00  0.31969812771E+03  0.31969812771E+03  0.00000000000E+00 0.  1.
         21   -1    0    0  501  502  0.00000000000E+00 -0.00000000000E+00 -0.16375857177E+04  0.16375857177E+04  0.00000000000E+00 0. -1.
        -13    1    1    2    0    0 -0.52033747487E+02 -0.50825699846E+03 -0.27469577415E+02  0.51165151832E+03  0.10566000000E+00 0.  1.
         13    1    1    2    0    0  0.50968312571E+02  0.37443679059E+03 -0.41996596525E+03  0.56495318582E+03  0.10566000000E+00 0. -1.
          4    1    1    2  501    0  0.10654349157E+01  0.13382020786E+03 -0.87045204733E+03  0.88067914128E+03  0.00000000000E+00 0.  1.
</event>
<event>
 5    1  0.8445827E-005  0.3867905E+03  0.7818608E-02  0.9824646E-01
         -4   -1    0    0    0  501 -0.00000000000E+00  0.00000000000E+00  0.23301993977E+04  0.23301993977E+04  0.00000000000E+00 0. -1.
         21   -1    0    0  501  502  0.00000000000E+00 -0.00000000000E+00 -0.22662890916E+03  0.22662890916E+03  0.00000000000E+00 0. -1.
        -13    1    1    2    0    0  0.31231076648E+03  0.63603794129E+02  0.89120455982E+03  0.94648245420E+03  0.10566000000E+00 0.  1.
         13    1    1    2    0    0 -0.30479862310E+02 -0.36603091343E+03  0.11308401140E+04  0.11889941237E+04  0.10566000000E+00 0. -1.
         -4    1    1    2    0  502 -0.28183090417E+03  0.30242711930E+03  0.81525814710E+02  0.42135172896E+03  0.00000000000E+00 0. -1.
</event>
<event>
 5    1  0.8445827E-005  0.4197055E+02  0.7818608E-02  0.1361449E+00
         21   -1    0    0  501  502  0.00000000000E+00  0.00000000000E+00  0.21938618425E+02  0.21938618425E+02  0.00000000000E+00 0. -1.
         -4   -1    0    0    0  501 -0.00000000000E+00 -0.00000000000E+00 -0.21383671692E+03  0.21383671692E+03  0.00000000000E+00 0. -1.
        -13    1    1    2    0    0  0.18858782293E+02  0.13296704133E+02 -0.91153678592E+02  0.94029039638E+02  0.10566000000E+00 0.  1.
         13    1    1    2    0    0 -0.23658363966E+02 -0.40762263821E+02 -0.11871972055E+02  0.48602831418E+02  0.10566000000E+00 0. -1.
         -4    1    1    2    0  502  0.47995816732E+01  0.27465559688E+02 -0.88872447850E+02  0.93143464290E+02  0.00000000000E+00 0. -1.
</event>
<event>
 5    1  0.8445827E-005  0.4764876E+03  0.7818608E-02  0.9804805E-01
         21   -1    0    0  501  502  0.00000000000E+00  0.00000000000E+00  0.20667602990E+04  0.20667602990E+04  0.00000000000E+00 0.  1.
          4   -1    0    0  502    0 -0.00000000000E+00 -0.00000000000E+00 -0.18429838304E+03  0.18429838304E+03  0.00000000000E+00 0.  1.
        -13    1    1    2    0    0 -0.50887531045E+03  0.13633663698E+03  0.67059112221E+03  0.85278029088E+03  0.10566000000E+00 0.  1.
         13    1    1    2    0    0  0.13089141954E+03  0.12702547009E+03  0.13474179754E+03  0.22676727482E+03  0.10566000000E+00 0. -1.
          4    1    1    2  501    0  0.37798389090E+03 -0.26336210707E+03  0.10771289962E+04  0.11715111163E+04  0.00000000000E+00 0.  1.
</event>
<event>
 5    1  0.8445827E-005  0.3936072E+03  0.7818608E-02  0.1006097E+00
          4   -1    0    0  502    0 -0.00000000000E+00  0.00000000000E+00  0.10465751445E+04  0.10465751445E+04  0.00000000000E+00 0.  1.
         21   -1    0    0  501  502  0.00000000000E+00 -0.00000000000E+00 -0.31690880033E+03  0.31690880033E+03  0.00000000000E+00 0.  1.
        -13    1    1    2    0    0 -0.85829533944E+02 -0.36999580556E+03 -0.45422637835E+02  0.38252690392E+03  0.10566000000E+00 0.  1.
         13    1    1    2    0    0  0.10276503889E+03 -0.92293424054E+02  0.16117412898E+03  0.21226361053E+03  0.10566000000E+00 0. -1.
          4    1    1    2  501    0 -0.16935504946E+02  0.46228922961E+03  0.61391485299E+03  0.76869343035E+03  0.00000000000E+00 0.  1.
</event>
<event>
 5    1  0.8445827E-005  0.3219975E+03  0.7818608E-02  0.1031595E+00
         -4   -1    0    0    0  501 -0.00000000000E+00  0.00000000000E+00  0.43433249402E+03  0.43433249402E+03  0.00000000000E+00 0. -1.
         21   -1    0    0  501  502  0.00000000000E+00 -0.00000000000E+00 -0.10487225730E+04  0.10487225730E+04  0.00000000000E+00 0. -1.
        -13    1    1    2    0    0 -0.36626049060E+02  0.10663226213E+03  0.18282220189E+03  0.21479263364E+03  0.10566000000E+00 0.  1.
         13    1    1    2    0    0  0.25870520265E+02 -0.41543844029E+03 -0.32105448869E+01  0.41625557084E+03  0.10566000000E+00 0. -1.
         -4    1    1    2    0  502  0.10755528795E+02  0.30880617816E+03 -0.79400173602E+03  0.85200686258E+03  0.00000000000E+00 0. -1.
</event>
<event>
 5    1  0.8445827E-005  0.8959706E+03  0.7818608E-02  0.8879002E-01
         21   -1    0    0  501  502  0.00000000000E+00  0.00000000000E+00  0.93101724487E+03  0.93101724487E+03  0.00000000000E+00 0. -1.
         -4   -1    0    0    0  501 -0.00000000000E+00 -0.00000000000E+00 -0.18775116126E+04  0.18775116126E+04  0.00000000000E+00 0. -1.
        -13    1    1    2    0    0 -0.67814422027E+03  0.58058967977E+03 -0.48830967693E+03  0.10175511346E+04  0.10566000000E+00 0.  1.
         13    1    1    2    0    0  0.69940237540E+03 -0.56376322396E+03 -0.94474512065E+03  0.13036625367E+04  0.10566000000E+00 0. -1.
         -4    1    1    2    0  502 -0.21258155124E+02 -0.16826455812E+02  0.48656042987E+03  0.48731518619E+03  0.00000000000E+00 0. -1.
</event>
<event>
 5    1  0.8445827E-005  0.1364508E+03  0.7818608E-02  0.1115301E+00
         21   -1    0    0  501  502  0.00000000000E+00  0.00000000000E+00  0.38546162563E+03  0.38546162563E+03  0.00000000000E+00 0.  1.
          4   -1    0    0  502    0 -0.00000000000E+00 -0.00000000000E+00 -0.91070112952E+03  0.91070112952E+03  0.00000000000E+00 0.  1.
        -13    1    1    2    0    0  0.13339868111E+03  0.91554861104E+00 -0.72766808077E+03  0.73979516981E+03  0.10566000000E+00 0.  1.
         13    1    1    2    0    0 -0.15510536785E+03  0.61026361816E+02 -0.13383335360E+03  0.21375984111E+03  0.10566000000E+00 0. -1.
          4    1    1    2  501    0  0.21706686741E+02 -0.61941910427E+02  0.33626193047E+03  0.34260774422E+03  0.00000000000E+00 0.  1.
</event>
<event>
 5    1  0.2173065E-004  0.5268322E+03  0.7818608E-02  0.9447552E-01
         21   -1    0    0  501  502  0.00000000000E+00  0.00000000000E+00  0.50756476177E+03  0.50756476177E+03  0.00000000000E+00 0. -1.
         -4   -1    0    0    0  501 -0.00000000000E+00 -0.00000000000E+00 -0.20055970082E+04  0.20055970082E+04  0.00000000000E+00 0. -1.
        -13    1    1    2    0    0 -0.43994883102E+03  0.33538960406E+03 -0.12118133027E+04  0.13321158554E+04  0.10566000000E+00 0.  1.
         13    1    1    2    0    0 -0.82292634634E+02  0.23501922133E+03 -0.32175785359E+03  0.40685899231E+03  0.10566000000E+00 0. -1.
         -4    1    1    2    0  502  0.52224146566E+03 -0.57040882539E+03  0.35538909843E+02  0.77418692229E+03  0.00000000000E+00 0. -1.
</event>
<event>
 5    1  0.8445827E-005  0.4594408E+03  0.7818608E-02  0.9583869E-01
         -4   -1    0    0    0  501 -0.00000000000E+00  0.00000000000E+00  0.45644820038E+03  0.45644820038E+03  0.00000000000E+00 0. -1.
         21   -1    0    0  501  502  0.00000000000E+00 -0.00000000000E+00 -0.12910889364E+04  0.12910889364E+04  0.00000000000E+00 0. -1.
        -13    1    1    2    0    0 -0.50714324979E+02 -0.43678625882E+03 -0.14916785582E+03  0.46433311213E+03  0.10566000000E+00 0.  1.
         13    1    1    2    0    0 -0.41824400864E+03  0.22466074012E+03 -0.68423946540E+02  0.47966899685E+03  0.10566000000E+00 0. -1.
         -4    1    1    2    0  502  0.46895833362E+03  0.21212551870E+03 -0.61704893362E+03  0.80353502776E+03  0.00000000000E+00 0. -1.
</event>
<event>
 5    1  0.8445827E-005  0.6236014E+03  0.7818608E-02  0.9266772E-01
         -4   -1    0    0    0  501 -0.00000000000E+00  0.00000000000E+00  0.13249771614E+04  0.13249771614E+04  0.00000000000E+00 0. -1.
         21   -1    0    0  501  502  0.00000000000E+00 -0.00000000000E+00 -0.93878396468E+03  0.93878396468E+03  0.00000000000E+00 0.  1.
        -13    1    1    2    0    0 -0.61840840513E+03  0.26142173203E+03  0.74934040659E+03  0.10061219278E+04  0.10566000000E+00 0.  1.
         13    1    1    2    0    0  0.43426955587E+03  0.33437322745E+03 -0.25920920554E+02  0.54869609774E+03  0.10566000000E+00 0. -1.
         -4    1    1    2    0  502  0.18413884926E+03 -0.59579495948E+03 -0.33722628933E+03  0.70894310051E+03  0.00000000000E+00 0. -1.
</event>
<event>
 5    1  0.8445827E-005  0.2810991E+03  0.7818608E-02  0.1015427E+00
         21   -1    0    0  501  502  0.00000000000E+00  0.00000000000E+00  0.39137814435E+03  0.39137814435E+03  0.00000000000E+00 0. -1.
          4   -1    0    0  502    0 -0.00000000000E+00 -0.00000000000E+00 -0.23727620435E+03  0.23727620435E+03  0.00000000000E+00 0.  1.
        -13    1    1    2    0    0 -0.28053683100E+03 -0.93263561418E+02  0.39232174554E+02  0.29822504946E+03  0.10566000000E+00 0.  1.
         13    1    1    2    0    0  0.25680696584E+03  0.70712970695E+02  0.70950586599E+02  0.27565220629E+03  0.10566000000E+00 0. -1.
          4    1    1    2  501    0  0.23729865161E+02  0.22550590723E+02  0.43919178846E+02  0.54777092959E+02  0.00000000000E+00 0.  1.
</event>
<event>
 5    1  0.8445827E-005  0.1666498E+03  0.7818608E-02  0.1110448E+00
         21   -1    0    0  501  502  0.00000000000E+00  0.00000000000E+00  0.19450233728E+03  0.19450233728E+03  0.00000000000E+00 0.  1.
          4   -1    0    0  502    0 -0.00000000000E+00 -0.00000000000E+00 -0.31915769627E+03  0.31915769627E+03  0.00000000000E+00 0.  1.
        -13    1    1    2    0    0  0.17769633534E+02  0.13636382715E+03 -0.14233167218E+03  0.19791202414E+03  0.10566000000E+00 0.  1.
         13    1    1    2    0    0 -0.78464468904E+02  0.33108542118E+02 -0.74819719080E+02  0.11336158948E+03  0.10566000000E+00 0. -1.
          4    1    1    2  501    0  0.60694835370E+02 -0.16947236927E+03  0.92496032265E+02  0.20238641993E+03  0.00000000000E+00 0.  1.
</event>
<event>
 5    1  0.8445827E-005  0.2905876E+03  0.7818608E-02  0.1013098E+00
         21   -1    0    0  501  502  0.00000000000E+00  0.00000000000E+00  0.22961910176E+03  0.22961910176E+03  0.00000000000E+00 0. -1.
         -4   -1    0    0    0  501 -0.00000000000E+00 -0.00000000000E+00 -0.19553642822E+04  0.19553642822E+04  0.00000000000E+00 0. -1.
        -13    1    1    2    0    0 -0.24029952243E+03  0.13176894377E+03 -0.61683532161E+03  0.67497610341E+03  0.10566000000E+00 0.  1.
         13    1    1    2    0    0  0.45106443999E+02 -0.35323222920E+03 -0.11573132113E+04  0.12108598099E+04  0.10566000000E+00 0. -1.
         -4    1    1    2    0  502  0.19519307843E+03  0.22146328543E+03  0.48403352482E+02  0.29914747064E+03  0.00000000000E+00 0. -1.
</event>
<event>
 5    1  0.8445827E-005  0.4719654E+03  0.7818608E-02  0.9769756E-01
          4   -1    0    0  502    0 -0.00000000000E+00  0.00000000000E+00  0.27373795308E+03  0.27373795308E+03  0.00000000000E+00 0.  1.
         21   -1    0    0  501  502  0.00000000000E+00 -0.00000000000E+00 -0.13375371339E+04  0.13375371339E+04  0.00000000000E+00 0.  1.
        -13    1    1    2    0    0 -0.56242786222E+03 -0.34539882889E+02 -0.44360567733E+03  0.71714999256E+03  0.10566000000E+00 0.  1.
         13    1    1    2    0    0  0.15092023199E+03  0.14833094777E+03 -0.15233945534E+03  0.26074184035E+03  0.10566000000E+00 0. -1.
          4    1    1    2  501    0  0.41150763023E+03 -0.11379106488E+03 -0.46785404817E+03  0.63338325410E+03  0.00000000000E+00 0.  1.
</event>
<event>
 5    1  0.8445827E-005  0.6210678E+02  0.7818608E-02  0.1249098E+00
         21   -1    0    0  501  502  0.00000000000E+00  0.00000000000E+00  0.10536537330E+03  0.10536537330E+03  0.00000000000E+00 0. -1.
          4   -1    0    0  502    0 -0.00000000000E+00 -0.00000000000E+00 -0.14651131076E+03  0.14651131076E+03  0.00000000000E+00 0.  1.
        -13    1    1    2    0    0  0.56980199228E+02  0.19059889899E+02 -0.10374080621E+03  0.11988406293E+03  0.10566000000E+00 0.  1.
         13    1    1    2    0    0 -0.65175797543E+02 -0.31063926528E+02  0.47573796884E+01  0.72356727000E+02  0.10566000000E+00 0. -1.
          4    1    1    2  501    0  0.81955983149E+01  0.12004036629E+02  0.57837489069E+02  0.59635894132E+02  0.00000000000E+00 0.  1.
</event>
<event>
 5    1  0.8445827E-005  0.3979294E+03  0.7818608E-02  0.9761868E-01
         -4   -1    0    0    0  501 -0.00000000000E+00  0.00000000000E+00  0.11673967630E+04  0.11673967630E+04  0.00000000000E+00 0. -1.
         21   -1    0    0  501  502  0.00000000000E+00 -0.00000000000E+00 -0.43226994381E+03  0.43226994381E+03  0.00000000000E+00 0.  1.
        -13    1    1    2    0    0 -0.21527479274E+03  0.35686733985E+03  0.21962615143E+03  0.47109785840E+03  0.10566000000E+00 0.  1.
         13    1    1    2    0    0 -0.20343297231E+03 -0.19455960838E+03  0.60806646072E+03  0.67006212193E+03  0.10566000000E+00 0. -1.
         -4    1    1    2    0  502  0.41870776505E+03 -0.16230773147E+03 -0.92565792955E+02  0.45850672648E+03  0.00000000000E+00 0. -1.
</event>
<event>
 5    1  0.8445827E-005  0.5023346E+03  0.7818608E-02  0.9773943E-01
         -4   -1    0    0    0  501 -0.00000000000E+00  0.00000000000E+00  0.35903300295E+03  0.35903300295E+03  0.00000000000E+00 0. -1.
         21   -1    0    0  501  502  0.00000000000E+00 -0.00000000000E+00 -0.10221156691E+04  0.10221156691E+04  0.00000000000E+00 0. -1.
        -13    1    1    2    0    0 -0.13700593864E+03 -0.10563191122E+03 -0.16177023027E+02  0.17375394997E+03  0.10566000000E+00 0.  1.
         13    1    1    2    0    0 -0.39730385992E+03  0.24027286515E+03 -0.24185072259E+03  0.52351999963E+03  0.10566000000E+00 0. -1.
         -4    1    1    2    0  502  0.53430979856E+03 -0.13464095393E+03 -0.40505492049E+03  0.68387472240E+03  0.00000000000E+00 0. -1.
</event>
<event>
 5    1  0.8445827E-005  0.5009591E+03  0.7818608E-02  0.9849795E-01
          4   -1    0    0  502    0 -0.00000000000E+00  0.00000000000E+00  0.75557135801E+03  0.75557135801E+03  0.00000000000E+00 0.  1.
         21   -1    0    0  501  502  0.00000000000E+00 -0.00000000000E+00 -0.43706708594E+03  0.43706708594E+03  0.00000000000E+00 0.  1.
        -13    1    1    2    0    0 -0.49066077472E+03 -0.66306677614E+01  0.14944232351E+03  0.51295709452E+03  0.10566000000E+00 0.  1.
         13    1    1    2    0    0 -0.14226029070E+02  0.13396379206E+03  0.93473963603E+01  0.13504096589E+03  0.10566000000E+00 0. -1.
          4    1    1    2  501    0  0.50488680379E+03 -0.12733312430E+03  0.15971455221E+03  0.54464038353E+03  0.00000000000E+00 0.  1.
</event>
<event>
 5    1  0.8445827E-005  0.1096006E+03  0.7818608E-02  0.1156690E+00
         21   -1    0    0  501  502  0.00000000000E+00  0.00000000000E+00  0.16180282471E+03  0.16180282471E+03  0.00000000000E+00 0. -1.
         -4   -1    0    0    0  501 -0.00000000000E+00 -0.00000000000E+00 -0.26664436143E+03  0.26664436143E+03  0.00000000000E+00 0. -1.
        -13    1    1    2    0    0  0.89569855793E+02 -0.20923104893E+02  0.19082648197E+02  0.93939842513E+02  0.10566000000E+00 0.  1.
         13    1    1    2    0    0 -0.99198185383E+02 -0.89376398484E+02 -0.16863998494E+03  0.21509968915E+03  0.10566000000E+00 0. -1.
         -4    1    1    2    0  502  0.96283295900E+01  0.11029950338E+03  0.44715800023E+02  0.11940765448E+03  0.00000000000E+00 0. -1.
</event>
<event>
 5    1  0.8445827E-005  0.6834926E+03  0.7818608E-02  0.9147274E-01
         21   -1    0    0  501  502  0.00000000000E+00  0.00000000000E+00  0.45384965245E+03  0.45384965245E+03  0.00000000000E+00 0.  1.
          4   -1    0    0  502    0 -0.00000000000E+00 -0.00000000000E+00 -0.26452886296E+04  0.26452886296E+04  0.00000000000E+00 0.  1.
        -13    1    1    2    0    0  0.22173554185E+03  0.66143421875E+03 -0.57348260164E+03  0.90307484839E+03  0.10566000000E+00 0.  1.
         13    1    1    2    0    0 -0.64147750668E+03 -0.36822977348E+03 -0.14973043398E+04  0.16700319921E+04  0.10566000000E+00 0. -1.
          4    1    1    2  501    0  0.41974196483E+03 -0.29320444526E+03 -0.12065203574E+03  0.52603144154E+03  0.00000000000E+00 0.  1.
</event>
<event>
 5    1  0.8445827E-005  0.2252186E+03  0.7818608E-02  0.1044099E+00
         21   -1    0    0  501  502  0.00000000000E+00  0.00000000000E+00  0.80152534600E+02  0.80152534600E+02  0.00000000000E+00 0. -1.
          4   -1    0    0  502    0 -0.00000000000E+00 -0.00000000000E+00 -0.14572638769E+04  0.14572638769E+04  0.00000000000E+00 0.  1.
        -13    1    1    2    0    0  0.44607198260E+02  0.21293222804E+03 -0.92898522039E+03  0.95411922040E+03  0.10566000000E+00 0.  1.
         13    1    1    2    0    0 -0.37759564786E+02 -0.24011756728E+03 -0.48170303710E+03  0.53955542622E+03  0.10566000000E+00 0. -1.
          4    1    1    2  501    0 -0.68476334739E+01  0.27185339245E+02  0.33576915234E+02  0.43741764833E+02  0.00000000000E+00 0.  1.
</event>
<event>
 5    1  0.8445827E-005  0.1557729E+03  0.7818608E-02  0.1095554E+00
         21   -1    0    0  501  502  0.00000000000E+00  0.00000000000E+00  0.10643106675E+03  0.10643106675E+03  0.00000000000E+00 0.  1.
         -4   -1    0    0    0  501 -0.00000000000E+00 -0.00000000000E+00 -0.40815946212E+03  0.40815946212E+03  0.00000000000E+00 0. -1.
        -13    1    1    2    0    0  0.41811052791E+02 -0.11632397490E+03 -0.15397259405E+02  0.12456531634E+03  0.10566000000E+00 0.  1.
         13    1    1    2    0    0 -0.41210263726E+02  0.16409782737E+03 -0.29631377654E+03  0.34121583802E+03  0.10566000000E+00 0. -1.
         -4    1    1    2    0  502 -0.60078906578E+00 -0.47773852467E+02  0.99826405742E+01  0.48809374508E+02  0.00000000000E+00 0. -1.
</event>
<event>
 5    1  0.8445827E-005  0.1268771E+03  0.7818608E-02  0.1126452E+00
         21   -1    0    0  501  502  0.00000000000E+00  0.00000000000E+00  0.44944741738E+02  0.44944741738E+02  0.00000000000E+00 0.  1.
         -4   -1    0    0    0  501 -0.00000000000E+00 -0.00000000000E+00 -0.68655516064E+03  0.68655516064E+03  0.00000000000E+00 0. -1.
        -13    1    1    2    0    0  0.93459776465E+02 -0.10258860296E+03 -0.46688149688E+03  0.48707031788E+03  0.10566000000E+00 0.  1.
         13    1    1    2    0    0 -0.58445949692E+02  0.92718568357E+02 -0.17677318148E+03  0.20799382397E+03  0.10566000000E+00 0. -1.
         -4    1    1    2    0  502 -0.35013826773E+02  0.98700345984E+01  0.20442594578E+01  0.36435760525E+02  0.00000000000E+00 0. -1.
</event>
<event>
 5    1  0.8445827E-005  0.4482170E+03  0.7818608E-02  0.9940900E-01
          4   -1    0    0  502    0 -0.00000000000E+00  0.00000000000E+00  0.24449445341E+04  0.24449445341E+04  0.00000000000E+00 0.  1.
         21   -1    0    0  501  502  0.00000000000E+00 -0.00000000000E+00 -0.15213288287E+03  0.15213288287E+03  0.00000000000E+00 0.  1.
        -13    1    1    2    0    0 -0.40303538623E+03 -0.25487217876E+03  0.35549861087E+03  0.59479124368E+03  0.10566000000E+00 0.  1.
         13    1    1    2    0    0  0.13863472484E+03  0.58023546553E-02  0.51738275328E+03  0.53563468103E+03  0.10566000000E+00 0. -1.
          4    1    1    2  501    0  0.26440066139E+03  0.25486637641E+03  0.14199302871E+04  0.14666514922E+04  0.00000000000E+00 0.  1.
</event>
<event>
 5    1  0.8445827E-005  0.8196023E+02  0.7818608E-02  0.1198434E+00
          4   -1    0    0  502    0 -0.00000000000E+00  0.00000000000E+00  0.14308861667E+03  0.14308861667E+03  0.00000000000E+00 0.  1.
         21   -1    0    0  501  502  0.00000000000E+00 -0.00000000000E+00 -0.41340723018E+03  0.41340723018E+03  0.00000000000E+00 0.  1.
        -13    1    1    2    0    0 -0.35900334753E+02  0.73248387700E+02  0.11688332686E+03  0.14253379809E+03  0.10566000000E+00 0.  1.
         13    1    1    2    0    0  0.55027343506E+02 -0.69162767038E+02 -0.13724597203E+03  0.16324204385E+03  0.10566000000E+00 0. -1.
          4    1    1    2  501    0 -0.19127008753E+02 -0.40856206618E+01 -0.24995596833E+03  0.25072000491E+03  0.00000000000E+00 0.  1.
</event>
<event>
 5    1  0.8445827E-005  0.4605277E+03  0.7818608E-02  0.1012738E+00
         21   -1    0    0  501  502  0.00000000000E+00  0.00000000000E+00  0.41640519813E+03  0.41640519813E+03  0.00000000000E+00 0.  1.
          4   -1    0    0  502    0 -0.00000000000E+00 -0.00000000000E+00 -0.90824021314E+03  0.90824021314E+03  0.00000000000E+00 0.  1.
        -13    1    1    2    0    0  0.17694848857E+03  0.45044384593E+03 -0.52549609123E+03  0.71439245447E+03  0.10566000000E+00 0.  1.
         13    1    1    2    0    0  0.41748670842E+02 -0.55746834144E+02  0.13125035306E+03  0.14858441162E+03  0.10566000000E+00 0. -1.
          4    1    1    2  501    0 -0.21869715941E+03 -0.39469701179E+03 -0.97589276847E+02  0.46166854518E+03  0.00000000000E+00 0.  1.
</event>
<event>
 5    1  0.8445827E-005  0.2694478E+03  0.7818608E-02  0.1030807E+00
         21   -1    0    0  501  502  0.00000000000E+00  0.00000000000E+00  0.12573172523E+03  0.12573172523E+03  0.00000000000E+00 0.  1.
          4   -1    0    0  502    0 -0.00000000000E+00 -0.00000000000E+00 -0.32702071479E+04  0.32702071479E+04  0.00000000000E+00 0.  1.
        -13    1    1    2    0    0  0.23073033551E+03  0.14702512076E+03 -0.70672064055E+02  0.28257286787E+03  0.10566000000E+00 0.  1.
         13    1    1    2    0    0 -0.15136917571E+03  0.12630080554E+03 -0.92341880436E+03  0.94422816111E+03  0.10566000000E+00 0. -1.
          4    1    1    2  501    0 -0.79361159801E+02 -0.27332592629E+03 -0.21503845543E+04  0.21691378442E+04  0.00000000000E+00 0.  1.
</event>
<event>
 5    1  0.8445827E-005  0.5621907E+03  0.7818608E-02  0.9351176E-01
         21   -1    0    0  501  502  0.00000000000E+00  0.00000000000E+00  0.38191748482E+03  0.38191748482E+03  0.00000000000E+00 0.  1.
          4   -1    0    0  502    0 -0.00000000000E+00 -0.00000000000E+00 -0.15906734140E+04  0.15906734140E+04  0.00000000000E+00 0.  1.
        -13    1    1    2    0    0  0.63162440501E+03 -0.28551208921E+03 -0.86771259185E+03  0.11105816923E+04  0.10566000000E+00 0.  1.
         13    1    1    2    0    0 -0.26930076226E+03  0.31612674509E+03 -0.10450901456E+03  0.42823027077E+03  0.10566000000E+00 0. -1.
          4    1    1    2  501    0 -0.36232364276E+03 -0.30614655878E+02 -0.23653432279E+03  0.43377893576E+03  0.00000000000E+00 0.  1.
</event>
<event>
 5    1  0.8445827E-005  0.4516521E+03  0.7818608E-02  0.9804127E-01
          4   -1    0    0  502    0 -0.00000000000E+00  0.00000000000E+00  0.23585255312E+04  0.23585255312E+04  0.00000000000E+00 0.  1.
         21   -1    0    0  501  502  0.00000000000E+00 -0.00000000000E+00 -0.18262863305E+03  0.18262863305E+03  0.00000000000E+00 0.  1.
        -13    1    1    2    0    0 -0.31586614051E+03 -0.29156558932E+03  0.11063043511E+04  0.11868829934E+04  0.10566000000E+00 0.  1.
         13    1    1    2    0    0  0.15125929030E+03 -0.15232041539E+03  0.75726715947E+03  0.78710510342E+03  0.10566000000E+00 0. -1.
          4    1    1    2  501    0  0.16460685021E+03  0.44388600471E+03  0.31232538755E+03  0.56716606741E+03  0.00000000000E+00 0.  1.
</event>
<event>
 5    1  0.8445827E-005  0.4561473E+03  0.7818608E-02  0.9777343E-01
          4   -1    0    0  502    0 -0.00000000000E+00  0.00000000000E+00  0.10075071651E+04  0.10075071651E+04  0.00000000000E+00 0.  1.
         21   -1    0    0  501  502  0.00000000000E+00 -0.00000000000E+00 -0.40353444102E+03  0.40353444102E+03  0.00000000000E+00 0.  1.
        -13    1    1    2    0    0 -0.20782306437E+03  0.39775256050E+03 -0.53855287033E+01  0.44880568239E+03  0.10566000000E+00 0.  1.
         13    1    1    2    0    0 -0.20491720719E+03 -0.10081094187E+03  0.25594641059E+03  0.34301965550E+03  0.10566000000E+00 0. -1.
          4    1    1    2  501    0  0.41274027156E+03 -0.29694161863E+03  0.35341184218E+03  0.61921626822E+03  0.00000000000E+00 0.  1.
</event>
<event>
 5    1  0.8445827E-005  0.5342135E+03  0.7818608E-02  0.9405979E-01
         -4   -1    0    0    0  501 -0.00000000000E+00  0.00000000000E+00  0.14203784744E+04  0.14203784744E+04  0.00000000000E+00 0. -1.
         21   -1    0    0  501  502  0.00000000000E+00 -0.00000000000E+00 -0.45627757278E+03  0.45627757278E+03  0.00000000000E+00 0.  1.
        -13    1    1    2    0    0  0.39946060569E+01 -0.49914442817E+03  0.66524694924E+03  0.83169383290E+03  0.10566000000E+00 0.  1.
         13    1    1    2    0    0  0.19142987389E+02  0.58941910200E+03  0.53177983245E+03  0.79408509187E+03  0.10566000000E+00 0. -1.
         -4    1    1    2    0  502 -0.23137593446E+02 -0.90274673823E+02 -0.23292588004E+03  0.25087712243E+03  0.00000000000E+00 0. -1.
</event>
<event>
 5    1  0.8445827E-005  0.2010625E+03  0.7818608E-02  0.1059410E+00
         21   -1    0    0  501  502  0.00000000000E+00  0.00000000000E+00  0.55746161668E+03  0.55746161668E+03  0.00000000000E+00 0.  1.
          4   -1    0    0  502    0 -0.00000000000E+00 -0.00000000000E+00 -0.10507195921E+04  0.10507195921E+04  0.00000000000E+00 0.  1.
        -13    1    1    2    0    0 -0.13322001480E+03  0.14794487612E+03 -0.44577972855E+03  0.48821597297E+03  0.10566000000E+00 0.  1.
         13    1    1    2    0    0  0.10079588934E+02 -0.22907281810E+03 -0.55019735009E+03  0.59606466874E+03  0.10566000000E+00 0. -1.
          4    1    1    2  501    0  0.12314042586E+03  0.81127941980E+02  0.50271910321E+03  0.52390056708E+03  0.00000000000E+00 0.  1.
</event>
<event>
 5    1  0.8445827E-005  0.9363457E+02  0.7818608E-02  0.1226760E+00
         21   -1    0    0  501  502  0.00000000000E+00  0.00000000000E+00  0.37148636207E+02  0.37148636207E+02  0.00000000000E+00 0.  1.
          4   -1    0    0  502    0 -0.00000000000E+00 -0.00000000000E+00 -0.32608221200E+03  0.32608221200E+03  0.00000000000E+00 0.  1.
        -13    1    1    2    0    0  0.74822302255E+02 -0.56136477178E+02 -0.14119172601E+03  0.16936586327E+03  0.10566000000E+00 0.  1.
         13    1    1    2    0    0  0.15582729761E+02  0.24725054894E+02 -0.42894706305E+02  0.51904882231E+02  0.10566000000E+00 0. -1.
          4    1    1    2  501    0 -0.90405032016E+02  0.31411422284E+02 -0.10484714348E+03  0.14196010270E+03  0.00000000000E+00 0.  1.
</event>
<event>
 5    1  0.8445827E-005  0.4139255E+03  0.7818608E-02  0.9727786E-01
          4   -1    0    0  502    0 -0.00000000000E+00  0.00000000000E+00  0.40287864485E+03  0.40287864485E+03  0.00000000000E+00 0.  1.
         21   -1    0    0  501  502  0.00000000000E+00 -0.00000000000E+00 -0.12575217337E+04  0.12575217337E+04  0.00000000000E+00 0. -1.
        -13    1    1    2    0    0  0.27726049702E+03 -0.12592141325E+03  0.15501298065E+03  0.34169960617E+03  0.10566000000E+00 0.  1.
         13    1    1    2    0    0  0.15230822694E+03  0.32900561159E+03 -0.33581646517E+03  0.49418134110E+03  0.10566000000E+00 0. -1.
          4    1    1    2  501    0 -0.42956872396E+03 -0.20308419833E+03 -0.67383960437E+03  0.82451943132E+03  0.00000000000E+00 0.  1.
</event>
<event>
 5    1  0.8445827E-005  0.1113516E+03  0.7818608E-02  0.1147028E+00
         -4   -1    0    0    0  501 -0.00000000000E+00  0.00000000000E+00  0.84694617002E+02  0.84694617002E+02  0.00000000000E+00 0. -1.
         21   -1    0    0  501  502  0.00000000000E+00 -0.00000000000E+00 -0.90464690747E+03  0.90464690747E+03  0.00000000000E+00 0. -1.
        -13    1    1    2    0    0 -0.64648160131E+02  0.86961693671E+02  0.16165508882E+02  0.10955845753E+03  0.10566000000E+00 0.  1.
         13    1    1    2    0    0  0.81595199933E+02 -0.91824973034E+02 -0.15197184640E+03  0.19540996798E+03  0.10566000000E+00 0. -1.
         -4    1    1    2    0  502 -0.16947039802E+02  0.48632793626E+01 -0.68414595295E+03  0.68437309896E+03  0.00000000000E+00 0. -1.
</event>
<event>
 5    1  0.8445827E-005  0.2468021E+03  0.7818608E-02  0.1051767E+00
         21   -1    0    0  501  502  0.00000000000E+00  0.00000000000E+00  0.45948362741E+02  0.45948362741E+02  0.00000000000E+00 0. -1.
         -4   -1    0    0    0  501 -0.00000000000E+00 -0.00000000000E+00 -0.26157996195E+04  0.26157996195E+04  0.00000000000E+00 0. -1.
        -13    1    1    2    0    0 -0.97683422198E+02  0.94813676526E+02 -0.30169873873E+03  0.33098916047E+03  0.10566000000E+00 0.  1.
         13    1    1    2    0    0  0.88522962678E+02 -0.27339746121E+03 -0.76831362987E+03  0.82029770921E+03  0.10566000000E+00 0. -1.
         -4    1    1    2    0  502  0.91604595206E+01  0.17858378468E+03 -0.14998388881E+04  0.15104611125E+04  0.00000000000E+00 0. -1.
</event>
<event>
 5    1  0.8445827E-005  0.1230983E+03  0.7818608E-02  0.1137245E+00
          4   -1    0    0  502    0 -0.00000000000E+00  0.00000000000E+00  0.31100480266E+03  0.31100480266E+03  0.00000000000E+00 0.  1.
         21   -1    0    0  501  502  0.00000000000E+00 -0.00000000000E+00 -0.25609522117E+03  0.25609522117E+03  0.00000000000E+00 0.  1.
        -13    1    1    2    0    0  0.39087034449E+02  0.10018217276E+03  0.17729630347E+03  0.20736020445E+03  0.10566000000E+00 0.  1.
         13    1    1    2    0    0  0.53335990592E+02 -0.19587532052E+03 -0.53567000001E+02  0.20995548036E+03  0.10566000000E+00 0. -1.
          4    1    1    2  501    0 -0.92423025040E+02  0.95693147755E+02 -0.68819721981E+02  0.14978433903E+03  0.00000000000E+00 0.  1.
</event>
<event>
 5    1  0.8445827E-005  0.8342821E+02  0.7818608E-02  0.1195331E+00
         21   -1    0    0  501  502  0.00000000000E+00  0.00000000000E+00  0.14460879072E+03  0.14460879072E+03  0.00000000000E+00 0. -1.
          4   -1    0    0  502    0 -0.00000000000E+00 -0.00000000000E+00 -0.14718222399E+03  0.14718222399E+03  0.00000000000E+00 0.  1.
        -13    1    1    2    0    0 -0.67119573138E+02  0.48557289079E+02 -0.11123223306E+03  0.13869199060E+03  0.10566000000E+00 0.  1.
         13    1    1    2    0    0  0.65187926232E+02 -0.58581400844E+02  0.67306559623E+02  0.11050534097E+03  0.10566000000E+00 0. -1.
          4    1    1    2  501    0  0.19316469063E+01  0.10024111765E+02  0.41352240169E+02  0.42593683140E+02  0.00000000000E+00 0.  1.
</event>
<event>
 5    1  0.8445827E-005  0.4977225E+03  0.7818608E-02  0.9643571E-01
         21   -1    0    0  501  502  0.00000000000E+00  0.00000000000E+00  0.10832706293E+04  0.10832706293E+04  0.00000000000E+00 0.  1.
          4   -1    0    0  502    0 -0.00000000000E+00 -0.00000000000E+00 -0.10933005355E+04  0.10933005355E+04  0.00000000000E+00 0.  1.
        -13    1    1    2    0    0 -0.53824200939E+03  0.20620641329E+03  0.68504082282E+03  0.89526894598E+03  0.10566000000E+00 0.  1.
         13    1    1    2    0    0  0.26214212062E+03  0.97987942036E+02 -0.80813174288E+03  0.85521754730E+03  0.10566000000E+00 0. -1.
          4    1    1    2  501    0  0.27609988877E+03 -0.30419435533E+03  0.11306101387E+03  0.42608467145E+03  0.00000000000E+00 0.  1.
</event>
<event>
 5    1  0.8445827E-005  0.4327246E+03  0.7818608E-02  0.1011756E+00
          4   -1    0    0  502    0 -0.00000000000E+00  0.00000000000E+00  0.42343830184E+03  0.42343830184E+03  0.00000000000E+00 0.  1.
         21   -1    0    0  501  502  0.00000000000E+00 -0.00000000000E+00 -0.83944870919E+03  0.83944870919E+03  0.00000000000E+00 0.  1.
        -13    1    1    2    0    0 -0.28350007159E+03  0.24077580180E+03  0.11256173753E+03  0.38860704220E+03  0.10566000000E+00 0.  1.
         13    1    1    2    0    0 -0.34072616546E+02  0.79649914723E+02  0.79194572650E+02  0.11737479974E+03  0.10566000000E+00 0. -1.
          4    1    1    2  501    0  0.31757268814E+03 -0.32042571652E+03 -0.60776671752E+03  0.75690516908E+03  0.00000000000E+00 0.  1.
</event>
<event>
 5    1  0.8445827E-005  0.4167878E+03  0.7818608E-02  0.9805294E-01
          4   -1    0    0  502    0 -0.00000000000E+00  0.00000000000E+00  0.14125108376E+04  0.14125108376E+04  0.00000000000E+00 0.  1.
         21   -1    0    0  501  502  0.00000000000E+00 -0.00000000000E+00 -0.30366148019E+03  0.30366148019E+03  0.00000000000E+00 0.  1.
        -13    1    1    2    0    0 -0.34835351014E+03  0.19065190534E+03  0.10420135908E+03  0.41055602716E+03  0.10566000000E+00 0.  1.
         13    1    1    2    0    0  0.65752491975E+02  0.26401696181E+03  0.19402876340E+03  0.33417887203E+03  0.10566000000E+00 0. -1.
          4    1    1    2  501    0  0.28260101817E+03 -0.45466886715E+03  0.81061923499E+03  0.97143741865E+03  0.00000000000E+00 0.  1.
</event>
<event>
 5    1  0.8445827E-005  0.6368854E+03  0.7818608E-02  0.9219936E-01
         21   -1    0    0  501  502  0.00000000000E+00  0.00000000000E+00  0.27604479582E+03  0.27604479582E+03  0.00000000000E+00 0.  1.
          4   -1    0    0  502    0 -0.00000000000E+00 -0.00000000000E+00 -0.30660867579E+04  0.30660867579E+04  0.00000000000E+00 0.  1.
        -13    1    1    2    0    0 -0.50255512102E+03 -0.53387472761E+03 -0.12494926814E+04  0.14487290452E+04  0.10566000000E+00 0.  1.
         13    1    1    2    0    0  0.13889362721E+03  0.59414933754E+03 -0.13431608137E+04  0.14752578953E+04  0.10566000000E+00 0. -1.
          4    1    1    2  501    0  0.36366149381E+03 -0.60274609927E+02 -0.19738846702E+03  0.41814461325E+03  0.00000000000E+00 0.  1.
</event>
<event>
 5    1  0.8445827E-005  0.5353371E+02  0.7818608E-02  0.1278034E+00
         -4   -1    0    0    0  501 -0.00000000000E+00  0.00000000000E+00  0.53571484913E+02  0.53571484913E+02  0.00000000000E+00 0. -1.
         21   -1    0    0  501  502  0.00000000000E+00 -0.00000000000E+00 -0.34518706208E+03  0.34518706208E+03  0.00000000000E+00 0.  1.
        -13    1    1    2    0    0 -0.50015262772E+02 -0.39918350338E+02 -0.10100890836E+03  0.11957345832E+03  0.10566000000E+00 0.  1.
         13    1    1    2    0    0  0.41680721932E+02  0.31225515296E+02  0.28756428573E+02  0.59491669455E+02  0.10566000000E+00 0. -1.
         -4    1    1    2    0  502  0.83345408408E+01  0.86928350421E+01 -0.21936309739E+03  0.21969341922E+03  0.00000000000E+00 0. -1.
</event>
<event>
 5    1  0.8445827E-005  0.3262705E+03  0.7818608E-02  0.9970157E-01
         21   -1    0    0  501  502  0.00000000000E+00  0.00000000000E+00  0.42470621797E+03  0.42470621797E+03  0.00000000000E+00 0.  1.
          4   -1    0    0  502    0 -0.00000000000E+00 -0.00000000000E+00 -0.19596946393E+04  0.19596946393E+04  0.00000000000E+00 0.  1.
        -13    1    1    2    0    0  0.85673438037E+02 -0.32339811241E+03 -0.13830006379E+04  0.14228903867E+04  0.10566000000E+00 0.  1.
         13    1    1    2    0    0 -0.72422519133E+02  0.29993206019E+03 -0.51345891396E+03  0.59903616710E+03  0.10566000000E+00 0. -1.
          4    1    1    2  501    0 -0.13250918904E+02  0.23466052217E+02  0.36147113052E+03  0.36247430344E+03  0.00000000000E+00 0.  1.
</event>
<event>
 5    1  0.8445827E-005  0.1154198E+03  0.7818608E-02  0.1141296E+00
         -4   -1    0    0    0  501 -0.00000000000E+00  0.00000000000E+00  0.23312217565E+03  0.23312217565E+03  0.00000000000E+00 0. -1.
         21   -1    0    0  501  502  0.00000000000E+00 -0.00000000000E+00 -0.23290277935E+03  0.23290277935E+03  0.00000000000E+00 0. -1.
        -13    1    1    2    0    0  0.24991235940E+02  0.10477193957E+03  0.21721554886E+02  0.10987974475E+03  0.10566000000E+00 0.  1.
         13    1    1    2    0    0 -0.23837851448E+02 -0.11674473909E+03  0.14586526378E+03  0.18834612714E+03  0.10566000000E+00 0. -1.
         -4    1    1    2    0  502 -0.11533844920E+01  0.11972799522E+02 -0.16736742237E+03  0.16779908311E+03  0.00000000000E+00 0. -1.
</event>
<event>
 5    1  0.8445827E-005  0.3225460E+03  0.7818608E-02  0.1013023E+00
          4   -1    0    0  502    0 -0.00000000000E+00  0.00000000000E+00  0.14981970982E+04  0.14981970982E+04  0.00000000000E+00 0.  1.
         21   -1    0    0  501  502  0.00000000000E+00 -0.00000000000E+00 -0.15453347394E+03  0.15453347394E+03  0.00000000000E+00 0.  1.
        -13    1    1    2    0    0 -0.28468874993E+03 -0.30086359152E+03  0.31323668038E+03  0.51931090316E+03  0.10566000000E+00 0.  1.
         13    1    1    2    0    0  0.69859881075E+02  0.18834534350E+03  0.66632117789E+03  0.69594417496E+03  0.10566000000E+00 0. -1.
          4    1    1    2  501    0  0.21482886886E+03  0.11251824802E+03  0.36410576599E+03  0.43747549401E+03  0.00000000000E+00 0.  1.
</event>
<event>
 5    1  0.8445827E-005  0.2383785E+03  0.7818608E-02  0.1045113E+00
         21   -1    0    0  501  502  0.00000000000E+00  0.00000000000E+00  0.92498662255E+03  0.92498662255E+03  0.00000000000E+00 0. -1.
          4   -1    0    0  502    0 -0.00000000000E+00 -0.00000000000E+00 -0.49109584482E+03  0.49109584482E+03  0.00000000000E+00 0.  1.
        -13    1    1    2    0    0 -0.31682983670E+03 -0.16893481983E+03 -0.36677258976E+03  0.51326626866E+03  0.10566000000E+00 0.  1.
         13    1    1    2    0    0  0.84208522442E+02  0.16387323726E+03  0.36882427666E+03  0.41228251401E+03  0.10566000000E+00 0. -1.
          4    1    1    2  501    0  0.23262131426E+03  0.50615825738E+01  0.43183909083E+03  0.49053368471E+03  0.00000000000E+00 0.  1.
</event>
<event>
 5    1  0.8445827E-005  0.4725257E+03  0.7818608E-02  0.9709323E-01
         21   -1    0    0  501  502  0.00000000000E+00  0.00000000000E+00  0.21550600234E+04  0.21550600234E+04  0.00000000000E+00 0.  1.
          4   -1    0    0  502    0 -0.00000000000E+00 -0.00000000000E+00 -0.34874733246E+03  0.34874733246E+03  0.00000000000E+00 0.  1.
        -13    1    1    2    0    0 -0.19783215571E+03 -0.28716396735E+03  0.28204087305E+03  0.44849500689E+03  0.10566000000E+00 0.  1.
         13    1    1    2    0    0 -0.25942659274E+03 -0.14388697737E+02 -0.14564313792E+03  0.29786091792E+03  0.10566000000E+00 0. -1.
          4    1    1    2  501    0  0.45725874844E+03  0.30155266509E+03  0.16699149558E+04  0.17574514310E+04  0.00000000000E+00 0.  1.
</event>
<event>
 5    1  0.8445827E-005  0.3819904E+03  0.7818608E-02  0.1023891E+00
          4   -1    0    0  502    0 -0.00000000000E+00  0.00000000000E+00  0.78446644821E+03  0.78446644821E+03  0.00000000000E+00 0.  1.
         21   -1    0    0  501  502  0.00000000000E+00 -0.00000000000E+00 -0.37798880596E+03  0.37798880596E+03  0.00000000000E+00 0.  1.
        -13    1    1    2    0    0 -0.19691699974E+03 -0.40626080990E+03  0.52052843656E+03  0.68903847126E+03  0.10566000000E+00 0.  1.
         13    1    1    2    0    0  0.25385348437E+02  0.81931936272E+02  0.94489393176E+01  0.86293404817E+02  0.10566000000E+00 0. -1.
          4    1    1    2  501    0  0.17153165130E+03  0.32432887362E+03 -0.12349973362E+03  0.38712337810E+03  0.00000000000E+00 0.  1.
</event>
<event>
 5    1  0.8445827E-005  0.5122236E+03  0.7818608E-02  0.9775738E-01
         21   -1    0    0  501  502  0.00000000000E+00  0.00000000000E+00  0.30776659839E+03  0.30776659839E+03  0.00000000000E+00 0. -1.
         -4   -1    0    0    0  501 -0.00000000000E+00 -0.00000000000E+00 -0.13305421496E+04  0.13305421496E+04  0.00000000000E+00 0. -1.
        -13    1    1    2    0    0 -0.72464628111E+02 -0.14507898332E+03 -0.39160943158E+03  0.42385963690E+03  0.10566000000E+00 0.  1.
         13    1    1    2    0    0  0.14911198880E+03 -0.42878220751E+03 -0.33459479219E+03  0.56395234976E+03  0.10566000000E+00 0. -1.
         -4    1    1    2    0  502 -0.76647360692E+02  0.57386119083E+03 -0.29657132746E+03  0.65049676134E+03  0.00000000000E+00 0. -1.
</event>
<event>
 5    1  0.8445827E-005  0.2173991E+03  0.7818608E-02  0.1048821E+00
          4   -1    0    0  502    0 -0.00000000000E+00  0.00000000000E+00  0.18458600892E+04  0.18458600892E+04  0.00000000000E+00 0.  1.
         21   -1    0    0  501  502  0.00000000000E+00 -0.00000000000E+00 -0.43700697745E+02  0.43700697745E+02  0.00000000000E+00 0.  1.
        -13    1    1    2    0    0 -0.21468342926E+03 -0.16655265621E+02  0.83433342174E+03  0.86167200399E+03  0.10566000000E+00 0.  1.
         13    1    1    2    0    0  0.21905752631E+03 -0.45252167708E+02  0.92699395703E+03  0.95359937398E+03  0.10566000000E+00 0. -1.
          4    1    1    2  501    0 -0.43740970440E+01  0.61907433329E+02  0.40832012698E+02  0.74289408984E+02  0.00000000000E+00 0.  1.
</event>
<event>
 5    1  0.8445827E-005  0.1747027E+03  0.7818608E-02  0.1102412E+00
          4   -1    0    0  502    0 -0.00000000000E+00  0.00000000000E+00  0.77038487520E+02  0.77038487520E+02  0.00000000000E+00 0.  1.
         21   -1    0    0  501  502  0.00000000000E+00 -0.00000000000E+00 -0.10326152079E+04  0.10326152079E+04  0.00000000000E+00 0.  1.
        -13    1    1    2    0    0  0.18044711579E+03  0.14820955959E+03 -0.28439038911E+03  0.36797437374E+03  0.10566000000E+00 0.  1.
         13    1    1    2    0    0 -0.31024457871E+02 -0.86256553103E+02 -0.60255908216E+02  0.10969729066E+03  0.10566000000E+00 0. -1.
          4    1    1    2  501    0 -0.14942265792E+03 -0.61953006487E+02 -0.61093042307E+03  0.63198203103E+03  0.00000000000E+00 0.  1.
</event>
<event>
 5    1  0.8445827E-005  0.6329986E+02  0.7818608E-02  0.1245486E+00
         -4   -1    0    0    0  501 -0.00000000000E+00  0.00000000000E+00  0.22167897024E+02  0.22167897024E+02  0.00000000000E+00 0. -1.
         21   -1    0    0  501  502  0.00000000000E+00 -0.00000000000E+00 -0.40702125356E+03  0.40702125356E+03  0.00000000000E+00 0.  1.
        -13    1    1    2    0    0 -0.14506047441E+02 -0.45334016691E+02 -0.18328463293E+03  0.18936437446E+03  0.10566000000E+00 0.  1.
         13    1    1    2    0    0  0.54324889839E+01  0.69035105806E+02 -0.48203283644E+02  0.84373725107E+02  0.10566000000E+00 0. -1.
         -4    1    1    2    0  502  0.90735584568E+01 -0.23701089115E+02 -0.15336543996E+03  0.15545105102E+03  0.00000000000E+00 0. -1.
</event>
<event>
 5    1  0.8445827E-005  0.9644814E+02  0.7818608E-02  0.1170570E+00
         21   -1    0    0  501  502  0.00000000000E+00  0.00000000000E+00  0.21813147024E+03  0.21813147024E+03  0.00000000000E+00 0.  1.
          4   -1    0    0  502    0 -0.00000000000E+00 -0.00000000000E+00 -0.55940130918E+03  0.55940130918E+03  0.00000000000E+00 0.  1.
        -13    1    1    2    0    0 -0.93766393613E+02  0.14792801806E+02 -0.50825759118E+03  0.51704618142E+03  0.10566000000E+00 0.  1.
         13    1    1    2    0    0  0.12667777438E+03 -0.26672981729E+02  0.50667491776E+02  0.13901766925E+03  0.10566000000E+00 0. -1.
          4    1    1    2  501    0 -0.32911380766E+02  0.11880179924E+02  0.11632026047E+03  0.12146892876E+03  0.00000000000E+00 0.  1.
</event>
<event>
 5    1  0.8445827E-005  0.4552382E+02  0.7818608E-02  0.1311170E+00
         21   -1    0    0  501  502  0.00000000000E+00  0.00000000000E+00  0.56961369557E+02  0.56961369557E+02  0.00000000000E+00 0. -1.
         -4   -1    0    0    0  501 -0.00000000000E+00 -0.00000000000E+00 -0.92163294543E+02  0.92163294543E+02  0.00000000000E+00 0. -1.
        -13    1    1    2    0    0  0.30976323106E+02 -0.97394261309E+01  0.20374372542E+01  0.32535385800E+02  0.10566000000E+00 0.  1.
         13    1    1    2    0    0 -0.43416456143E+02  0.32164615371E+02 -0.61097575116E+02  0.81562712038E+02  0.10566000000E+00 0. -1.
         -4    1    1    2    0  502  0.12440133037E+02 -0.22425189240E+02  0.23858212876E+02  0.35026566261E+02  0.00000000000E+00 0. -1.
</event>
<event>
 5    1  0.8445827E-005  0.2299183E+02  0.7818608E-02  0.1472047E+00
         21   -1    0    0  501  502  0.00000000000E+00  0.00000000000E+00  0.90530600235E+02  0.90530600235E+02  0.00000000000E+00 0.  1.
          4   -1    0    0  502    0 -0.00000000000E+00 -0.00000000000E+00 -0.41979516594E+02  0.41979516594E+02  0.00000000000E+00 0.  1.
        -13    1    1    2    0    0  0.42582441757E+01 -0.21865218583E+02 -0.32076536436E+02  0.39052986838E+02  0.10566000000E+00 0.  1.
         13    1    1    2    0    0 -0.81478572958E+01  0.31090366558E+02  0.38481222327E+02  0.50137950766E+02  0.10566000000E+00 0. -1.
          4    1    1    2  501    0  0.38896131201E+01 -0.92251479748E+01  0.42146397751E+02  0.43319179226E+02  0.00000000000E+00 0.  1.
</event>
<event>
 5    1  0.8445827E-005  0.1546246E+03  0.7818608E-02  0.1096638E+00
         21   -1    0    0  501  502  0.00000000000E+00  0.00000000000E+00  0.80476777209E+02  0.80476777209E+02  0.00000000000E+00 0. -1.
          4   -1    0    0  502    0 -0.00000000000E+00 -0.00000000000E+00 -0.76570531796E+03  0.76570531796E+03  0.00000000000E+00 0.  1.
        -13    1    1    2    0    0 -0.40871418207E+02  0.15822324453E+03 -0.33438165330E+03  0.37217760433E+03  0.10566000000E+00 0.  1.
         13    1    1    2    0    0  0.22202074888E+02 -0.14703059461E+03 -0.39647926316E+03  0.42344627187E+03  0.10566000000E+00 0. -1.
          4    1    1    2  501    0  0.18669343319E+02 -0.11192649925E+02  0.45632375709E+02  0.50558218967E+02  0.00000000000E+00 0.  1.
</event>
<event>
 5    1  0.8445827E-005  0.2487296E+03  0.7818608E-02  0.1031053E+00
         21   -1    0    0  501  502  0.00000000000E+00  0.00000000000E+00  0.47737567080E+03  0.47737567080E+03  0.00000000000E+00 0.  1.
          4   -1    0    0  502    0 -0.00000000000E+00 -0.00000000000E+00 -0.40133649149E+03  0.40133649149E+03  0.00000000000E+00 0.  1.
        -13    1    1    2    0    0  0.79995967331E+02  0.25361141899E+03  0.91235787457E+02  0.28114424538E+03  0.10566000000E+00 0.  1.
         13    1    1    2    0    0 -0.54840492536E+02 -0.23815231993E+03 -0.25660606750E+03  0.35435955208E+03  0.10566000000E+00 0. -1.
          4    1    1    2  501    0 -0.25155474794E+02 -0.15459099063E+02  0.24140945936E+03  0.24320836483E+03  0.00000000000E+00 0.  1.
</event>
<event>
 5    1  0.8445827E-005  0.4856940E+03  0.7818608E-02  0.9781756E-01
         21   -1    0    0  501  502  0.00000000000E+00  0.00000000000E+00  0.35828165083E+03  0.35828165083E+03  0.00000000000E+00 0.  1.
          4   -1    0    0  502    0 -0.00000000000E+00 -0.00000000000E+00 -0.10091440797E+04  0.10091440797E+04  0.00000000000E+00 0.  1.
        -13    1    1    2    0    0  0.42706457885E+03  0.35685802245E+03 -0.93083391790E+02  0.56426618868E+03  0.10566000000E+00 0.  1.
         13    1    1    2    0    0 -0.15636578952E+03 -0.10134767272E+03 -0.94712307696E+02  0.20902641769E+03  0.10566000000E+00 0. -1.
          4    1    1    2  501    0 -0.27069878933E+03 -0.25551034973E+03 -0.46306672939E+03  0.59413312417E+03  0.00000000000E+00 0.  1.
</event>
<event>
 5    1  0.1000158E-004  0.1977440E+03  0.7818608E-02  0.1155173E+00
          4   -1    0    0  502    0 -0.00000000000E+00  0.00000000000E+00  0.25479431059E+04  0.25479431059E+04  0.00000000000E+00 0.  1.
         21   -1    0    0  501  502  0.00000000000E+00 -0.00000000000E+00 -0.35783661992E+03  0.35783661992E+03  0.00000000000E+00 0. -1.
        -13    1    1    2    0    0 -0.55255763063E+02  0.23311958458E+01 -0.14623244089E+03  0.15634120301E+03  0.10566000000E+00 0.  1.
         13    1    1    2    0    0 -0.40379763675E+03  0.55913849213E+03  0.84208558368E+03  0.10884835902E+04  0.10566000000E+00 0. -1.
          4    1    1    2  501    0  0.45905339981E+03 -0.56146968797E+03  0.14942533432E+04  0.16609549325E+04  0.00000000000E+00 0.  1.
</event>
<event>
 5    1  0.8445827E-005  0.1064106E+03  0.7818608E-02  0.1154364E+00
         -4   -1    0    0    0  501 -0.00000000000E+00  0.00000000000E+00  0.11231364645E+03  0.11231364645E+03  0.00000000000E+00 0. -1.
         21   -1    0    0  501  502  0.00000000000E+00 -0.00000000000E+00 -0.30861444043E+03  0.30861444043E+03  0.00000000000E+00 0. -1.
        -13    1    1    2    0    0  0.72023548356E+02 -0.53506955776E+02 -0.58137237634E+02  0.10691274666E+03  0.10566000000E+00 0.  1.
         13    1    1    2    0    0 -0.12648289475E+03 -0.10727895065E+02  0.25944228111E+02  0.12956127713E+03  0.10566000000E+00 0. -1.
         -4    1    1    2    0  502  0.54459346392E+02  0.64234850841E+02 -0.16410778446E+03  0.18445406309E+03  0.00000000000E+00 0. -1.
</event>
<event>
 5    1  0.8445827E-005  0.2094758E+03  0.7818608E-02  0.1057448E+00
         -4   -1    0    0    0  501 -0.00000000000E+00  0.00000000000E+00  0.15403446559E+04  0.15403446559E+04  0.00000000000E+00 0. -1.
         21   -1    0    0  501  502  0.00000000000E+00 -0.00000000000E+00 -0.23959600886E+03  0.23959600886E+03  0.00000000000E+00 0. -1.
        -13    1    1    2    0    0  0.28163860526E+02 -0.21913537493E+03  0.87930760868E+03  0.90663961827E+03  0.10566000000E+00 0.  1.
         13    1    1    2    0    0  0.19439007898E+03 -0.10358078684E+02 -0.13127473894E+03  0.23479322999E+03  0.10566000000E+00 0. -1.
         -4    1    1    2    0  502 -0.22255393951E+03  0.22949345362E+03  0.55271577734E+03  0.63850781652E+03  0.00000000000E+00 0. -1.
</event>
<event>
 5    1  0.8445827E-005  0.7364795E+02  0.7818608E-02  0.1221833E+00
          4   -1    0    0  502    0 -0.00000000000E+00  0.00000000000E+00  0.85809037125E+02  0.85809037125E+02  0.00000000000E+00 0.  1.
         21   -1    0    0  501  502  0.00000000000E+00 -0.00000000000E+00 -0.28289142804E+03  0.28289142804E+03  0.00000000000E+00 0. -1.
        -13    1    1    2    0    0  0.63025398508E+01  0.63183224888E+02  0.15387569405E+02  0.65334756233E+02  0.10566000000E+00 0.  1.
         13    1    1    2    0    0 -0.82444722453E+02 -0.76370272156E+02 -0.49095610272E+02  0.12263743654E+03  0.10566000000E+00 0. -1.
          4    1    1    2  501    0  0.76142182602E+02  0.13187047268E+02 -0.16337435005E+03  0.18072827239E+03  0.00000000000E+00 0.  1.
</event>
<event>
 5    1  0.8445827E-005  0.8492582E+02  0.7818608E-02  0.1192236E+00
         -4   -1    0    0    0  501 -0.00000000000E+00  0.00000000000E+00  0.19748520343E+02  0.19748520343E+02  0.00000000000E+00 0. -1.
         21   -1    0    0  501  502  0.00000000000E+00 -0.00000000000E+00 -0.62435479099E+03  0.62435479099E+03  0.00000000000E+00 0.  1.
        -13    1    1    2    0    0 -0.49352261214E+02  0.62124885928E+02 -0.40524571905E+03  0.41293976693E+03  0.10566000000E+00 0.  1.
         13    1    1    2    0    0  0.39607468449E+02 -0.77495076492E+02 -0.11153338825E+03  0.14147065525E+03  0.10566000000E+00 0. -1.
         -4    1    1    2    0  502  0.97447927652E+01  0.15370190564E+02 -0.87827163348E+02  0.89692889159E+02  0.00000000000E+00 0. -1.
</event>
<event>
 5    1  0.8445827E-005  0.4205423E+02  0.7818608E-02  0.1339143E+00
          4   -1    0    0  502    0 -0.00000000000E+00  0.00000000000E+00  0.33723931333E+02  0.33723931333E+02  0.00000000000E+00 0.  1.
         21   -1    0    0  501  502  0.00000000000E+00 -0.00000000000E+00 -0.18060029619E+03  0.18060029619E+03  0.00000000000E+00 0.  1.
        -13    1    1    2    0    0 -0.19788006760E+02  0.45510331649E+02 -0.27813683258E+02  0.56889081894E+02  0.10566000000E+00 0.  1.
         13    1    1    2    0    0 -0.19361602427E+02 -0.28257473921E+02 -0.37709151424E+01  0.34461390657E+02  0.10566000000E+00 0. -1.
          4    1    1    2  501    0  0.39149609187E+02 -0.17252857727E+02 -0.11529176646E+03  0.12297375497E+03  0.00000000000E+00 0.  1.
</event>
<event>
 5    1  0.8445827E-005  0.4059650E+03  0.7818608E-02  0.9813599E-01
         -4   -1    0    0    0  501 -0.00000000000E+00  0.00000000000E+00  0.42421580420E+03  0.42421580420E+03  0.00000000000E+00 0. -1.
         21   -1    0    0  501  502  0.00000000000E+00 -0.00000000000E+00 -0.11114575366E+04  0.11114575366E+04  0.00000000000E+00 0. -1.
        -13    1    1    2    0    0 -0.16788792386E+03  0.23180022988E+03 -0.35331117719E+03  0.45469385375E+03  0.10566000000E+00 0.  1.
         13    1    1    2    0    0  0.88905186926E+02  0.22183654025E+03  0.24433352640E+03  0.34178131333E+03  0.10566000000E+00 0. -1.
         -4    1    1    2    0  502  0.78982736938E+02 -0.45363677013E+03 -0.57826408163E+03  0.73919817374E+03  0.00000000000E+00 0. -1.
</event>
<event>
 5    1  0.8445827E-005  0.5609911E+03  0.7818608E-02  0.9353456E-01
          4   -1    0    0  502    0 -0.00000000000E+00  0.00000000000E+00  0.29926767172E+04  0.29926767172E+04  0.00000000000E+00 0.  1.
         21   -1    0    0  501  502  0.00000000000E+00 -0.00000000000E+00 -0.25401688781E+03  0.25401688781E+03  0.00000000000E+00 0.  1.
        -13    1    1    2    0    0  0.17325456626E+03 -0.53623424362E+03  0.11064298928E+04  0.12416728344E+04  0.10566000000E+00 0.  1.
         13    1    1    2    0    0 -0.18586488867E+03  0.52767381781E+03  0.17751856686E+04  0.18612548413E+04  0.10566000000E+00 0. -1.
          4    1    1    2  501    0  0.12610322418E+02  0.85604258086E+01 -0.14295573205E+03  0.14376592937E+03  0.00000000000E+00 0.  1.
</event>
<event>
 5    1  0.8445827E-005  0.1753186E+02  0.7818608E-02  0.1581414E+00
          4   -1    0    0  502    0 -0.00000000000E+00  0.00000000000E+00  0.47033545422E+02  0.47033545422E+02  0.00000000000E+00 0.  1.
         21   -1    0    0  501  502  0.00000000000E+00 -0.00000000000E+00 -0.17489967249E+03  0.17489967249E+03  0.00000000000E+00 0.  1.
        -13    1    1    2    0    0  0.35968593255E+01 -0.13424946415E+02  0.42029418222E+02  0.44267931320E+02  0.10566000000E+00 0.  1.
         13    1    1    2    0    0 -0.25528233410E+02  0.11477100856E+02 -0.70344508220E+02  0.75708490579E+02  0.10566000000E+00 0. -1.
          4    1    1    2  501    0  0.21931374084E+02  0.19478455590E+01 -0.99551037065E+02  0.10195679601E+03  0.00000000000E+00 0.  1.
</event>
<event>
 5    1  0.8445827E-005  0.2299662E+03  0.7818608E-02  0.1118736E+00
         21   -1    0    0  501  502  0.00000000000E+00  0.00000000000E+00  0.47033648601E+03  0.47033648601E+03  0.00000000000E+00 0.  1.
          4   -1    0    0  502    0 -0.00000000000E+00 -0.00000000000E+00 -0.56992865359E+03  0.56992865359E+03  0.00000000000E+00 0.  1.
        -13    1    1    2    0    0  0.58499209177E+02 -0.22203417905E+03  0.40809522724E+03  0.46825533612E+03  0.10566000000E+00 0.  1.
         13    1    1    2    0    0  0.26039022660E+02  0.54137463206E+00 -0.41345951940E+02  0.48865352689E+02  0.10566000000E+00 0. -1.
          4    1    1    2  501    0 -0.84538231837E+02  0.22149280442E+03 -0.46634144288E+03  0.52314445079E+03  0.00000000000E+00 0.  1.
</event>
<event>
 5    1  0.8445827E-005  0.4875536E+03  0.7818608E-02  0.9505677E-01
          4   -1    0    0  502    0 -0.00000000000E+00  0.00000000000E+00  0.15014081047E+04  0.15014081047E+04  0.00000000000E+00 0.  1.
         21   -1    0    0  501  502  0.00000000000E+00 -0.00000000000E+00 -0.25126739531E+03  0.25126739531E+03  0.00000000000E+00 0. -1.
        -13    1    1    2    0    0 -0.43013751667E+02  0.48178877620E+03  0.67927128411E+03  0.83389453547E+03  0.10566000000E+00 0.  1.
         13    1    1    2    0    0  0.73472451596E+02 -0.48656048414E+03  0.66069803509E+03  0.82380896487E+03  0.10566000000E+00 0. -1.
          4    1    1    2  501    0 -0.30458699929E+02  0.47717079406E+01 -0.89828609764E+02  0.94971999716E+02  0.00000000000E+00 0.  1.
</event>
<event>
 5    1  0.8445827E-005  0.4723388E+03  0.7818608E-02  0.9732257E-01
         21   -1    0    0  501  502  0.00000000000E+00  0.00000000000E+00  0.18108816553E+03  0.18108816553E+03  0.00000000000E+00 0. -1.
         -4   -1    0    0    0  501 -0.00000000000E+00 -0.00000000000E+00 -0.22687343603E+04  0.22687343603E+04  0.00000000000E+00 0. -1.
        -13    1    1    2    0    0  0.69229038714E+02  0.23005301198E+03 -0.51338743843E+03  0.56681894925E+03  0.10566000000E+00 0.  1.
         13    1    1    2    0    0 -0.16342765655E+03  0.30338578278E+03 -0.11332670297E+04  0.11845023021E+04  0.10566000000E+00 0. -1.
         -4    1    1    2    0  502  0.94198617839E+02 -0.53343879476E+03 -0.44099172664E+03  0.69850127439E+03  0.00000000000E+00 0. -1.
</event>
<event>
 5    1  0.8445827E-005  0.1587631E+03  0.7818608E-02  0.1092777E+00
         -4   -1    0    0    0  501 -0.00000000000E+00  0.00000000000E+00  0.78744402496E+02  0.78744402496E+02  0.00000000000E+00 0. -1.
         21   -1    0    0  501  502  0.00000000000E+00 -0.00000000000E+00 -0.58342948565E+03  0.58342948565E+03  0.00000000000E+00 0.  1.
        -13    1    1    2    0    0  0.11555805372E+03  0.78036594341E+02 -0.23660272106E+03  0.27463472580E+03  0.10566000000E+00 0.  1.
         13    1    1    2    0    0 -0.78767856154E+02 -0.16502761553E+03 -0.15128180037E+03  0.23732821859E+03  0.10566000000E+00 0. -1.
         -4    1    1    2    0  502 -0.36790197570E+02  0.86991021193E+02 -0.11680056172E+03  0.15021094376E+03  0.00000000000E+00 0. -1.
</event>
<event>
 5    1  0.8445827E-005  0.5855819E+02  0.7818608E-02  0.1260398E+00
          4   -1    0    0  502    0 -0.00000000000E+00  0.00000000000E+00  0.39202590645E+02  0.39202590645E+02  0.00000000000E+00 0.  1.
         21   -1    0    0  501  502  0.00000000000E+00 -0.00000000000E+00 -0.25304008636E+03  0.25304008636E+03  0.00000000000E+00 0.  1.
        -13    1    1    2    0    0 -0.16449397301E+02 -0.58659878597E+02  0.50386851660E+01  0.61130708656E+02  0.10566000000E+00 0.  1.
         13    1    1    2    0    0 -0.81352166983E+00  0.50171360131E+02 -0.11501402393E+03  0.12548332184E+03  0.10566000000E+00 0. -1.
          4    1    1    2  501    0  0.17262918971E+02  0.84885184656E+01 -0.10386215695E+03  0.10562864651E+03  0.00000000000E+00 0.  1.
</event>
<event>
 5    1  0.8445827E-005  0.4800168E+02  0.7818608E-02  0.1300146E+00
         -4   -1    0    0    0  501 -0.00000000000E+00  0.00000000000E+00  0.24455630580E+03  0.24455630580E+03  0.00000000000E+00 0. -1.
         21   -1    0    0  501  502  0.00000000000E+00 -0.00000000000E+00 -0.19294856801E+02  0.19294856801E+02  0.00000000000E+00 0. -1.
        -13    1    1    2    0    0  0.21816385896E+02  0.32292768582E+02  0.59319181854E+02  0.70975728923E+02  0.10566000000E+00 0.  1.
         13    1    1    2    0    0 -0.22878556988E+02 -0.50228993441E+02  0.16597088375E+03  0.17490776303E+03  0.10566000000E+00 0. -1.
         -4    1    1    2    0  502  0.10621710920E+01  0.17936224859E+02 -0.28616603069E-01  0.17967670648E+02  0.00000000000E+00 0. -1.
</event>
<event>
 5    1  0.8445827E-005  0.1901281E+02  0.7818608E-02  0.1524066E+00
          4   -1    0    0  502    0 -0.00000000000E+00  0.00000000000E+00  0.58279222921E+02  0.58279222921E+02  0.00000000000E+00 0.  1.
         21   -1    0    0  501  502  0.00000000000E+00 -0.00000000000E+00 -0.30258972687E+02  0.30258972687E+02  0.00000000000E+00 0.  1.
        -13    1    1    2    0    0  0.17437621317E+02 -0.86867395582E+01  0.47324320507E+02  0.51177461414E+02  0.10566000000E+00 0.  1.
         13    1    1    2    0    0 -0.18196849158E+02 -0.44391142301E+01 -0.12845142957E+02  0.22712109459E+02  0.10566000000E+00 0. -1.
          4    1    1    2  501    0  0.75922784095E+00  0.13125853788E+02 -0.64589273151E+01  0.14648624736E+02  0.00000000000E+00 0.  1.
</event>
<event>
 5    1  0.8445827E-005  0.1783063E+03  0.7818608E-02  0.1102003E+00
          4   -1    0    0  502    0 -0.00000000000E+00  0.00000000000E+00  0.46974743932E+04  0.46974743932E+04  0.00000000000E+00 0.  1.
         21   -1    0    0  501  502  0.00000000000E+00 -0.00000000000E+00 -0.65437647740E+02  0.65437647740E+02  0.00000000000E+00 0.  1.
        -13    1    1    2    0    0  0.15903020235E+03  0.78561012316E+02  0.85529328364E+02  0.19692058066E+03  0.10566000000E+00 0.  1.
         13    1    1    2    0    0  0.62038833685E+02 -0.61247005405E+02  0.26971029315E+03  0.28344958273E+03  0.10566000000E+00 0. -1.
          4    1    1    2  501    0 -0.22106903603E+03 -0.17314006910E+02  0.42767971239E+04  0.42825418775E+04  0.00000000000E+00 0.  1.
</event>
<event>
 5    1  0.8445827E-005  0.1908178E+03  0.7818608E-02  0.1066620E+00
          4   -1    0    0  502    0 -0.00000000000E+00  0.00000000000E+00  0.10372926781E+04  0.10372926781E+04  0.00000000000E+00 0.  1.
         21   -1    0    0  501  502  0.00000000000E+00 -0.00000000000E+00 -0.69127436880E+02  0.69127436880E+02  0.00000000000E+00 0. -1.
        -13    1    1    2    0    0  0.11688899809E+03 -0.15471307277E+03  0.83564352160E+03  0.85784571988E+03  0.10566000000E+00 0.  1.
         13    1    1    2    0    0 -0.85398103249E+02  0.15665431434E+03  0.10745952560E+03  0.20828099060E+03  0.10566000000E+00 0. -1.
          4    1    1    2  501    0 -0.31490894845E+02 -0.19412415641E+01  0.25062194021E+02  0.40293404498E+02  0.00000000000E+00 0.  1.
</event>
<event>
 5    1  0.8445827E-005  0.9690228E+02  0.7818608E-02  0.1169785E+00
          4   -1    0    0  502    0 -0.00000000000E+00  0.00000000000E+00  0.40254281131E+03  0.40254281131E+03  0.00000000000E+00 0.  1.
         21   -1    0    0  501  502  0.00000000000E+00 -0.00000000000E+00 -0.23464076737E+03  0.23464076737E+03  0.00000000000E+00 0. -1.
        -13    1    1    2    0    0  0.63595025491E+00  0.97686312229E+02  0.37618620988E+03  0.38866321630E+03  0.10566000000E+00 0.  1.
         13    1    1    2    0    0  0.41558188291E+02 -0.76328979213E+02 -0.15113358693E+03  0.17434038070E+03  0.10566000000E+00 0. -1.
          4    1    1    2  501    0 -0.42194138546E+02 -0.21357333016E+02 -0.57150579019E+02  0.74179981689E+02  0.00000000000E+00 0.  1.
</event>
<event>
 5    1  0.8445827E-005  0.2023729E+03  0.7818608E-02  0.1109345E+00
          4   -1    0    0  502    0 -0.00000000000E+00  0.00000000000E+00  0.79412927274E+03  0.79412927274E+03  0.00000000000E+00 0.  1.
         21   -1    0    0  501  502  0.00000000000E+00 -0.00000000000E+00 -0.38557182849E+03  0.38557182849E+03  0.00000000000E+00 0.  1.
        -13    1    1    2    0    0  0.94986458422E+02  0.12986750619E+03  0.64503817116E+03  0.66480241416E+03  0.10566000000E+00 0.  1.
         13    1    1    2    0    0  0.38672064306E+01  0.48820208904E+02  0.10565540369E+03  0.11645361126E+03  0.10566000000E+00 0. -1.
          4    1    1    2  501    0 -0.98853664853E+02 -0.17868771510E+03 -0.34213613060E+03  0.39844507581E+03  0.00000000000E+00 0.  1.
</event>
<event>
 5    1  0.8445827E-005  0.1367916E+03  0.7818608E-02  0.1131440E+00
         21   -1    0    0  501  502  0.00000000000E+00  0.00000000000E+00  0.12876445667E+03  0.12876445667E+03  0.00000000000E+00 0.  1.
          4   -1    0    0  502    0 -0.00000000000E+00 -0.00000000000E+00 -0.39177047386E+03  0.39177047386E+03  0.00000000000E+00 0.  1.
        -13    1    1    2    0    0 -0.15993129678E+03  0.74368149729E+02 -0.89423662091E+02  0.19775045863E+03  0.10566000000E+00 0.  1.
         13    1    1    2    0    0  0.85031666432E+02  0.26439452400E+02 -0.17592257743E+03  0.19717553944E+03  0.10566000000E+00 0. -1.
          4    1    1    2  501    0  0.74899630350E+02 -0.10080760213E+03  0.23402223348E+01  0.12560893246E+03  0.00000000000E+00 0.  1.
</event>
<event>
 5    1  0.8445827E-005  0.4142883E+03  0.7818608E-02  0.9759446E-01
         21   -1    0    0  501  502  0.00000000000E+00  0.00000000000E+00  0.73737935911E+03  0.73737935911E+03  0.00000000000E+00 0.  1.
          4   -1    0    0  502    0 -0.00000000000E+00 -0.00000000000E+00 -0.15479162496E+04  0.15479162496E+04  0.00000000000E+00 0.  1.
        -13    1    1    2    0    0  0.27297151135E+03 -0.11822095305E+03  0.24643041592E+03  0.38628694102E+03  0.10566000000E+00 0.  1.
         13    1    1    2    0    0  0.35244721981E+03 -0.30844684259E+03 -0.10412659582E+04  0.11417501059E+04  0.10566000000E+00 0. -1.
          4    1    1    2  501    0 -0.62541873116E+03  0.42666779564E+03 -0.15701348260E+02  0.75725856183E+03  0.00000000000E+00 0.  1.
</event>
<event>
 5    1  0.8445827E-005  0.2449642E+03  0.7818608E-02  0.1040166E+00
          4   -1    0    0  502    0 -0.00000000000E+00  0.00000000000E+00  0.87130523298E+03  0.87130523298E+03  0.00000000000E+00 0.  1.
         21   -1    0    0  501  502  0.00000000000E+00 -0.00000000000E+00 -0.45860983979E+03  0.45860983979E+03  0.00000000000E+00 0.  1.
        -13    1    1    2    0    0 -0.26699231789E+03 -0.24339355528E+03  0.53923054998E+03  0.64907235171E+03  0.10566000000E+00 0.  1.
         13    1    1    2    0    0  0.19661314421E+03  0.13675413482E+02  0.19646531453E+03  0.27828470383E+03  0.10566000000E+00 0. -1.
          4    1    1    2  501    0  0.70379173683E+02  0.22971814180E+03 -0.32300047132E+03  0.40255801723E+03  0.00000000000E+00 0.  1.
</event>
<event>
 5    1  0.8445827E-005  0.1233445E+04  0.7818608E-02  0.8581795E-01
         21   -1    0    0  501  502  0.00000000000E+00  0.00000000000E+00  0.88813315570E+03  0.88813315570E+03  0.00000000000E+00 0. -1.
          4   -1    0    0  502    0 -0.00000000000E+00 -0.00000000000E+00 -0.27183751818E+04  0.27183751818E+04  0.00000000000E+00 0.  1.
        -13    1    1    2    0    0 -0.31118620403E+03 -0.11558494447E+04 -0.70619670135E+03  0.13897980373E+04  0.10566000000E+00 0.  1.
         13    1    1    2    0    0  0.35824248751E+03  0.12069105464E+04 -0.14286978409E+04  0.19042448053E+04  0.10566000000E+00 0. -1.
          4    1    1    2  501    0 -0.47056283486E+02 -0.51061101736E+02  0.30465251611E+03  0.31246549489E+03  0.00000000000E+00 0.  1.
</event>
<event>
 5    1  0.8445827E-005  0.9573919E+02  0.7818608E-02  0.1171804E+00
          4   -1    0    0  502    0 -0.00000000000E+00  0.00000000000E+00  0.54932034263E+02  0.54932034263E+02  0.00000000000E+00 0.  1.
         21   -1    0    0  501  502  0.00000000000E+00 -0.00000000000E+00 -0.36122260893E+03  0.36122260893E+03  0.00000000000E+00 0.  1.
        -13    1    1    2    0    0 -0.26774580912E+02 -0.12543892222E+03 -0.13437106164E+03  0.18576166117E+03  0.10566000000E+00 0.  1.
         13    1    1    2    0    0 -0.93020055212E+01  0.81957286385E+02 -0.51136976514E+02  0.97049088761E+02  0.10566000000E+00 0. -1.
          4    1    1    2  501    0  0.36076586434E+02  0.43481635834E+02 -0.12078253651E+03  0.13334389326E+03  0.00000000000E+00 0.  1.
</event>
<event>
 5    1  0.8445827E-005  0.1001513E+03  0.7818608E-02  0.1186010E+00
         -4   -1    0    0    0  501 -0.00000000000E+00  0.00000000000E+00  0.14851662760E+03  0.14851662760E+03  0.00000000000E+00 0. -1.
         21   -1    0    0  501  502  0.00000000000E+00 -0.00000000000E+00 -0.16767597750E+03  0.16767597750E+03  0.00000000000E+00 0. -1.
        -13    1    1    2    0    0 -0.32727951329E+02 -0.50074500868E+02  0.12179180712E+02  0.61048489271E+02  0.10566000000E+00 0.  1.
         13    1    1    2    0    0  0.11784480889E+03 -0.50699018387E-01  0.49189861333E+02  0.12769908056E+03  0.10566000000E+00 0. -1.
         -4    1    1    2    0  502 -0.85116857563E+02  0.50125199887E+02 -0.80528391944E+02  0.12744503527E+03  0.00000000000E+00 0. -1.
</event>
<event>
 5    1  0.8445827E-005  0.4054356E+02  0.7818608E-02  0.1335934E+00
         21   -1    0    0  501  502  0.00000000000E+00  0.00000000000E+00  0.37212053784E+02  0.37212053784E+02  0.00000000000E+00 0. -1.
          4   -1    0    0  502    0 -0.00000000000E+00 -0.00000000000E+00 -0.82015786218E+02  0.82015786218E+02  0.00000000000E+00 0.  1.
        -13    1    1    2    0    0 -0.28358289358E+02 -0.23903716983E+02 -0.38837709176E+02  0.53702505333E+02  0.10566000000E+00 0.  1.
         13    1    1    2    0    0  0.35936929256E+02  0.35662327517E+02 -0.84147622383E+01  0.51323326819E+02  0.10566000000E+00 0. -1.
          4    1    1    2  501    0 -0.75786398980E+01 -0.11758610534E+02  0.24487389807E+01  0.14202007850E+02  0.00000000000E+00 0.  1.
</event>
<event>
 5    1  0.8445827E-005  0.5061247E+03  0.7818608E-02  0.9658377E-01
          4   -1    0    0  502    0 -0.00000000000E+00  0.00000000000E+00  0.11628536264E+04  0.11628536264E+04  0.00000000000E+00 0.  1.
         21   -1    0    0  501  502  0.00000000000E+00 -0.00000000000E+00 -0.36181637039E+03  0.36181637039E+03  0.00000000000E+00 0.  1.
        -13    1    1    2    0    0 -0.30197983101E+03  0.38148093455E+03  0.33095571268E+03  0.58843114864E+03  0.10566000000E+00 0.  1.
         13    1    1    2    0    0  0.19380758186E+03  0.16206312059E+03  0.18409264305E+03  0.31259549937E+03  0.10566000000E+00 0. -1.
          4    1    1    2  501    0  0.10817224916E+03 -0.54354405514E+03  0.28598890024E+03  0.62364334874E+03  0.00000000000E+00 0.  1.
</event>
<event>
 5    1  0.8445827E-005  0.4543923E+03  0.7818608E-02  0.9824657E-01
         21   -1    0    0  501  502  0.00000000000E+00  0.00000000000E+00  0.15946245131E+03  0.15946245131E+03  0.00000000000E+00 0.  1.
         -4   -1    0    0    0  501 -0.00000000000E+00 -0.00000000000E+00 -0.23130263841E+04  0.23130263841E+04  0.00000000000E+00 0. -1.
        -13    1    1    2    0    0 -0.10841808329E+03  0.16397340998E+03 -0.49806206485E+03  0.53545083021E+03  0.10566000000E+00 0.  1.
         13    1    1    2    0    0 -0.36577928647E+03 -0.45583096484E+01 -0.12203234063E+04  0.12739719352E+04  0.10566000000E+00 0. -1.
         -4    1    1    2    0  502  0.47419736976E+03 -0.15941510033E+03 -0.43517846170E+03  0.66306607003E+03  0.00000000000E+00 0. -1.
</event>
<event>
 5    1  0.8445827E-005  0.1426158E+03  0.7818608E-02  0.1108631E+00
         21   -1    0    0  501  502  0.00000000000E+00  0.00000000000E+00  0.29396881780E+03  0.29396881780E+03  0.00000000000E+00 0. -1.
          4   -1    0    0  502    0 -0.00000000000E+00 -0.00000000000E+00 -0.15212694061E+03  0.15212694061E+03  0.00000000000E+00 0.  1.
        -13    1    1    2    0    0  0.36766343782E+02  0.13874810413E+03 -0.79083523889E+02  0.16388110126E+03  0.10566000000E+00 0.  1.
         13    1    1    2    0    0 -0.58125218652E+02 -0.12789836959E+03  0.14207191892E+03  0.19980234057E+03  0.10566000000E+00 0. -1.
          4    1    1    2  501    0  0.21358874870E+02 -0.10849734537E+02  0.78853482164E+02  0.82412316583E+02  0.00000000000E+00 0.  1.
</event>
<event>
 5    1  0.8445827E-005  0.7975193E+03  0.7818608E-02  0.9288145E-01
         -4   -1    0    0    0  501 -0.00000000000E+00  0.00000000000E+00  0.20865660447E+04  0.20865660447E+04  0.00000000000E+00 0. -1.
         21   -1    0    0  501  502  0.00000000000E+00 -0.00000000000E+00 -0.50787758643E+03  0.50787758643E+03  0.00000000000E+00 0. -1.
        -13    1    1    2    0    0 -0.18377986454E+03  0.16920177767E+03  0.67720177548E+03  0.72180782488E+03  0.10566000000E+00 0.  1.
         13    1    1    2    0    0 -0.66764875042E+03 -0.28278557463E+03  0.65973674569E+03  0.98029338462E+03  0.10566000000E+00 0. -1.
         -4    1    1    2    0  502  0.85142861496E+03  0.11358379696E+03  0.24174993706E+03  0.89234242159E+03  0.00000000000E+00 0. -1.
</event>
<event>
 5    1  0.8445827E-005  0.3003483E+03  0.7818608E-02  0.1018262E+00
         21   -1    0    0  501  502  0.00000000000E+00  0.00000000000E+00  0.10610828235E+04  0.10610828235E+04  0.00000000000E+00 0.  1.
          4   -1    0    0  502    0 -0.00000000000E+00 -0.00000000000E+00 -0.44354738184E+03  0.44354738184E+03  0.00000000000E+00 0.  1.
        -13    1    1    2    0    0  0.36074669678E+03  0.57653031944E+00 -0.80297110330E+02  0.36957563328E+03  0.10566000000E+00 0.  1.
         13    1    1    2    0    0 -0.11658564201E+03 -0.17542219462E+03 -0.13469722743E+03  0.25001702448E+03  0.10566000000E+00 0. -1.
          4    1    1    2  501    0 -0.24416105477E+03  0.17484566431E+03  0.83252977939E+03  0.88503754755E+03  0.00000000000E+00 0.  1.
</event>
<event>
 5    1  0.8445827E-005  0.3299482E+03  0.7818608E-02  0.9956579E-01
         21   -1    0    0  501  502  0.00000000000E+00  0.00000000000E+00  0.34928751100E+03  0.34928751100E+03  0.00000000000E+00 0. -1.
          4   -1    0    0  502    0 -0.00000000000E+00 -0.00000000000E+00 -0.59423886057E+03  0.59423886057E+03  0.00000000000E+00 0.  1.
        -13    1    1    2    0    0  0.64169296931E+01  0.31021009168E+03 -0.31286533074E+03  0.44063159704E+03  0.10566000000E+00 0.  1.
         13    1    1    2    0    0 -0.34090043429E+02 -0.38713045327E+03 -0.11673731050E+02  0.38880381437E+03  0.10566000000E+00 0. -1.
          4    1    1    2  501    0  0.27673113736E+02  0.76920361592E+02  0.79587712223E+02  0.11409096015E+03  0.00000000000E+00 0.  1.
</event>
<event>
 5    1  0.8445827E-005  0.4124624E+03  0.7818608E-02  0.9693728E-01
         -4   -1    0    0    0  501 -0.00000000000E+00  0.00000000000E+00  0.21271593355E+04  0.21271593355E+04  0.00000000000E+00 0. -1.
         21   -1    0    0  501  502  0.00000000000E+00 -0.00000000000E+00 -0.21713048781E+03  0.21713048781E+03  0.00000000000E+00 0.  1.
        -13    1    1    2    0    0  0.29669047825E+03 -0.48774581817E+02  0.32357642540E+03  0.44170795097E+03  0.10566000000E+00 0.  1.
         13    1    1    2    0    0 -0.48153978805E+03 -0.50526678462E+02  0.16193496719E+04  0.16901854584E+04  0.10566000000E+00 0. -1.
         -4    1    1    2    0  502  0.18484930980E+03  0.99301260279E+02 -0.32897249598E+02  0.21239641395E+03  0.00000000000E+00 0. -1.
</event>
<event>
 5    1  0.8445827E-005  0.2671401E+03  0.7818608E-02  0.1021874E+00
         -4   -1    0    0    0  501 -0.00000000000E+00  0.00000000000E+00  0.36512133359E+03  0.36512133359E+03  0.00000000000E+00 0. -1.
         21   -1    0    0  501  502  0.00000000000E+00 -0.00000000000E+00 -0.35553024788E+03  0.35553024788E+03  0.00000000000E+00 0.  1.
        -13    1    1    2    0    0 -0.19245886846E+03  0.16043488324E+03 -0.12614004639E+03  0.28051932247E+03  0.10566000000E+00 0.  1.
         13    1    1    2    0    0  0.22833280147E+03 -0.14946623721E+03  0.21827970564E+03  0.34945967629E+03  0.10566000000E+00 0. -1.
         -4    1    1    2    0  502 -0.35873933007E+02 -0.10968646033E+02 -0.82548573529E+02  0.90672582719E+02  0.00000000000E+00 0. -1.
</event>
<event>
 5    1  0.8445827E-005  0.4547743E+03  0.7818608E-02  0.9583019E-01
          4   -1    0    0  502    0 -0.00000000000E+00  0.00000000000E+00  0.18429317824E+04  0.18429317824E+04  0.00000000000E+00 0.  1.
         21   -1    0    0  501  502  0.00000000000E+00 -0.00000000000E+00 -0.16254905022E+03  0.16254905022E+03  0.00000000000E+00 0. -1.
        -13    1    1    2    0    0 -0.46156998749E+03  0.96713242324E+02  0.35993853945E+03  0.59325885408E+03  0.10566000000E+00 0.  1.
         13    1    1    2    0    0  0.44245148136E+03 -0.78819151376E+02  0.13083353695E+04  0.13833716862E+04  0.10566000000E+00 0. -1.
          4    1    1    2  501    0  0.19118506133E+02 -0.17894090947E+02  0.12108823243E+02  0.28850292336E+02  0.00000000000E+00 0.  1.
</event>
<event>
 5    1  0.8445827E-005  0.1342141E+03  0.7818608E-02  0.1117815E+00
         21   -1    0    0  501  502  0.00000000000E+00  0.00000000000E+00  0.57052603563E+03  0.57052603563E+03  0.00000000000E+00 0. -1.
          4   -1    0    0  502    0 -0.00000000000E+00 -0.00000000000E+00 -0.61351433702E+02  0.61351433702E+02  0.00000000000E+00 0.  1.
        -13    1    1    2    0    0 -0.13401653693E+03  0.10164060614E+02  0.40596929111E+02  0.14039893916E+03  0.10566000000E+00 0.  1.
         13    1    1    2    0    0  0.13377768673E+03  0.15426445444E+01  0.39667290977E+03  0.41862663285E+03  0.10566000000E+00 0. -1.
          4    1    1    2  501    0  0.23885019927E+00 -0.11706705159E+02  0.71904763046E+02  0.72851897324E+02  0.00000000000E+00 0.  1.
</event>
<event>
 5    1  0.8445827E-005  0.5120060E+03  0.7818608E-02  0.9509383E-01
          4   -1    0    0  502    0 -0.00000000000E+00  0.00000000000E+00  0.13420889900E+04  0.13420889900E+04  0.00000000000E+00 0.  1.
         21   -1    0    0  501  502  0.00000000000E+00 -0.00000000000E+00 -0.48713434536E+03  0.48713434536E+03  0.00000000000E+00 0.  1.
        -13    1    1    2    0    0  0.59795954682E+03  0.25404108869E+03  0.60229182183E+02  0.65247226755E+03  0.10566000000E+00 0.  1.
         13    1    1    2    0    0 -0.39716983881E+03  0.12157685020E+03  0.53713326130E+03  0.67899702718E+03  0.10566000000E+00 0. -1.
          4    1    1    2  501    0 -0.20078970801E+03 -0.37561793889E+03  0.25759220116E+03  0.49775404063E+03  0.00000000000E+00 0.  1.
</event>
<event>
 5    1  0.8445827E-005  0.5266270E+02  0.7818608E-02  0.1339318E+00
          4   -1    0    0  502    0 -0.00000000000E+00  0.00000000000E+00  0.16513866462E+03  0.16513866462E+03  0.00000000000E+00 0.  1.
         21   -1    0    0  501  502  0.00000000000E+00 -0.00000000000E+00 -0.40120731973E+02  0.40120731973E+02  0.00000000000E+00 0. -1.
        -13    1    1    2    0    0  0.11656830345E+02  0.61464899572E+02  0.11548172319E+03  0.13133870385E+03  0.10566000000E+00 0.  1.
         13    1    1    2    0    0 -0.13082329508E+02 -0.11453616147E+02 -0.10174895536E+02  0.20146273387E+02  0.10566000000E+00 0. -1.
          4    1    1    2  501    0  0.14254991625E+01 -0.50011283425E+02  0.19711104996E+02  0.53774419363E+02  0.00000000000E+00 0.  1.
</event>
<event>
 5    1  0.8445827E-005  0.1389482E+03  0.7818608E-02  0.1120649E+00
         21   -1    0    0  501  502  0.00000000000E+00  0.00000000000E+00  0.95804671090E+02  0.95804671090E+02  0.00000000000E+00 0. -1.
         -4   -1    0    0    0  501 -0.00000000000E+00 -0.00000000000E+00 -0.11858226578E+04  0.11858226578E+04  0.00000000000E+00 0. -1.
        -13    1    1    2    0    0 -0.39763572234E+02  0.10503736374E+03 -0.47656669654E+03  0.48962211641E+03  0.10566000000E+00 0.  1.
         13    1    1    2    0    0  0.22067551747E+02 -0.23392306230E+03 -0.61869112128E+03  0.66180487353E+03  0.10566000000E+00 0. -1.
         -4    1    1    2    0  502  0.17696020488E+02  0.12888569856E+03  0.52398311021E+01  0.13020033896E+03  0.00000000000E+00 0. -1.
</event>
<event>
 5    1  0.8445827E-005  0.8112400E+02  0.7818608E-02  0.1200234E+00
         21   -1    0    0  501  502  0.00000000000E+00  0.00000000000E+00  0.55315667198E+02  0.55315667198E+02  0.00000000000E+00 0.  1.
          4   -1    0    0  502    0 -0.00000000000E+00 -0.00000000000E+00 -0.32414719076E+03  0.32414719076E+03  0.00000000000E+00 0.  1.
        -13    1    1    2    0    0  0.82395048066E+02  0.35821196947E+02 -0.22114200237E+03  0.23869624730E+03  0.10566000000E+00 0.  1.
         13    1    1    2    0    0 -0.66309091471E+02 -0.17638689912E+02 -0.76717362336E+02  0.10292513707E+03  0.10566000000E+00 0. -1.
          4    1    1    2  501    0 -0.16085956595E+02 -0.18182507035E+02  0.29027841147E+02  0.37841473587E+02  0.00000000000E+00 0.  1.
</event>
<event>
 5    1  0.8445827E-005  0.4480041E+03  0.7818608E-02  0.9641451E-01
         -4   -1    0    0    0  501 -0.00000000000E+00  0.00000000000E+00  0.26789132135E+04  0.26789132135E+04  0.00000000000E+00 0. -1.
         21   -1    0    0  501  502  0.00000000000E+00 -0.00000000000E+00 -0.21057571906E+03  0.21057571906E+03  0.00000000000E+00 0. -1.
        -13    1    1    2    0    0 -0.36373340926E+03 -0.13108380791E+03  0.37268993231E+03  0.53701280666E+03  0.10566000000E+00 0.  1.
         13    1    1    2    0    0  0.53422525343E+02 -0.30256235999E+03  0.15838311394E+04  0.16133564508E+04  0.10566000000E+00 0. -1.
         -4    1    1    2    0  502  0.31031088392E+03  0.43364616790E+03  0.51181642270E+03  0.73911967513E+03  0.00000000000E+00 0. -1.
</event>
<event>
 5    1  0.8445827E-005  0.5547812E+03  0.7818608E-02  0.9365360E-01
         21   -1    0    0  501  502  0.00000000000E+00  0.00000000000E+00  0.62134071045E+03  0.62134071045E+03  0.00000000000E+00 0.  1.
          4   -1    0    0  502    0 -0.00000000000E+00 -0.00000000000E+00 -0.10625865282E+04  0.10625865282E+04  0.00000000000E+00 0.  1.
        -13    1    1    2    0    0  0.18118589580E+03 -0.73625288036E+03 -0.13406492739E+03  0.76998055079E+03  0.10566000000E+00 0.  1.
         13    1    1    2    0    0  0.45197304703E+02  0.47906692141E+03 -0.30798700603E+03  0.57131770372E+03  0.10566000000E+00 0. -1.
          4    1    1    2  501    0 -0.22638320050E+03  0.25718595895E+03  0.80611566800E+00  0.34262898414E+03  0.00000000000E+00 0.  1.
</event>
<event>
 5    1  0.8445827E-005  0.3834346E+03  0.7818608E-02  0.1021617E+00
         21   -1    0    0  501  502  0.00000000000E+00  0.00000000000E+00  0.86294212778E+02  0.86294212778E+02  0.00000000000E+00 0.  1.
          4   -1    0    0  502    0 -0.00000000000E+00 -0.00000000000E+00 -0.33286148627E+04  0.33286148627E+04  0.00000000000E+00 0.  1.
        -13    1    1    2    0    0 -0.40356590311E+03 -0.95579648009E+02 -0.23875627588E+04  0.24233152592E+04  0.10566000000E+00 0.  1.
         13    1    1    2    0    0  0.25914743998E+02  0.87309119217E+02 -0.34690924118E+03  0.35866487009E+03  0.10566000000E+00 0. -1.
          4    1    1    2  501    0  0.37765115912E+03  0.82705287927E+01 -0.50784864993E+03  0.63292894614E+03  0.00000000000E+00 0.  1.
</event>
<event>
 5    1  0.8445827E-005  0.1705544E+03  0.7818608E-02  0.1082439E+00
          4   -1    0    0  502    0 -0.00000000000E+00  0.00000000000E+00  0.41652119862E+03  0.41652119862E+03  0.00000000000E+00 0.  1.
         21   -1    0    0  501  502  0.00000000000E+00 -0.00000000000E+00 -0.29589513888E+03  0.29589513888E+03  0.00000000000E+00 0.  1.
        -13    1    1    2    0    0 -0.14277393665E+03 -0.95204535245E+02  0.25716583152E+03  0.30916431971E+03  0.10566000000E+00 0.  1.
         13    1    1    2    0    0  0.15651826499E+03  0.67066191205E+02  0.77389573920E+02  0.18704277210E+03  0.10566000000E+00 0. -1.
          4    1    1    2  501    0 -0.13744328344E+02  0.28138344040E+02 -0.21392934571E+03  0.21620924569E+03  0.00000000000E+00 0.  1.
</event>
<event>
 5    1  0.8445827E-005  0.4378878E+03  0.7818608E-02  0.9625605E-01
         21   -1    0    0  501  502  0.00000000000E+00  0.00000000000E+00  0.50277856345E+03  0.50277856345E+03  0.00000000000E+00 0. -1.
         -4   -1    0    0    0  501 -0.00000000000E+00 -0.00000000000E+00 -0.11232855061E+04  0.11232855061E+04  0.00000000000E+00 0. -1.
        -13    1    1    2    0    0 -0.39487592681E+03  0.11260786550E+03 -0.82363695873E+02  0.41879746717E+03  0.10566000000E+00 0.  1.
         13    1    1    2    0    0  0.33094627655E+03 -0.32340077335E+03 -0.76309448512E+03  0.89242742145E+03  0.10566000000E+00 0. -1.
         -4    1    1    2    0  502  0.63929650259E+02  0.21079290785E+03  0.22495123838E+03  0.31483918091E+03  0.00000000000E+00 0. -1.
</event>
<event>
 5    1  0.8445827E-005  0.2359917E+03  0.7818608E-02  0.1037919E+00
          4   -1    0    0  502    0 -0.00000000000E+00  0.00000000000E+00  0.78317538141E+02  0.78317538141E+02  0.00000000000E+00 0.  1.
         21   -1    0    0  501  502  0.00000000000E+00 -0.00000000000E+00 -0.10394304551E+04  0.10394304551E+04  0.00000000000E+00 0.  1.
        -13    1    1    2    0    0  0.19164547088E+03  0.13653347223E+03 -0.33701660125E+03  0.41103476280E+03  0.10566000000E+00 0.  1.
         13    1    1    2    0    0 -0.18393088899E+03 -0.14919940578E+03 -0.29972365174E+03  0.38200171883E+03  0.10566000000E+00 0. -1.
          4    1    1    2  501    0 -0.77145818979E+01  0.12665933543E+02 -0.32437266399E+03  0.32471151164E+03  0.00000000000E+00 0.  1.
</event>
<event>
 5    1  0.8445827E-005  0.3568055E+02  0.7818608E-02  0.1364353E+00
         21   -1    0    0  501  502  0.00000000000E+00  0.00000000000E+00  0.50128146797E+03  0.50128146797E+03  0.00000000000E+00 0. -1.
         -4   -1    0    0    0  501 -0.00000000000E+00 -0.00000000000E+00 -0.25526405997E+02  0.25526405997E+02  0.00000000000E+00 0. -1.
        -13    1    1    2    0    0  0.10818549409E+02 -0.43219707700E+02  0.97727173841E+02  0.10740389107E+03  0.10566000000E+00 0.  1.
         13    1    1    2    0    0 -0.71031545228E+01  0.33699595031E+02 -0.62393900655E+01  0.35000838016E+02  0.10566000000E+00 0. -1.
         -4    1    1    2    0  502 -0.37153948866E+01  0.95201126693E+01  0.38426727820E+03  0.38440314488E+03  0.00000000000E+00 0. -1.
</event>
<event>
 5    1  0.8445827E-005  0.4545812E+03  0.7818608E-02  0.9616530E-01
         21   -1    0    0  501  502  0.00000000000E+00  0.00000000000E+00  0.25201874731E+03  0.25201874731E+03  0.00000000000E+00 0.  1.
          4   -1    0    0  502    0 -0.00000000000E+00 -0.00000000000E+00 -0.28178851921E+04  0.28178851921E+04  0.00000000000E+00 0.  1.
        -13    1    1    2    0    0 -0.84624430762E+02 -0.17636318068E+03 -0.90909254693E+03  0.92990028274E+03  0.10566000000E+00 0.  1.
         13    1    1    2    0    0 -0.36803059777E+03 -0.16707542794E+03 -0.14958010097E+04  0.15494455110E+04  0.10566000000E+00 0. -1.
          4    1    1    2  501    0  0.45265502853E+03  0.34343860862E+03 -0.16097288809E+03  0.59055814569E+03  0.00000000000E+00 0.  1.
</event>
<event>
 5    1  0.8445827E-005  0.4212603E+03  0.7818608E-02  0.9882722E-01
         -4   -1    0    0    0  501 -0.00000000000E+00  0.00000000000E+00  0.15443397611E+04  0.15443397611E+04  0.00000000000E+00 0. -1.
         21   -1    0    0  501  502  0.00000000000E+00 -0.00000000000E+00 -0.45303541673E+03  0.45303541673E+03  0.00000000000E+00 0. -1.
        -13    1    1    2    0    0  0.19713800228E+03  0.47468198140E+02  0.96498056666E+03  0.98605482960E+03  0.10566000000E+00 0.  1.
         13    1    1    2    0    0 -0.53463677848E+03  0.13428339341E+03  0.25446701048E+03  0.60714247523E+03  0.10566000000E+00 0. -1.
         -4    1    1    2    0  502  0.33749877619E+03 -0.18175159155E+03 -0.12814323273E+03  0.40417787304E+03  0.00000000000E+00 0. -1.
</event>
<event>
 5    1  0.8445827E-005  0.4455225E+03  0.7818608E-02  0.9771763E-01
          4   -1    0    0  502    0 -0.00000000000E+00  0.00000000000E+00  0.16541394705E+04  0.16541394705E+04  0.00000000000E+00 0.  1.
         21   -1    0    0  501  502  0.00000000000E+00 -0.00000000000E+00 -0.29982656259E+03  0.29982656259E+03  0.00000000000E+00 0.  1.
        -13    1    1    2    0    0 -0.38561485790E+03 -0.24007746758E+03  0.73712029987E+02  0.46018418443E+03  0.10566000000E+00 0.  1.
         13    1    1    2    0    0 -0.87190393416E+02  0.23413378206E+03  0.71028298217E+03  0.75294270601E+03  0.10566000000E+00 0. -1.
          4    1    1    2  501    0  0.47280525132E+03  0.59436855229E+01  0.57031789578E+03  0.74083914267E+03  0.00000000000E+00 0.  1.
</event>
<event>
 5    1  0.8445827E-005  0.4376607E+03  0.7818608E-02  0.1019242E+00
         21   -1    0    0  501  502  0.00000000000E+00  0.00000000000E+00  0.63889867249E+03  0.63889867249E+03  0.00000000000E+00 0. -1.
         -4   -1    0    0    0  501 -0.00000000000E+00 -0.00000000000E+00 -0.47348813087E+03  0.47348813087E+03  0.00000000000E+00 0. -1.
        -13    1    1    2    0    0  0.22228162011E+01  0.65961146316E+02 -0.47984983943E+02  0.81598919008E+02  0.10566000000E+00 0.  1.
         13    1    1    2    0    0  0.65982602229E+02 -0.48165260025E+03 -0.11153451328E+03  0.49878140496E+03  0.10566000000E+00 0. -1.
         -4    1    1    2    0  502 -0.68205418430E+02  0.41569145393E+03  0.32493003883E+03  0.53200647939E+03  0.00000000000E+00 0. -1.
</event>
<event>
 5    1  0.8445827E-005  0.3869754E+02  0.7818608E-02  0.1368478E+00
         -4   -1    0    0    0  501 -0.00000000000E+00  0.00000000000E+00  0.22548748947E+02  0.22548748947E+02  0.00000000000E+00 0. -1.
         21   -1    0    0  501  502  0.00000000000E+00 -0.00000000000E+00 -0.35465848379E+03  0.35465848379E+03  0.00000000000E+00 0. -1.
        -13    1    1    2    0    0  0.34686547760E+02  0.32006099194E+02 -0.14135647153E+02  0.49268394185E+02  0.10566000000E+00 0.  1.
         13    1    1    2    0    0  0.10440040220E+02 -0.14707203780E+02 -0.24016608749E+02  0.30035061889E+02  0.10566000000E+00 0. -1.
         -4    1    1    2    0  502 -0.45126587980E+02 -0.17298895413E+02 -0.29395747894E+03  0.29790377666E+03  0.00000000000E+00 0. -1.
</event>
<event>
 5    1  0.8445827E-005  0.4683271E+03  0.7818608E-02  0.9993033E-01
         21   -1    0    0  501  502  0.00000000000E+00  0.00000000000E+00  0.19661498498E+04  0.19661498498E+04  0.00000000000E+00 0. -1.
         -4   -1    0    0    0  501 -0.00000000000E+00 -0.00000000000E+00 -0.16939839413E+03  0.16939839413E+03  0.00000000000E+00 0. -1.
        -13    1    1    2    0    0 -0.10218983716E+03  0.52423121385E+01  0.27241015877E+02  0.10588828437E+03  0.10566000000E+00 0.  1.
         13    1    1    2    0    0  0.43796370260E+03  0.23637129356E+03  0.13573426317E+04  0.14457048884E+04  0.10566000000E+00 0. -1.
         -4    1    1    2    0  502 -0.33577386544E+03 -0.24161360570E+03  0.41216780809E+03  0.58395507121E+03  0.00000000000E+00 0. -1.
</event>
<event>
 5    1  0.8445827E-005  0.1681436E+02  0.7818608E-02  0.1559710E+00
         -4   -1    0    0    0  501 -0.00000000000E+00  0.00000000000E+00  0.51392044383E+02  0.51392044383E+02  0.00000000000E+00 0. -1.
         21   -1    0    0  501  502  0.00000000000E+00 -0.00000000000E+00 -0.52135089728E+02  0.52135089728E+02  0.00000000000E+00 0.  1.
        -13    1    1    2    0    0  0.19839209156E+02 -0.12177666975E+02 -0.19202939243E+02  0.30177041480E+02  0.10566000000E+00 0.  1.
         13    1    1    2    0    0 -0.91582087237E+01  0.13769628273E+02  0.43253299078E+02  0.46306959466E+02  0.10566000000E+00 0. -1.
         -4    1    1    2    0  502 -0.10681000432E+02 -0.15919612980E+01 -0.24793405179E+02  0.27043133165E+02  0.00000000000E+00 0. -1.
</event>
<event>
 5    1  0.8445827E-005  0.3214944E+02  0.7818608E-02  0.1388437E+00
          4   -1    0    0  502    0 -0.00000000000E+00  0.00000000000E+00  0.13729167753E+03  0.13729167753E+03  0.00000000000E+00 0.  1.
         21   -1    0    0  501  502  0.00000000000E+00 -0.00000000000E+00 -0.36932242933E+02  0.36932242933E+02  0.00000000000E+00 0. -1.
        -13    1    1    2    0    0 -0.80556549529E+01  0.30153649698E+02  0.10998744816E+03  0.11433016262E+03  0.10566000000E+00 0.  1.
         13    1    1    2    0    0  0.18971858582E+02 -0.36349710817E+02  0.42010545160E+01  0.41217628724E+02  0.10566000000E+00 0. -1.
          4    1    1    2  501    0 -0.10916203629E+02  0.61960611190E+01 -0.13829068080E+02  0.18676129123E+02  0.00000000000E+00 0.  1.
</event>
<event>
 5    1  0.8445827E-005  0.3196551E+02  0.7818608E-02  0.1389788E+00
         -4   -1    0    0    0  501 -0.00000000000E+00  0.00000000000E+00  0.78659021854E+02  0.78659021854E+02  0.00000000000E+00 0. -1.
         21   -1    0    0  501  502  0.00000000000E+00 -0.00000000000E+00 -0.48442268846E+03  0.48442268846E+03  0.00000000000E+00 0. -1.
        -13    1    1    2    0    0  0.29440333133E+02  0.78394247966E-01  0.48633769974E+02  0.56850629781E+02  0.10566000000E+00 0.  1.
         13    1    1    2    0    0 -0.42955079608E+02  0.14060360358E+01  0.79300763345E+01  0.43703696367E+02  0.10566000000E+00 0. -1.
         -4    1    1    2    0  502  0.13514746475E+02 -0.14844302838E+01 -0.46232751292E+03  0.46252738417E+03  0.00000000000E+00 0. -1.
</event>
<event>
 5    1  0.8445827E-005  0.2026160E+02  0.7818608E-02  0.1506250E+00
         21   -1    0    0  501  502  0.00000000000E+00  0.00000000000E+00  0.47280054997E+02  0.47280054997E+02  0.00000000000E+00 0.  1.
          4   -1    0    0  502    0 -0.00000000000E+00 -0.00000000000E+00 -0.22128039420E+02  0.22128039420E+02  0.00000000000E+00 0.  1.
        -13    1    1    2    0    0 -0.36630070400E+01 -0.22524694345E+02 -0.65149976194E+01  0.23732590123E+02  0.10566000000E+00 0.  1.
         13    1    1    2    0    0  0.11862939886E+02  0.13324771282E+02  0.92543777012E+01  0.20098097998E+02  0.10566000000E+00 0. -1.
          4    1    1    2  501    0 -0.81999328458E+01  0.91999230625E+01  0.22412635495E+02  0.25577406297E+02  0.00000000000E+00 0.  1.
</event>
<event>
 5    1  0.8445827E-005  0.4580528E+03  0.7818608E-02  0.9800416E-01
         21   -1    0    0  501  502  0.00000000000E+00  0.00000000000E+00  0.38236066488E+03  0.38236066488E+03  0.00000000000E+00 0.  1.
          4   -1    0    0  502    0 -0.00000000000E+00 -0.00000000000E+00 -0.12691094365E+04  0.12691094365E+04  0.00000000000E+00 0.  1.
        -13    1    1    2    0    0 -0.31708947639E+03 -0.51254250791E+03 -0.31967361936E+03  0.68222928150E+03  0.10566000000E+00 0.  1.
         13    1    1    2    0    0  0.91214424767E+02  0.18739266057E+03 -0.53249406181E+03  0.57182691223E+03  0.10566000000E+00 0. -1.
          4    1    1    2  501    0  0.22587505162E+03  0.32514984734E+03 -0.34581090420E+02  0.39741390764E+03  0.00000000000E+00 0.  1.
</event>
<event>
 5    1  0.8445827E-005  0.5398474E+03  0.7818608E-02  0.9394665E-01
         21   -1    0    0  501  502  0.00000000000E+00  0.00000000000E+00  0.51699893738E+03  0.51699893738E+03  0.00000000000E+00 0. -1.
          4   -1    0    0  502    0 -0.00000000000E+00 -0.00000000000E+00 -0.12798819068E+04  0.12798819068E+04  0.00000000000E+00 0.  1.
        -13    1    1    2    0    0 -0.52780130928E+03  0.69412444435E+02 -0.61032781011E+03  0.80987181484E+03  0.10566000000E+00 0.  1.
         13    1    1    2    0    0  0.48477116804E+03 -0.40632885991E+03 -0.62498040805E+02  0.63561957492E+03  0.10566000000E+00 0. -1.
          4    1    1    2  501    0  0.43030141241E+02  0.33691641548E+03 -0.90057118490E+02  0.35138945440E+03  0.00000000000E+00 0.  1.
</event>
<event>
 5    1  0.8445827E-005  0.4435661E+03  0.7818608E-02  0.9611061E-01
         21   -1    0    0  501  502  0.00000000000E+00  0.00000000000E+00  0.13060448247E+04  0.13060448247E+04  0.00000000000E+00 0. -1.
         -4   -1    0    0    0  501 -0.00000000000E+00 -0.00000000000E+00 -0.57441138764E+03  0.57441138764E+03  0.00000000000E+00 0. -1.
        -13    1    1    2    0    0  0.45242028488E+03  0.53853373904E+02 -0.14737169734E+03  0.47885564463E+03  0.10566000000E+00 0.  1.
         13    1    1    2    0    0 -0.38939646738E+03  0.27284211446E+03  0.94913636625E+03  0.10615706670E+04  0.10566000000E+00 0. -1.
         -4    1    1    2    0  502 -0.63023817501E+02 -0.32669548836E+03 -0.70131231815E+02  0.34002990069E+03  0.00000000000E+00 0. -1.
</event>
<event>
 5    1  0.8445827E-005  0.1033969E+03  0.7818608E-02  0.1159054E+00
         21   -1    0    0  501  502  0.00000000000E+00  0.00000000000E+00  0.48280060291E+02  0.48280060291E+02  0.00000000000E+00 0. -1.
         -4   -1    0    0    0  501 -0.00000000000E+00 -0.00000000000E+00 -0.46875643049E+03  0.46875643049E+03  0.00000000000E+00 0. -1.
        -13    1    1    2    0    0  0.97505781712E+01  0.89719488353E+02 -0.17620781935E+03  0.19797441029E+03  0.10566000000E+00 0.  1.
         13    1    1    2    0    0 -0.67903258602E+02 -0.11668168953E+03 -0.19946721330E+03  0.24085815234E+03  0.10566000000E+00 0. -1.
         -4    1    1    2    0  502  0.58152680431E+02  0.26962201174E+02 -0.44801337548E+02  0.78203928159E+02  0.00000000000E+00 0. -1.
</event>
<event>
 5    1  0.8445827E-005  0.3127225E+03  0.7818608E-02  0.1037189E+00
         21   -1    0    0  501  502  0.00000000000E+00  0.00000000000E+00  0.20904287206E+03  0.20904287206E+03  0.00000000000E+00 0. -1.
         -4   -1    0    0    0  501 -0.00000000000E+00 -0.00000000000E+00 -0.14816434669E+04  0.14816434669E+04  0.00000000000E+00 0. -1.
        -13    1    1    2    0    0  0.10365050140E+03 -0.30888883841E+01 -0.21040702764E+03  0.23457215546E+03  0.10566000000E+00 0.  1.
         13    1    1    2    0    0  0.19506462243E+03  0.12676320410E+03 -0.11056886121E+04  0.11298966479E+04  0.10566000000E+00 0. -1.
         -4    1    1    2    0  502 -0.29871512383E+03 -0.12367431572E+03  0.43495044940E+02  0.32621753556E+03  0.00000000000E+00 0. -1.
</event>
<event>
 5    1  0.8445827E-005  0.2078965E+03  0.7818608E-02  0.1054853E+00
         21   -1    0    0  501  502  0.00000000000E+00  0.00000000000E+00  0.52573743735E+03  0.52573743735E+03  0.00000000000E+00 0.  1.
          4   -1    0    0  502    0 -0.00000000000E+00 -0.00000000000E+00 -0.97857247700E+03  0.97857247700E+03  0.00000000000E+00 0.  1.
        -13    1    1    2    0    0 -0.16915535764E+03  0.29142266640E+02  0.48755437404E+03  0.51688691755E+03  0.10566000000E+00 0.  1.
         13    1    1    2    0    0  0.20219178291E+03  0.54777515358E+02 -0.69998940497E+03  0.73066221437E+03  0.10566000000E+00 0. -1.
          4    1    1    2  501    0 -0.33036425268E+02 -0.83919781998E+02 -0.24040000872E+03  0.25676078244E+03  0.00000000000E+00 0.  1.
</event>
<event>
 5    1  0.8445827E-005  0.3727891E+03  0.7818608E-02  0.9811098E-01
          4   -1    0    0  502    0 -0.00000000000E+00  0.00000000000E+00  0.33504811564E+04  0.33504811564E+04  0.00000000000E+00 0.  1.
         21   -1    0    0  501  502  0.00000000000E+00 -0.00000000000E+00 -0.14661263268E+03  0.14661263268E+03  0.00000000000E+00 0.  1.
        -13    1    1    2    0    0  0.44075086437E+03 -0.27357722176E+03  0.19564731279E+04  0.20240782920E+04  0.10566000000E+00 0.  1.
         13    1    1    2    0    0 -0.23552333581E+03  0.17961248807E+03  0.12081306364E+04  0.12439097770E+04  0.10566000000E+00 0. -1.
          4    1    1    2  501    0 -0.20522752856E+03  0.93964733687E+02  0.39264759437E+02  0.22910572011E+03  0.00000000000E+00 0.  1.
</event>
<event>
 5    1  0.8445827E-005  0.4955024E+03  0.7818608E-02  0.9618830E-01
         21   -1    0    0  501  502  0.00000000000E+00  0.00000000000E+00  0.12219189134E+04  0.12219189134E+04  0.00000000000E+00 0. -1.
         -4   -1    0    0    0  501 -0.00000000000E+00 -0.00000000000E+00 -0.43867574195E+03  0.43867574195E+03  0.00000000000E+00 0. -1.
        -13    1    1    2    0    0 -0.15644599963E+03 -0.26710685887E+03 -0.65917778523E+02  0.31649105761E+03  0.10566000000E+00 0.  1.
         13    1    1    2    0    0 -0.38838183463E+03 -0.82686124356E+00  0.14556972903E+03  0.41476703141E+03  0.10566000000E+00 0. -1.
         -4    1    1    2    0  502  0.54482783426E+03  0.26793372012E+03  0.70359122099E+03  0.92933656638E+03  0.00000000000E+00 0. -1.
</event>
<event>
 5    1  0.8445827E-005  0.5166628E+03  0.7818608E-02  0.9449950E-01
         -4   -1    0    0    0  501 -0.00000000000E+00  0.00000000000E+00  0.29909367920E+04  0.29909367920E+04  0.00000000000E+00 0. -1.
         21   -1    0    0  501  502  0.00000000000E+00 -0.00000000000E+00 -0.32306888656E+03  0.32306888656E+03  0.00000000000E+00 0.  1.
        -13    1    1    2    0    0  0.27228997006E+03  0.67110157396E+03  0.84577938442E+03  0.11134908750E+04  0.10566000000E+00 0.  1.
         13    1    1    2    0    0  0.20300877259E+03 -0.45027893252E+03  0.15140971386E+04  0.15926248256E+04  0.10566000000E+00 0. -1.
         -4    1    1    2    0  502 -0.47529874265E+03 -0.22082264145E+03  0.30799138247E+03  0.60788997805E+03  0.00000000000E+00 0. -1.
</event>
<event>
 5    1  0.8445827E-005  0.4636340E+03  0.7818608E-02  0.9644421E-01
         21   -1    0    0  501  502  0.00000000000E+00  0.00000000000E+00  0.52825354010E+03  0.52825354010E+03  0.00000000000E+00 0.  1.
         -4   -1    0    0    0  501 -0.00000000000E+00 -0.00000000000E+00 -0.97874558314E+03  0.97874558314E+03  0.00000000000E+00 0. -1.
        -13    1    1    2    0    0  0.32805636517E+03  0.10743732059E+03  0.44093994089E+02  0.34800581613E+03  0.10566000000E+00 0.  1.
         13    1    1    2    0    0  0.50025078497E+02 -0.44840238479E+03 -0.46666341379E+03  0.64910858883E+03  0.10566000000E+00 0. -1.
         -4    1    1    2    0  502 -0.37808144366E+03  0.34096506419E+03 -0.27922623333E+02  0.50988471828E+03  0.00000000000E+00 0. -1.
</event>
<event>
 5    1  0.8582688E-005  0.3309739E+03  0.7818608E-02  0.1025761E+00
         21   -1    0    0  501  502  0.00000000000E+00  0.00000000000E+00  0.70398482484E+03  0.70398482484E+03  0.00000000000E+00 0. -1.
         -4   -1    0    0    0  501 -0.00000000000E+00 -0.00000000000E+00 -0.17333030715E+04  0.17333030715E+04  0.00000000000E+00 0. -1.
        -13    1    1    2    0    0 -0.44155289897E+03 -0.31066020060E+03 -0.11747274103E+04  0.12928508122E+04  0.10566000000E+00 0.  1.
         13    1    1    2    0    0 -0.12974986256E+03 -0.12453151204E+03  0.35358790339E+03  0.39669577880E+03  0.10566000000E+00 0. -1.
         -4    1    1    2    0  502  0.57130276153E+03  0.43519171264E+03 -0.20817873975E+03  0.74774130538E+03  0.00000000000E+00 0. -1.
</event>
<event>
 5    1  0.8445827E-005  0.3942951E+03  0.7818608E-02  0.1007547E+00
         21   -1    0    0  501  502  0.00000000000E+00  0.00000000000E+00  0.15062505107E+03  0.15062505107E+03  0.00000000000E+00 0. -1.
         -4   -1    0    0    0  501 -0.00000000000E+00 -0.00000000000E+00 -0.23648690982E+04  0.23648690982E+04  0.00000000000E+00 0. -1.
        -13    1    1    2    0    0  0.68005046338E+02  0.11209642039E+03 -0.57354200804E+03  0.58833726717E+03  0.10566000000E+00 0.  1.
         13    1    1    2    0    0  0.29379615480E+03  0.93236326477E+02 -0.14261545262E+04  0.14590839376E+04  0.10566000000E+00 0. -1.
         -4    1    1    2    0  502 -0.36180120114E+03 -0.20533274687E+03 -0.21454751284E+03  0.46807294448E+03  0.00000000000E+00 0. -1.
</event>
<event>
 5    1  0.8445827E-005  0.1103160E+03  0.7818608E-02  0.1153823E+00
          4   -1    0    0  502    0 -0.00000000000E+00  0.00000000000E+00  0.86122168204E+02  0.86122168204E+02  0.00000000000E+00 0.  1.
         21   -1    0    0  501  502  0.00000000000E+00 -0.00000000000E+00 -0.40257254410E+03  0.40257254410E+03  0.00000000000E+00 0.  1.
        -13    1    1    2    0    0  0.13279765462E+03 -0.24373875228E+01 -0.23140111021E+03  0.26681012519E+03  0.10566000000E+00 0.  1.
         13    1    1    2    0    0 -0.65575753106E+02 -0.71181997338E+02 -0.10399597827E+02  0.97340736280E+02  0.10566000000E+00 0. -1.
          4    1    1    2  501    0 -0.67221901515E+02  0.73619384861E+02 -0.74649667859E+02  0.12454385084E+03  0.00000000000E+00 0.  1.
</event>
<event>
 5    1  0.8445827E-005  0.7165159E+03  0.7818608E-02  0.9099358E-01
         -4   -1    0    0    0  501 -0.00000000000E+00  0.00000000000E+00  0.19914939669E+04  0.19914939669E+04  0.00000000000E+00 0. -1.
         21   -1    0    0  501  502  0.00000000000E+00 -0.00000000000E+00 -0.60598055475E+03  0.60598055475E+03  0.00000000000E+00 0.  1.
        -13    1    1    2    0    0  0.65097876477E+03 -0.17004441428E+03  0.12191058534E+04  0.13924466051E+04  0.10566000000E+00 0.  1.
         13    1    1    2    0    0 -0.90881128838E+03  0.19816208632E+03  0.89267909080E+02  0.93443830245E+03  0.10566000000E+00 0. -1.
         -4    1    1    2    0  502  0.25783252361E+03 -0.28117672043E+02  0.77139649643E+02  0.27058961410E+03  0.00000000000E+00 0. -1.
</event>
<event>
 5    1  0.8445827E-005  0.4770735E+03  0.7818608E-02  0.9712688E-01
          4   -1    0    0  502    0 -0.00000000000E+00  0.00000000000E+00  0.26279795760E+04  0.26279795760E+04  0.00000000000E+00 0.  1.
         21   -1    0    0  501  502  0.00000000000E+00 -0.00000000000E+00 -0.20744328984E+03  0.20744328984E+03  0.00000000000E+00 0.  1.
        -13    1    1    2    0    0 -0.15082259138E+03 -0.55992032282E+03  0.71636554258E+03  0.92164951242E+03  0.10566000000E+00 0.  1.
         13    1    1    2    0    0  0.21057449387E+03  0.13387881321E+03  0.12991832832E+04  0.13229294647E+04  0.10566000000E+00 0. -1.
          4    1    1    2  501    0 -0.59751902487E+02  0.42604150960E+03  0.40498746039E+03  0.59084388871E+03  0.00000000000E+00 0.  1.
</event>
<event>
 5    1  0.8445827E-005  0.8764542E+02  0.7818608E-02  0.1186792E+00
         21   -1    0    0  501  502  0.00000000000E+00  0.00000000000E+00  0.30557903038E+03  0.30557903038E+03  0.00000000000E+00 0.  1.
          4   -1    0    0  502    0 -0.00000000000E+00 -0.00000000000E+00 -0.89447573308E+02  0.89447573308E+02  0.00000000000E+00 0.  1.
        -13    1    1    2    0    0  0.72207367400E+02 -0.66821465380E+02 -0.11317060607E+02  0.99030799083E+02  0.10566000000E+00 0.  1.
         13    1    1    2    0    0  0.10791296994E+02  0.91945935068E+02  0.69333735988E+02  0.11566194351E+03  0.10566000000E+00 0. -1.
          4    1    1    2  501    0 -0.82998664394E+02 -0.25124469688E+02  0.15811478169E+03  0.18033386109E+03  0.00000000000E+00 0.  1.
</event>
<event>
 5    1  0.8445827E-005  0.3872809E+03  0.7818608E-02  0.9974898E-01
         21   -1    0    0  501  502  0.00000000000E+00  0.00000000000E+00  0.13483641090E+03  0.13483641090E+03  0.00000000000E+00 0.  1.
          4   -1    0    0  502    0 -0.00000000000E+00 -0.00000000000E+00 -0.24501844565E+04  0.24501844565E+04  0.00000000000E+00 0.  1.
        -13    1    1    2    0    0 -0.28473145758E+03 -0.16836790424E+03 -0.39362085060E+03  0.51415672640E+03  0.10566000000E+00 0.  1.
         13    1    1    2    0    0 -0.12811072391E+03 -0.14309563487E+03 -0.95883632386E+03  0.97788333937E+03  0.10566000000E+00 0. -1.
          4    1    1    2  501    0  0.41284218149E+03  0.31146353911E+03 -0.96289087115E+03  0.10929808016E+04  0.00000000000E+00 0.  1.
</event>
<event>
 5    1  0.8445827E-005  0.3792069E+03  0.7818608E-02  0.9952833E-01
         21   -1    0    0  501  502  0.00000000000E+00  0.00000000000E+00  0.16504393800E+04  0.16504393800E+04  0.00000000000E+00 0.  1.
          4   -1    0    0  502    0 -0.00000000000E+00 -0.00000000000E+00 -0.23140792375E+03  0.23140792375E+03  0.00000000000E+00 0.  1.
        -13    1    1    2    0    0  0.23159768496E+03  0.27374236742E+03  0.56359534781E+02  0.36297214731E+03  0.10566000000E+00 0.  1.
         13    1    1    2    0    0 -0.18561923155E+03  0.11819839007E+03  0.22508277110E+03  0.31478186660E+03  0.10566000000E+00 0. -1.
          4    1    1    2  501    0 -0.45978453409E+02 -0.39194075749E+03  0.11375891503E+04  0.12040932898E+04  0.00000000000E+00 0.  1.
</event>
<event>
 5    1  0.8445827E-005  0.2055874E+03  0.7818608E-02  0.1056372E+00
         21   -1    0    0  501  502  0.00000000000E+00  0.00000000000E+00  0.14232420486E+03  0.14232420486E+03  0.00000000000E+00 0. -1.
          4   -1    0    0  502    0 -0.00000000000E+00 -0.00000000000E+00 -0.39748867520E+03  0.39748867520E+03  0.00000000000E+00 0.  1.
        -13    1    1    2    0    0 -0.17123274368E+03 -0.10681344593E+03 -0.86846623569E+01  0.20200296845E+03  0.10566000000E+00 0.  1.
         13    1    1    2    0    0  0.18459485554E+03  0.94307114295E+02 -0.24260526757E+03  0.31910252195E+03  0.10566000000E+00 0. -1.
          4    1    1    2  501    0 -0.13362111859E+02  0.12506331631E+02 -0.38745404193E+01  0.18707389654E+02  0.00000000000E+00 0.  1.
</event>
<event>
 5    1  0.8445827E-005  0.4538085E+03  0.7818608E-02  0.9585402E-01
         21   -1    0    0  501  502  0.00000000000E+00  0.00000000000E+00  0.18132229350E+03  0.18132229350E+03  0.00000000000E+00 0.  1.
         -4   -1    0    0    0  501 -0.00000000000E+00 -0.00000000000E+00 -0.19011797109E+04  0.19011797109E+04  0.00000000000E+00 0. -1.
        -13    1    1    2    0    0  0.43597421833E+03  0.11218694908E+03 -0.31685337701E+03  0.55050477226E+03  0.10566000000E+00 0.  1.
         13    1    1    2    0    0 -0.43813811062E+03 -0.12244914163E+03 -0.14312797957E+04  0.15018390929E+04  0.10566000000E+00 0. -1.
         -4    1    1    2    0  502  0.21638922946E+01  0.10262192548E+02  0.28275755289E+02  0.30158139249E+02  0.00000000000E+00 0. -1.
</event>
<event>
 5    1  0.8445827E-005  0.1208307E+03  0.7818608E-02  0.1134061E+00
          4   -1    0    0  502    0 -0.00000000000E+00  0.00000000000E+00  0.32870031822E+03  0.32870031822E+03  0.00000000000E+00 0.  1.
         21   -1    0    0  501  502  0.00000000000E+00 -0.00000000000E+00 -0.63881045858E+02  0.63881045858E+02  0.00000000000E+00 0.  1.
        -13    1    1    2    0    0  0.73038884328E+02  0.98801202637E+02  0.15053503532E+03  0.19431202817E+03  0.10566000000E+00 0.  1.
         13    1    1    2    0    0 -0.77946353764E+02 -0.89782313220E+02  0.13208728549E+03  0.17771764117E+03  0.10566000000E+00 0. -1.
          4    1    1    2  501    0  0.49074694362E+01 -0.90188894167E+01 -0.17803048450E+02  0.20551694740E+02  0.00000000000E+00 0.  1.
</event>
<event>
 5    1  0.8445827E-005  0.2072196E+03  0.7818608E-02  0.1055296E+00
         -4   -1    0    0    0  501 -0.00000000000E+00  0.00000000000E+00  0.10326510647E+04  0.10326510647E+04  0.00000000000E+00 0. -1.
         21   -1    0    0  501  502  0.00000000000E+00 -0.00000000000E+00 -0.13636060048E+03  0.13636060048E+03  0.00000000000E+00 0. -1.
        -13    1    1    2    0    0 -0.88368854428E+02 -0.18568881213E+03  0.39786685425E+03  0.44786988541E+03  0.10566000000E+00 0.  1.
         13    1    1    2    0    0  0.59499252669E+02  0.20078595666E+03  0.58887445972E+03  0.62500264155E+03  0.10566000000E+00 0. -1.
         -4    1    1    2    0  502  0.28869601758E+02 -0.15097144532E+02 -0.90450849744E+02  0.96139138223E+02  0.00000000000E+00 0. -1.
</event>
<event>
 5    1  0.8445827E-005  0.4576129E+03  0.7818608E-02  0.9768982E-01
         -4   -1    0    0    0  501 -0.00000000000E+00  0.00000000000E+00  0.17374193390E+04  0.17374193390E+04  0.00000000000E+00 0. -1.
         21   -1    0    0  501  502  0.00000000000E+00 -0.00000000000E+00 -0.24008309197E+03  0.24008309197E+03  0.00000000000E+00 0. -1.
        -13    1    1    2    0    0  0.12394217329E+02  0.23243940147E+03  0.44252692482E+03  0.50001178220E+03  0.10566000000E+00 0.  1.
         13    1    1    2    0    0 -0.43374443734E+03  0.48517129479E+01  0.84607690630E+03  0.95079120661E+03  0.10566000000E+00 0. -1.
         -4    1    1    2    0  502  0.42135022001E+03 -0.23729111442E+03  0.20873241587E+03  0.52669944211E+03  0.00000000000E+00 0. -1.
</event>
<event>
 5    1  0.8445827E-005  0.5091477E+02  0.7818608E-02  0.1288108E+00
         21   -1    0    0  501  502  0.00000000000E+00  0.00000000000E+00  0.32368113232E+02  0.32368113232E+02  0.00000000000E+00 0. -1.
          4   -1    0    0  502    0 -0.00000000000E+00 -0.00000000000E+00 -0.18276664388E+03  0.18276664388E+03  0.00000000000E+00 0.  1.
        -13    1    1    2    0    0 -0.52099215853E+02  0.48091211860E+01 -0.14053820839E+03  0.14996151213E+03  0.10566000000E+00 0.  1.
         13    1    1    2    0    0  0.46638360628E+02  0.57665816546E+01 -0.18459868837E+02  0.50489286661E+02  0.10566000000E+00 0. -1.
          4    1    1    2  501    0  0.54608552254E+01 -0.10575702841E+02  0.85995465838E+01  0.14683958316E+02  0.00000000000E+00 0.  1.
</event>
<event>
 5    1  0.8445827E-005  0.4179035E+03  0.7818608E-02  0.9719219E-01
         21   -1    0    0  501  502  0.00000000000E+00  0.00000000000E+00  0.41701291718E+03  0.41701291718E+03  0.00000000000E+00 0.  1.
         -4   -1    0    0    0  501 -0.00000000000E+00 -0.00000000000E+00 -0.12303655389E+04  0.12303655389E+04  0.00000000000E+00 0. -1.
        -13    1    1    2    0    0 -0.93703750516E+02 -0.35060770773E+03 -0.91473255918E+02  0.37426397808E+03  0.10566000000E+00 0.  1.
         13    1    1    2    0    0 -0.34046792059E+03 -0.12493965795E+03 -0.96064922418E+02  0.37517569692E+03  0.10566000000E+00 0. -1.
         -4    1    1    2    0  502  0.43417167110E+03  0.47554736568E+03 -0.62581444334E+03  0.89793878103E+03  0.00000000000E+00 0. -1.
</event>
<event>
 5    1  0.8445827E-005  0.1229027E+03  0.7818608E-02  0.1131400E+00
         -4   -1    0    0    0  501 -0.00000000000E+00  0.00000000000E+00  0.12195773630E+03  0.12195773630E+03  0.00000000000E+00 0. -1.
         21   -1    0    0  501  502  0.00000000000E+00 -0.00000000000E+00 -0.53514276193E+03  0.53514276193E+03  0.00000000000E+00 0.  1.
        -13    1    1    2    0    0  0.73915941426E+01 -0.88215251995E+02 -0.42098333257E+03  0.43019012519E+03  0.10566000000E+00 0.  1.
         13    1    1    2    0    0  0.21658071620E+02  0.12417428449E+03  0.74000676016E+02  0.14616578330E+03  0.10566000000E+00 0. -1.
         -4    1    1    2    0  502 -0.29049665762E+02 -0.35959032491E+02 -0.66202369088E+02  0.80744589735E+02  0.00000000000E+00 0. -1.
</event>
<event>
 5    1  0.8445827E-005  0.2077830E+03  0.7818608E-02  0.1054927E+00
         21   -1    0    0  501  502  0.00000000000E+00  0.00000000000E+00  0.31860437785E+03  0.31860437785E+03  0.00000000000E+00 0. -1.
         -4   -1    0    0    0  501 -0.00000000000E+00 -0.00000000000E+00 -0.95754584692E+03  0.95754584692E+03  0.00000000000E+00 0. -1.
        -13    1    1    2    0    0 -0.14679436376E+03  0.48701441065E+02 -0.18187324088E+02  0.15572798566E+03  0.10566000000E+00 0.  1.
         13    1    1    2    0    0  0.20715871805E+03 -0.69220344590E+02 -0.85251589544E+03  0.88005088132E+03  0.10566000000E+00 0. -1.
         -4    1    1    2    0  502 -0.60364354284E+02  0.20518903525E+02  0.23176175046E+03  0.24037135779E+03  0.00000000000E+00 0. -1.
</event>
<event>
 5    1  0.8445827E-005  0.4102439E+03  0.7818608E-02  0.9783346E-01
          4   -1    0    0  502    0 -0.00000000000E+00  0.00000000000E+00  0.61459046116E+03  0.61459046116E+03  0.00000000000E+00 0.  1.
         21   -1    0    0  501  502  0.00000000000E+00 -0.00000000000E+00 -0.10677937675E+04  0.10677937675E+04  0.00000000000E+00 0. -1.
        -13    1    1    2    0    0 -0.18387720400E+02 -0.30701369779E+03 -0.38798588438E+03  0.49510461171E+03  0.10566000000E+00 0.  1.
         13    1    1    2    0    0 -0.39637831987E+03 -0.25959842357E+03  0.47099834225E+02  0.47615703243E+03  0.10566000000E+00 0. -1.
          4    1    1    2  501    0  0.41476604027E+03  0.56661212136E+03 -0.11231725621E+03  0.71112258456E+03  0.00000000000E+00 0.  1.
</event>
<event>
 5    1  0.8445827E-005  0.4667999E+03  0.7818608E-02  0.9652388E-01
         21   -1    0    0  501  502  0.00000000000E+00  0.00000000000E+00  0.34419179457E+03  0.34419179457E+03  0.00000000000E+00 0. -1.
         -4   -1    0    0    0  501 -0.00000000000E+00 -0.00000000000E+00 -0.14314636911E+04  0.14314636911E+04  0.00000000000E+00 0. -1.
        -13    1    1    2    0    0 -0.17030842664E+03  0.28133665967E+03 -0.43096226922E+03  0.54211047298E+03  0.10566000000E+00 0.  1.
         13    1    1    2    0    0 -0.31354750539E+03 -0.37788697709E+03 -0.12136603141E+03  0.50580661357E+03  0.10566000000E+00 0. -1.
         -4    1    1    2    0  502  0.48385593203E+03  0.96550317418E+02 -0.53494359594E+03  0.72773839914E+03  0.00000000000E+00 0. -1.
</event>
<event>
 5    1  0.8445827E-005  0.3270629E+03  0.7818608E-02  0.9967215E-01
         -4   -1    0    0    0  501 -0.00000000000E+00  0.00000000000E+00  0.19359452463E+04  0.19359452463E+04  0.00000000000E+00 0. -1.
         21   -1    0    0  501  502  0.00000000000E+00 -0.00000000000E+00 -0.16327040420E+03  0.16327040420E+03  0.00000000000E+00 0. -1.
        -13    1    1    2    0    0 -0.59109839205E+02 -0.27591290240E+03  0.94708279091E+03  0.98822453258E+03  0.10566000000E+00 0.  1.
         13    1    1    2    0    0  0.14167246297E+03  0.46587373058E+03  0.74226437545E+03  0.88773072147E+03  0.10566000000E+00 0. -1.
         -4    1    1    2    0  502 -0.82562623768E+02 -0.18996082818E+03  0.83327675784E+02  0.22326039648E+03  0.00000000000E+00 0. -1.
</event>
<event>
 5    1  0.8445827E-005  0.1973696E+03  0.7818608E-02  0.1061954E+00
         21   -1    0    0  501  502  0.00000000000E+00  0.00000000000E+00  0.16136244189E+03  0.16136244189E+03  0.00000000000E+00 0.  1.
          4   -1    0    0  502    0 -0.00000000000E+00 -0.00000000000E+00 -0.11373290554E+04  0.11373290554E+04  0.00000000000E+00 0.  1.
        -13    1    1    2    0    0 -0.19596457294E+03 -0.63964608756E+02 -0.95156755222E+03  0.97363977046E+03  0.10566000000E+00 0.  1.
         13    1    1    2    0    0  0.16669276610E+03  0.15863581236E+02 -0.12554844416E+03  0.20928582005E+03  0.10566000000E+00 0. -1.
          4    1    1    2  501    0  0.29271806844E+02  0.48101027520E+02  0.10114938285E+03  0.11576590679E+03  0.00000000000E+00 0.  1.
</event>
<event>
 5    1  0.8445827E-005  0.3740973E+03  0.7818608E-02  0.9949452E-01
          4   -1    0    0  502    0 -0.00000000000E+00  0.00000000000E+00  0.22897654450E+04  0.22897654450E+04  0.00000000000E+00 0.  1.
         21   -1    0    0  501  502  0.00000000000E+00 -0.00000000000E+00 -0.16574569900E+03  0.16574569900E+03  0.00000000000E+00 0.  1.
        -13    1    1    2    0    0  0.40617223624E+03  0.66652484634E+02  0.18246450853E+03  0.45023521324E+03  0.10566000000E+00 0.  1.
         13    1    1    2    0    0 -0.21284737980E+03  0.91745329170E+02  0.65835955126E+03  0.69796742217E+03  0.10566000000E+00 0. -1.
          4    1    1    2  501    0 -0.19332485644E+03 -0.15839781380E+03  0.12831956862E+04  0.13073085086E+04  0.00000000000E+00 0.  1.
</event>
<event>
 5    1  0.8445827E-005  0.3499720E+02  0.7818608E-02  0.1417027E+00
          4   -1    0    0  502    0 -0.00000000000E+00  0.00000000000E+00  0.10874752555E+03  0.10874752555E+03  0.00000000000E+00 0.  1.
         21   -1    0    0  501  502  0.00000000000E+00 -0.00000000000E+00 -0.99480240886E+02  0.99480240886E+02  0.00000000000E+00 0. -1.
        -13    1    1    2    0    0 -0.83640222311E+01  0.12591640804E+02  0.90016209554E+02  0.91276697095E+02  0.10566000000E+00 0.  1.
         13    1    1    2    0    0  0.17813897603E+02 -0.46288877669E+02 -0.46756781540E+02  0.68163061314E+02  0.10566000000E+00 0. -1.
          4    1    1    2  501    0 -0.94498753722E+01  0.33697236865E+02 -0.33992143355E+02  0.48788008022E+02  0.00000000000E+00 0.  1.
</event>
<event>
 5    1  0.8445827E-005  0.7746211E+03  0.7818608E-02  0.9244828E-01
         21   -1    0    0  501  502  0.00000000000E+00  0.00000000000E+00  0.11401516096E+04  0.11401516096E+04  0.00000000000E+00 0. -1.
         -4   -1    0    0    0  501 -0.00000000000E+00 -0.00000000000E+00 -0.13170363941E+04  0.13170363941E+04  0.00000000000E+00 0. -1.
        -13    1    1    2    0    0 -0.90352077608E+03  0.24627783515E+03 -0.13610787472E+03  0.94632337476E+03  0.10566000000E+00 0.  1.
         13    1    1    2    0    0  0.24189259581E+03  0.15656960277E+03 -0.52391516667E+03  0.59792405994E+03  0.10566000000E+00 0. -1.
         -4    1    1    2    0  502  0.66162818027E+03 -0.40284743792E+03  0.48313825689E+03  0.91294056895E+03  0.00000000000E+00 0. -1.
</event>
<event>
 5    1  0.8445827E-005  0.4909366E+03  0.7818608E-02  0.9718411E-01
          4   -1    0    0  502    0 -0.00000000000E+00  0.00000000000E+00  0.19123211152E+04  0.19123211152E+04  0.00000000000E+00 0.  1.
         21   -1    0    0  501  502  0.00000000000E+00 -0.00000000000E+00 -0.20760885681E+03  0.20760885681E+03  0.00000000000E+00 0.  1.
        -13    1    1    2    0    0  0.44062469862E+03 -0.21693266458E+03  0.62747877017E+03  0.79683092572E+03  0.10566000000E+00 0.  1.
         13    1    1    2    0    0 -0.11865525329E+03 -0.19055524970E+03  0.18570290045E+03  0.29133477431E+03  0.10566000000E+00 0. -1.
          4    1    1    2  501    0 -0.32196944533E+03  0.40748791428E+03  0.89153058774E+03  0.10317642720E+04  0.00000000000E+00 0.  1.
</event>
<event>
 5    1  0.8445827E-005  0.3559804E+03  0.7818608E-02  0.9875438E-01
         -4   -1    0    0    0  501 -0.00000000000E+00  0.00000000000E+00  0.17453935977E+04  0.17453935977E+04  0.00000000000E+00 0. -1.
         21   -1    0    0  501  502  0.00000000000E+00 -0.00000000000E+00 -0.55305173451E+03  0.55305173451E+03  0.00000000000E+00 0. -1.
        -13    1    1    2    0    0  0.19625501432E+03 -0.28295982500E+03  0.12066424013E+04  0.12548179904E+04  0.10566000000E+00 0.  1.
         13    1    1    2    0    0  0.18821999746E+03  0.27516793449E+03  0.37132650938E+03  0.49902659984E+03  0.10566000000E+00 0. -1.
         -4    1    1    2    0  502 -0.38447501178E+03  0.77918905074E+01 -0.38562704759E+03  0.54460074189E+03  0.00000000000E+00 0. -1.
</event>
<event>
 5    1  0.8445827E-005  0.4628838E+03  0.7818608E-02  0.9954339E-01
         21   -1    0    0  501  502  0.00000000000E+00  0.00000000000E+00  0.96402892916E+03  0.96402892916E+03  0.00000000000E+00 0.  1.
          4   -1    0    0  502    0 -0.00000000000E+00 -0.00000000000E+00 -0.35645244259E+03  0.35645244259E+03  0.00000000000E+00 0.  1.
        -13    1    1    2    0    0 -0.86422257435E+02 -0.42159907177E+03 -0.43418555932E+02  0.43255030466E+03  0.10566000000E+00 0.  1.
         13    1    1    2    0    0 -0.11977560367E+03 -0.12131089653E+02  0.16923469736E+03  0.20768666911E+03  0.10566000000E+00 0. -1.
          4    1    1    2  501    0  0.20619786110E+03  0.43373016142E+03  0.48176034514E+03  0.68024439799E+03  0.00000000000E+00 0.  1.
</event>
<event>
 5    1  0.8445827E-005  0.3853173E+03  0.7818608E-02  0.9772434E-01
         21   -1    0    0  501  502  0.00000000000E+00  0.00000000000E+00  0.34925186073E+03  0.34925186073E+03  0.00000000000E+00 0. -1.
         -4   -1    0    0    0  501 -0.00000000000E+00 -0.00000000000E+00 -0.23914248346E+04  0.23914248346E+04  0.00000000000E+00 0. -1.
        -13    1    1    2    0    0  0.15882810589E+03 -0.37607659943E+03 -0.14153691020E+04  0.14730681186E+04  0.10566000000E+00 0.  1.
         13    1    1    2    0    0  0.94691773470E+02  0.20106958321E+03  0.25221827980E+03  0.33616897698E+03  0.10566000000E+00 0. -1.
         -4    1    1    2    0  502 -0.25351987936E+03  0.17500701623E+03 -0.87902215165E+03  0.93143959979E+03  0.00000000000E+00 0. -1.
</event>
<event>
 5    1  0.8445827E-005  0.4157495E+02  0.7818608E-02  0.1352759E+00
         -4   -1    0    0    0  501 -0.00000000000E+00  0.00000000000E+00  0.15783776160E+03  0.15783776160E+03  0.00000000000E+00 0. -1.
         21   -1    0    0  501  502  0.00000000000E+00 -0.00000000000E+00 -0.14898993792E+03  0.14898993792E+03  0.00000000000E+00 0.  1.
        -13    1    1    2    0    0  0.71272094395E+02 -0.21396723179E+02 -0.10960595724E+03  0.13248021826E+03  0.10566000000E+00 0.  1.
         13    1    1    2    0    0 -0.20586580500E+02  0.26327971592E+02  0.11881019274E+03  0.12342140190E+03  0.10566000000E+00 0. -1.
         -4    1    1    2    0  502 -0.50685513894E+02 -0.49312484133E+01 -0.35641181392E+00  0.50926079360E+02  0.00000000000E+00 0. -1.
</event>
<event>
 5    1  0.8445827E-005  0.3529612E+03  0.7818608E-02  0.9875699E-01
         -4   -1    0    0    0  501 -0.00000000000E+00  0.00000000000E+00  0.15219882697E+04  0.15219882697E+04  0.00000000000E+00 0. -1.
         21   -1    0    0  501  502  0.00000000000E+00 -0.00000000000E+00 -0.40027780679E+03  0.40027780679E+03  0.00000000000E+00 0. -1.
        -13    1    1    2    0    0 -0.33968821808E+03  0.16415455459E+03  0.73788845988E+03  0.82874253763E+03  0.10566000000E+00 0.  1.
         13    1    1    2    0    0  0.35877898647E+03  0.64308441558E+02  0.64815890828E+03  0.74361812668E+03  0.10566000000E+00 0. -1.
         -4    1    1    2    0  502 -0.19090768388E+02 -0.22846299615E+03 -0.26433690520E+03  0.34990541222E+03  0.00000000000E+00 0. -1.
</event>
<event>
 5    1  0.8445827E-005  0.2938610E+03  0.7818608E-02  0.1009872E+00
         21   -1    0    0  501  502  0.00000000000E+00  0.00000000000E+00  0.23818304970E+03  0.23818304970E+03  0.00000000000E+00 0. -1.
         -4   -1    0    0    0  501 -0.00000000000E+00 -0.00000000000E+00 -0.26834852255E+04  0.26834852255E+04  0.00000000000E+00 0. -1.
        -13    1    1    2    0    0  0.81284900777E+02  0.26260181474E+03 -0.15169736710E+04  0.15416796288E+04  0.10566000000E+00 0.  1.
         13    1    1    2    0    0 -0.11858727187E+03 -0.30887047910E+03 -0.11259867012E+04  0.11735885039E+04  0.10566000000E+00 0. -1.
         -4    1    1    2    0  502  0.37302371096E+02  0.46268664358E+02  0.19765819646E+03  0.20640014249E+03  0.00000000000E+00 0. -1.
</event>
<event>
 5    1  0.8445827E-005  0.4664924E+03  0.7818608E-02  0.9871386E-01
          4   -1    0    0  502    0 -0.00000000000E+00  0.00000000000E+00  0.76329137788E+03  0.76329137788E+03  0.00000000000E+00 0.  1.
         21   -1    0    0  501  502  0.00000000000E+00 -0.00000000000E+00 -0.59969989172E+03  0.59969989172E+03  0.00000000000E+00 0.  1.
        -13    1    1    2    0    0  0.40231737363E+03 -0.22876637044E+03 -0.16958438800E+03  0.49290181293E+03  0.10566000000E+00 0.  1.
         13    1    1    2    0    0 -0.78002125482E+02 -0.13408407863E+03  0.35031655194E+03  0.38312474398E+03  0.10566000000E+00 0. -1.
          4    1    1    2  501    0 -0.32431524815E+03  0.36285044907E+03 -0.17140677793E+02  0.48696471269E+03  0.00000000000E+00 0.  1.
</event>
<event>
 5    1  0.8445827E-005  0.1064752E+03  0.7818608E-02  0.1154265E+00
         21   -1    0    0  501  502  0.00000000000E+00  0.00000000000E+00  0.58405654491E+02  0.58405654491E+02  0.00000000000E+00 0.  1.
          4   -1    0    0  502    0 -0.00000000000E+00 -0.00000000000E+00 -0.71572143982E+03  0.71572143982E+03  0.00000000000E+00 0.  1.
        -13    1    1    2    0    0 -0.97538113823E+02 -0.55841035197E+02 -0.60753933432E+03  0.61784784435E+03  0.10566000000E+00 0.  1.
         13    1    1    2    0    0  0.59843063143E+02  0.62021674452E+02 -0.71810644948E+02  0.11218137189E+03  0.10566000000E+00 0. -1.
          4    1    1    2  501    0  0.37695050680E+02 -0.61806392553E+01  0.22034193938E+02  0.44097878065E+02  0.00000000000E+00 0.  1.
</event>
<event>
 5    1  0.8445827E-005  0.5076480E+03  0.7818608E-02  0.9644308E-01
         21   -1    0    0  501  502  0.00000000000E+00  0.00000000000E+00  0.22247441694E+03  0.22247441694E+03  0.00000000000E+00 0.  1.
          4   -1    0    0  502    0 -0.00000000000E+00 -0.00000000000E+00 -0.24728886620E+04  0.24728886620E+04  0.00000000000E+00 0.  1.
        -13    1    1    2    0    0  0.11942575621E+03  0.36210020326E+03 -0.11399447476E+04  0.12020204271E+04  0.10566000000E+00 0.  1.
         13    1    1    2    0    0 -0.17338232220E+02  0.26250471067E+03 -0.64607105087E+02  0.27089375521E+03  0.10566000000E+00 0. -1.
          4    1    1    2  501    0 -0.10208752399E+03 -0.62460491393E+03 -0.10458623924E+04  0.12224488967E+04  0.00000000000E+00 0.  1.
</event>
<event>
 5    1  0.8445827E-005  0.7102901E+02  0.7818608E-02  0.1224053E+00
          4   -1    0    0  502    0 -0.00000000000E+00  0.00000000000E+00  0.19905641309E+02  0.19905641309E+02  0.00000000000E+00 0.  1.
         21   -1    0    0  501  502  0.00000000000E+00 -0.00000000000E+00 -0.54958538174E+03  0.54958538174E+03  0.00000000000E+00 0. -1.
        -13    1    1    2    0    0 -0.43136914624E+02  0.49242196589E+02 -0.81308214749E+02  0.10438689706E+03  0.10566000000E+00 0.  1.
         13    1    1    2    0    0  0.48153373557E+02 -0.70496803922E+02 -0.22474780603E+03  0.24041658476E+03  0.10566000000E+00 0. -1.
          4    1    1    2  501    0 -0.50164589330E+01  0.21254607333E+02 -0.22362371964E+03  0.22468754122E+03  0.00000000000E+00 0.  1.
</event>
<event>
 5    1  0.8445827E-005  0.1620435E+03  0.7818608E-02  0.1089806E+00
         21   -1    0    0  501  502  0.00000000000E+00  0.00000000000E+00  0.11542961537E+04  0.11542961537E+04  0.00000000000E+00 0. -1.
          4   -1    0    0  502    0 -0.00000000000E+00 -0.00000000000E+00 -0.60940039947E+02  0.60940039947E+02  0.00000000000E+00 0.  1.
        -13    1    1    2    0    0 -0.15771524449E+03  0.32727314325E+01  0.91226408645E+02  0.18222809310E+03  0.10566000000E+00 0.  1.
         13    1    1    2    0    0  0.18375056260E+03  0.47687034265E+02  0.68808653438E+03  0.71379367639E+03  0.10566000000E+00 0. -1.
          4    1    1    2  501    0 -0.26035318110E+02 -0.50959765697E+02  0.31404317074E+03  0.31921442417E+03  0.00000000000E+00 0.  1.
</event>
<event>
 5    1  0.8445827E-005  0.8445950E+02  0.7818608E-02  0.1193192E+00
          4   -1    0    0  502    0 -0.00000000000E+00  0.00000000000E+00  0.31857126355E+03  0.31857126355E+03  0.00000000000E+00 0.  1.
         21   -1    0    0  501  502  0.00000000000E+00 -0.00000000000E+00 -0.13658063257E+03  0.13658063257E+03  0.00000000000E+00 0.  1.
        -13    1    1    2    0    0  0.29248121646E+02  0.79698119305E+02  0.18632265874E+03  0.20475201382E+03  0.10566000000E+00 0.  1.
         13    1    1    2    0    0 -0.52944705317E+01 -0.85813935691E+02  0.10648329506E+03  0.13686038969E+03  0.10566000000E+00 0. -1.
          4    1    1    2  501    0 -0.23953651114E+02  0.61158163858E+01 -0.11081532281E+03  0.11353949261E+03  0.00000000000E+00 0.  1.
</event>
<event>
 5    1  0.8445827E-005  0.2819249E+03  0.7818608E-02  0.1032065E+00
         21   -1    0    0  501  502  0.00000000000E+00  0.00000000000E+00  0.15714101235E+04  0.15714101235E+04  0.00000000000E+00 0. -1.
         -4   -1    0    0    0  501 -0.00000000000E+00 -0.00000000000E+00 -0.28256707570E+03  0.28256707570E+03  0.00000000000E+00 0. -1.
        -13    1    1    2    0    0 -0.13144699195E+02  0.16504413380E+03 -0.47741311215E+02  0.17231248701E+03  0.10566000000E+00 0.  1.
         13    1    1    2    0    0  0.14967183977E+03  0.22546822444E+03  0.12231135006E+04  0.12526947858E+04  0.10566000000E+00 0. -1.
         -4    1    1    2    0  502 -0.13652714058E+03 -0.39051235824E+03  0.11347085843E+03  0.42896992642E+03  0.00000000000E+00 0. -1.
</event>
<event>
 5    1  0.8445827E-005  0.1157335E+03  0.7818608E-02  0.1140864E+00
         21   -1    0    0  501  502  0.00000000000E+00  0.00000000000E+00  0.12627727558E+03  0.12627727558E+03  0.00000000000E+00 0. -1.
         -4   -1    0    0    0  501 -0.00000000000E+00 -0.00000000000E+00 -0.22779188065E+03  0.22779188065E+03  0.00000000000E+00 0. -1.
        -13    1    1    2    0    0 -0.20009888692E+02  0.10446688699E+03 -0.89011037195E+02  0.13869643842E+03  0.10566000000E+00 0.  1.
         13    1    1    2    0    0  0.51132885292E+02 -0.12233001189E+03 -0.68213986719E+02  0.14910520754E+03  0.10566000000E+00 0. -1.
         -4    1    1    2    0  502 -0.31122996600E+02  0.17863124904E+02  0.55710418847E+02  0.66267510266E+02  0.00000000000E+00 0. -1.
</event>
<event>
 5    1  0.8445827E-005  0.4933796E+02  0.7818608E-02  0.1294508E+00
         21   -1    0    0  501  502  0.00000000000E+00  0.00000000000E+00  0.18299593041E+03  0.18299593041E+03  0.00000000000E+00 0. -1.
         -4   -1    0    0    0  501 -0.00000000000E+00 -0.00000000000E+00 -0.14708893358E+03  0.14708893358E+03  0.00000000000E+00 0. -1.
        -13    1    1    2    0    0 -0.25162518825E+02  0.23826840557E+02  0.12128521075E+03  0.12613874978E+03  0.10566000000E+00 0.  1.
         13    1    1    2    0    0  0.28187941155E+01 -0.50134595870E+02 -0.13469518256E+03  0.14375057103E+03  0.10566000000E+00 0. -1.
         -4    1    1    2    0  502  0.22343724710E+02  0.26307755312E+02  0.49316968630E+02  0.60195543177E+02  0.00000000000E+00 0. -1.
</event>
<event>
 5    1  0.8445827E-005  0.4548969E+03  0.7818608E-02  0.9582717E-01
         21   -1    0    0  501  502  0.00000000000E+00  0.00000000000E+00  0.44296242334E+03  0.44296242334E+03  0.00000000000E+00 0. -1.
         -4   -1    0    0    0  501 -0.00000000000E+00 -0.00000000000E+00 -0.13889940516E+04  0.13889940516E+04  0.00000000000E+00 0. -1.
        -13    1    1    2    0    0 -0.35339836676E+03  0.21368996599E+03 -0.52028371331E+03  0.66426573048E+03  0.10566000000E+00 0.  1.
         13    1    1    2    0    0  0.44481988774E+03 -0.49326727702E+03 -0.17409831072E+02  0.66443995401E+03  0.10566000000E+00 0. -1.
         -4    1    1    2    0  502 -0.91421520978E+02  0.27957731102E+03 -0.40833808384E+03  0.50325079041E+03  0.00000000000E+00 0. -1.
</event>
<event>
 5    1  0.8445827E-005  0.1286880E+03  0.7818608E-02  0.1124262E+00
         21   -1    0    0  501  502  0.00000000000E+00  0.00000000000E+00  0.37652449484E+02  0.37652449484E+02  0.00000000000E+00 0.  1.
         -4   -1    0    0    0  501 -0.00000000000E+00 -0.00000000000E+00 -0.75247523323E+03  0.75247523323E+03  0.00000000000E+00 0. -1.
        -13    1    1    2    0    0 -0.45755529600E+02  0.13189530137E+03 -0.40861670400E+03  0.43180731926E+03  0.10566000000E+00 0.  1.
         13    1    1    2    0    0  0.60338152048E+02 -0.10287470449E+03 -0.30306856226E+03  0.32569074597E+03  0.10566000000E+00 0. -1.
         -4    1    1    2    0  502 -0.14582622448E+02 -0.29020596880E+02 -0.31375174794E+01  0.32629617477E+02  0.00000000000E+00 0. -1.
</event>
<event>
 5    1  0.8445827E-005  0.4573941E+03  0.7818608E-02  0.9857540E-01
         -4   -1    0    0    0  501 -0.00000000000E+00  0.00000000000E+00  0.14366928818E+04  0.14366928818E+04  0.00000000000E+00 0. -1.
         21   -1    0    0  501  502  0.00000000000E+00 -0.00000000000E+00 -0.27519134053E+03  0.27519134053E+03  0.00000000000E+00 0. -1.
        -13    1    1    2    0    0 -0.12407956116E+03 -0.11972644379E+03  0.44721998835E+03  0.47930771742E+03  0.10566000000E+00 0.  1.
         13    1    1    2    0    0  0.54086935141E+03  0.12779086443E+03  0.55751641632E+03  0.78720691433E+03  0.10566000000E+00 0. -1.
         -4    1    1    2    0  502 -0.41678979026E+03 -0.80644206474E+01  0.15676513658E+03  0.44536959056E+03  0.00000000000E+00 0. -1.
</event>
<event>
 5    1  0.8445827E-005  0.2951398E+03  0.7818608E-02  0.1009332E+00
          4   -1    0    0  502    0 -0.00000000000E+00  0.00000000000E+00  0.11230503065E+04  0.11230503065E+04  0.00000000000E+00 0.  1.
         21   -1    0    0  501  502  0.00000000000E+00 -0.00000000000E+00 -0.16310591648E+03  0.16310591648E+03  0.00000000000E+00 0.  1.
        -13    1    1    2    0    0  0.27734464777E+03  0.14433134009E+03  0.71532073115E+03  0.78066340311E+03  0.10566000000E+00 0.  1.
         13    1    1    2    0    0 -0.21992351095E+03 -0.15662266471E+03  0.31431774918E+03  0.41435814024E+03  0.10566000000E+00 0. -1.
          4    1    1    2  501    0 -0.57421136820E+02  0.12291324617E+02 -0.69694090290E+02  0.91134679656E+02  0.00000000000E+00 0.  1.
</event>
<event>
 5    1  0.8445827E-005  0.4071877E+03  0.7818608E-02  0.9708514E-01
          4   -1    0    0  502    0 -0.00000000000E+00  0.00000000000E+00  0.61339506949E+03  0.61339506949E+03  0.00000000000E+00 0.  1.
         21   -1    0    0  501  502  0.00000000000E+00 -0.00000000000E+00 -0.55604529366E+03  0.55604529366E+03  0.00000000000E+00 0. -1.
        -13    1    1    2    0    0  0.13864499194E+03  0.38517425579E+03  0.42297082529E+03  0.58863058987E+03  0.10566000000E+00 0.  1.
         13    1    1    2    0    0 -0.14184189627E+03 -0.37137596056E+03 -0.26174459727E+03  0.47597213467E+03  0.10566000000E+00 0. -1.
          4    1    1    2  501    0  0.31969043304E+01 -0.13798295234E+02 -0.10387645220E+03  0.10483763861E+03  0.00000000000E+00 0.  1.
</event>
<event>
 5    1  0.8445827E-005  0.4288940E+02  0.7818608E-02  0.1323798E+00
         21   -1    0    0  501  502  0.00000000000E+00  0.00000000000E+00  0.38929855428E+02  0.38929855428E+02  0.00000000000E+00 0. -1.
         -4   -1    0    0    0  501 -0.00000000000E+00 -0.00000000000E+00 -0.23049993074E+03  0.23049993074E+03  0.00000000000E+00 0. -1.
        -13    1    1    2    0    0 -0.41789902669E+02 -0.44826377305E+02 -0.56669344621E+01  0.61546123986E+02  0.10566000000E+00 0.  1.
         13    1    1    2    0    0  0.26844559173E+02  0.31482210199E+02 -0.18302404505E+03  0.18764213851E+03  0.10566000000E+00 0. -1.
         -4    1    1    2    0  502  0.14945343496E+02  0.13344167106E+02 -0.28790958058E+01  0.20241523673E+02  0.00000000000E+00 0. -1.
</event>
<event>
 5    1  0.8445827E-005  0.2903600E+03  0.7818608E-02  0.1011366E+00
         21   -1    0    0  501  502  0.00000000000E+00  0.00000000000E+00  0.14791131524E+03  0.14791131524E+03  0.00000000000E+00 0. -1.
         -4   -1    0    0    0  501 -0.00000000000E+00 -0.00000000000E+00 -0.25060045297E+04  0.25060045297E+04  0.00000000000E+00 0. -1.
        -13    1    1    2    0    0 -0.25172156865E+03 -0.74262748496E+02 -0.68075238255E+03  0.72959065335E+03  0.10566000000E+00 0.  1.
         13    1    1    2    0    0  0.28957528049E+03  0.96523763037E+02 -0.17835052364E+04  0.18094368238E+04  0.10566000000E+00 0. -1.
         -4    1    1    2    0  502 -0.37853711846E+02 -0.22261014541E+02  0.10616440450E+03  0.11488836778E+03  0.00000000000E+00 0. -1.
</event>
<event>
 5    1  0.8445827E-005  0.5022363E+03  0.7818608E-02  0.9839661E-01
         -4   -1    0    0    0  501 -0.00000000000E+00  0.00000000000E+00  0.33775172895E+03  0.33775172895E+03  0.00000000000E+00 0. -1.
         21   -1    0    0  501  502  0.00000000000E+00 -0.00000000000E+00 -0.11715814835E+04  0.11715814835E+04  0.00000000000E+00 0. -1.
        -13    1    1    2    0    0 -0.44275055863E+02 -0.13107967933E+03  0.36730862008E+02  0.14314793150E+03  0.10566000000E+00 0.  1.
         13    1    1    2    0    0  0.44485894142E+03  0.36370753702E+03 -0.36624019697E+03  0.68140629825E+03  0.10566000000E+00 0. -1.
         -4    1    1    2    0  502 -0.40058388556E+03 -0.23262785769E+03 -0.50432041958E+03  0.68477898270E+03  0.00000000000E+00 0. -1.
</event>
<event>
 5    1  0.8445827E-005  0.1695880E+03  0.7818608E-02  0.1083252E+00
         21   -1    0    0  501  502  0.00000000000E+00  0.00000000000E+00  0.46765223096E+02  0.46765223096E+02  0.00000000000E+00 0.  1.
         -4   -1    0    0    0  501 -0.00000000000E+00 -0.00000000000E+00 -0.84940503958E+03  0.84940503958E+03  0.00000000000E+00 0. -1.
        -13    1    1    2    0    0  0.11859340934E+03  0.11878088009E+03 -0.19319811949E+03  0.25592737007E+03  0.10566000000E+00 0.  1.
         13    1    1    2    0    0 -0.12890465516E+03 -0.11139534754E+03 -0.60176550680E+03  0.62541751647E+03  0.10566000000E+00 0. -1.
         -4    1    1    2    0  502  0.10311245826E+02 -0.73855325438E+01 -0.76761901916E+01  0.14825376126E+02  0.00000000000E+00 0. -1.
</event>
<event>
 5    1  0.8445827E-005  0.1003569E+03  0.7818608E-02  0.1163966E+00
         21   -1    0    0  501  502  0.00000000000E+00  0.00000000000E+00  0.40336250258E+03  0.40336250258E+03  0.00000000000E+00 0.  1.
          4   -1    0    0  502    0 -0.00000000000E+00 -0.00000000000E+00 -0.32766931484E+03  0.32766931484E+03  0.00000000000E+00 0.  1.
        -13    1    1    2    0    0 -0.60051029743E+02  0.84040624838E+02 -0.30505746588E+03  0.32206990149E+03  0.10566000000E+00 0.  1.
         13    1    1    2    0    0  0.49811310948E+02 -0.48306582987E+02  0.79901935074E+02  0.10582543669E+03  0.10566000000E+00 0. -1.
          4    1    1    2  501    0  0.10239718795E+02 -0.35734041851E+02  0.30084871855E+03  0.30313647923E+03  0.00000000000E+00 0.  1.
</event>
<event>
 5    1  0.8445827E-005  0.4868176E+03  0.7818608E-02  0.9637610E-01
         -4   -1    0    0    0  501 -0.00000000000E+00  0.00000000000E+00  0.79037905512E+03  0.79037905512E+03  0.00000000000E+00 0. -1.
         21   -1    0    0  501  502  0.00000000000E+00 -0.00000000000E+00 -0.61521542007E+03  0.61521542007E+03  0.00000000000E+00 0. -1.
        -13    1    1    2    0    0  0.15590357898E+03  0.26265782378E+03  0.18069874388E+03  0.35489027253E+03  0.10566000000E+00 0.  1.
         13    1    1    2    0    0  0.38777499726E+03 -0.12366799464E+03  0.19946875793E+03  0.45326704927E+03  0.10566000000E+00 0. -1.
         -4    1    1    2    0  502 -0.54367857624E+03 -0.13898982914E+03 -0.20500386676E+03  0.59743715339E+03  0.00000000000E+00 0. -1.
</event>
<event>
 5    1  0.8445827E-005  0.2467613E+03  0.7818608E-02  0.1032085E+00
          4   -1    0    0  502    0 -0.00000000000E+00  0.00000000000E+00  0.51807766026E+03  0.51807766026E+03  0.00000000000E+00 0.  1.
         21   -1    0    0  501  502  0.00000000000E+00 -0.00000000000E+00 -0.32644436649E+03  0.32644436649E+03  0.00000000000E+00 0. -1.
        -13    1    1    2    0    0 -0.21492515663E+03  0.11406586357E+03  0.36327122244E+03  0.43722972955E+03  0.10566000000E+00 0.  1.
         13    1    1    2    0    0  0.23583506774E+03 -0.11065142379E+03 -0.27890615307E+02  0.26199201200E+03  0.10566000000E+00 0. -1.
          4    1    1    2  501    0 -0.20909911116E+02 -0.34144397779E+01 -0.14374731336E+03  0.14530028521E+03  0.00000000000E+00 0.  1.
</event>
<event>
 5    1  0.8445827E-005  0.4282157E+03  0.7818608E-02  0.9650925E-01
         -4   -1    0    0    0  501 -0.00000000000E+00  0.00000000000E+00  0.14247977699E+04  0.14247977699E+04  0.00000000000E+00 0. -1.
         21   -1    0    0  501  502  0.00000000000E+00 -0.00000000000E+00 -0.20057605725E+03  0.20057605725E+03  0.00000000000E+00 0.  1.
        -13    1    1    2    0    0  0.38179786051E+03  0.22588191525E+03  0.85046437926E+03  0.95920900615E+03  0.10566000000E+00 0.  1.
         13    1    1    2    0    0 -0.36244706988E+03 -0.18287057351E+03  0.43093671272E+03  0.59204390601E+03  0.10566000000E+00 0. -1.
         -4    1    1    2    0  502 -0.19350790629E+02 -0.43011341745E+02 -0.57179379327E+02  0.74120914976E+02  0.00000000000E+00 0. -1.
</event>
<event>
 5    1  0.8445827E-005  0.5009650E+03  0.7818608E-02  0.9647219E-01
          4   -1    0    0  502    0 -0.00000000000E+00  0.00000000000E+00  0.60409278068E+03  0.60409278068E+03  0.00000000000E+00 0.  1.
         21   -1    0    0  501  502  0.00000000000E+00 -0.00000000000E+00 -0.85636300513E+03  0.85636300513E+03  0.00000000000E+00 0.  1.
        -13    1    1    2    0    0 -0.54192521363E+03 -0.15843748481E+03  0.65424316757E+00  0.56461120513E+03  0.10566000000E+00 0.  1.
         13    1    1    2    0    0  0.81775057906E+02  0.25831900242E+03 -0.32101722706E+03  0.42008087119E+03  0.10566000000E+00 0. -1.
          4    1    1    2  501    0  0.46015015573E+03 -0.99881517614E+02  0.68092759440E+02  0.47576370949E+03  0.00000000000E+00 0.  1.
</event>
<event>
 5    1  0.8445827E-005  0.4021313E+03  0.7818608E-02  0.1029500E+00
          4   -1    0    0  502    0 -0.00000000000E+00  0.00000000000E+00  0.34788321195E+04  0.34788321195E+04  0.00000000000E+00 0.  1.
         21   -1    0    0  501  502  0.00000000000E+00 -0.00000000000E+00 -0.61224489372E+02  0.61224489372E+02  0.00000000000E+00 0.  1.
        -13    1    1    2    0    0  0.30618605464E+03  0.29679709216E+03  0.21957505028E+04  0.22367741718E+04  0.10566000000E+00 0.  1.
         13    1    1    2    0    0 -0.61171837262E+02  0.84308919246E+01  0.18306188041E+03  0.19319610979E+03  0.10566000000E+00 0. -1.
          4    1    1    2  501    0 -0.24501421738E+03 -0.30522798408E+03  0.10387952469E+04  0.11100863273E+04  0.00000000000E+00 0.  1.
</event>
<event>
 5    1  0.8445827E-005  0.4058000E+03  0.7818608E-02  0.9755825E-01
         -4   -1    0    0    0  501 -0.00000000000E+00  0.00000000000E+00  0.22671684611E+04  0.22671684611E+04  0.00000000000E+00 0. -1.
         21   -1    0    0  501  502  0.00000000000E+00 -0.00000000000E+00 -0.34266945537E+03  0.34266945537E+03  0.00000000000E+00 0. -1.
        -13    1    1    2    0    0 -0.34943039056E+03  0.35305130045E+03  0.11662978405E+04  0.12676740442E+04  0.10566000000E+00 0.  1.
         13    1    1    2    0    0  0.36740444445E+03  0.83998301461E+02  0.81802763364E+03  0.90067250486E+03  0.10566000000E+00 0. -1.
         -4    1    1    2    0  502 -0.17974053898E+02 -0.43704960191E+03 -0.59826468379E+02  0.44149136737E+03  0.00000000000E+00 0. -1.
</event>
<event>
 5    1  0.8445827E-005  0.4875708E+03  0.7818608E-02  0.9706336E-01
         21   -1    0    0  501  502  0.00000000000E+00  0.00000000000E+00  0.33645496235E+03  0.33645496235E+03  0.00000000000E+00 0. -1.
         -4   -1    0    0    0  501 -0.00000000000E+00 -0.00000000000E+00 -0.12598059689E+04  0.12598059689E+04  0.00000000000E+00 0. -1.
        -13    1    1    2    0    0 -0.23895859024E+03 -0.28809806460E+01 -0.32144601124E+03  0.40054594893E+03  0.10566000000E+00 0.  1.
         13    1    1    2    0    0  0.57239409063E+03  0.24262880342E+03 -0.38536460049E+03  0.73144351643E+03  0.10566000000E+00 0. -1.
         -4    1    1    2    0  502 -0.33343550039E+03 -0.23974782278E+03 -0.21654039481E+03  0.46427146588E+03  0.00000000000E+00 0. -1.
</event>
<event>
 5    1  0.8445827E-005  0.3745073E+03  0.7818608E-02  0.1017390E+00
         21   -1    0    0  501  502  0.00000000000E+00  0.00000000000E+00  0.24586707427E+03  0.24586707427E+03  0.00000000000E+00 0.  1.
          4   -1    0    0  502    0 -0.00000000000E+00 -0.00000000000E+00 -0.12912691925E+04  0.12912691925E+04  0.00000000000E+00 0.  1.
        -13    1    1    2    0    0  0.49795543507E+02 -0.37192490757E+03  0.40708423822E+01  0.37526566049E+03  0.10566000000E+00 0.  1.
         13    1    1    2    0    0  0.10952435684E+03  0.21870067540E+02 -0.19258562422E+03  0.22262775752E+03  0.10566000000E+00 0. -1.
          4    1    1    2  501    0 -0.15931990035E+03  0.35005484003E+03 -0.85688733642E+03  0.93924284879E+03  0.00000000000E+00 0.  1.
</event>
<event>
 5    1  0.8445827E-005  0.4220258E+03  0.7818608E-02  0.1023918E+00
         21   -1    0    0  501  502  0.00000000000E+00  0.00000000000E+00  0.14002603276E+03  0.14002603276E+03  0.00000000000E+00 0. -1.
         -4   -1    0    0    0  501 -0.00000000000E+00 -0.00000000000E+00 -0.20501416468E+04  0.20501416468E+04  0.00000000000E+00 0. -1.
        -13    1    1    2    0    0 -0.15546140130E+02  0.61621503055E+02 -0.20201836133E+03  0.21177894510E+03  0.10566000000E+00 0.  1.
         13    1    1    2    0    0 -0.40924892142E+03 -0.20010562210E+02 -0.13813901890E+04  0.14408761112E+04  0.10566000000E+00 0. -1.
         -4    1    1    2    0  502  0.42479506155E+03 -0.41610940846E+02 -0.32670706367E+03  0.53751262326E+03  0.00000000000E+00 0. -1.
</event>
<event>
 5    1  0.8445827E-005  0.2491401E+03  0.7818608E-02  0.1040469E+00
          4   -1    0    0  502    0 -0.00000000000E+00  0.00000000000E+00  0.82037325841E+03  0.82037325841E+03  0.00000000000E+00 0.  1.
         21   -1    0    0  501  502  0.00000000000E+00 -0.00000000000E+00 -0.43006819259E+03  0.43006819259E+03  0.00000000000E+00 0.  1.
        -13    1    1    2    0    0  0.25286547247E+03 -0.10442215588E+02 -0.29584221389E+03  0.38932327662E+03  0.10566000000E+00 0.  1.
         13    1    1    2    0    0 -0.54193352979E+02  0.17754426526E+03  0.80800383886E+02  0.20245394250E+03  0.10566000000E+00 0. -1.
          4    1    1    2  501    0 -0.19867211949E+03 -0.16710204967E+03  0.60534689583E+03  0.65866423188E+03  0.00000000000E+00 0.  1.
</event>
<event>
 5    1  0.8445827E-005  0.4959810E+03  0.7818608E-02  0.9543268E-01
         -4   -1    0    0    0  501 -0.00000000000E+00  0.00000000000E+00  0.74085197682E+03  0.74085197682E+03  0.00000000000E+00 0. -1.
         21   -1    0    0  501  502  0.00000000000E+00 -0.00000000000E+00 -0.19181524857E+04  0.19181524857E+04  0.00000000000E+00 0. -1.
        -13    1    1    2    0    0 -0.37935180384E+03  0.13976910170E+03  0.51362640052E+03  0.65364767524E+03  0.10566000000E+00 0.  1.
         13    1    1    2    0    0 -0.19146244076E+02  0.36003757594E+03 -0.28040135215E+03  0.45674781248E+03  0.10566000000E+00 0. -1.
         -4    1    1    2    0  502  0.39849804792E+03 -0.49980667764E+03 -0.14105255573E+04  0.15486089748E+04  0.00000000000E+00 0. -1.
</event>
<event>
 5    1  0.8445827E-005  0.1093393E+03  0.7818608E-02  0.1149964E+00
          4   -1    0    0  502    0 -0.00000000000E+00  0.00000000000E+00  0.36005427624E+03  0.36005427624E+03  0.00000000000E+00 0.  1.
         21   -1    0    0  501  502  0.00000000000E+00 -0.00000000000E+00 -0.89563203059E+03  0.89563203059E+03  0.00000000000E+00 0. -1.
        -13    1    1    2    0    0  0.10880129645E+03 -0.80691674277E+01  0.34488705102E+03  0.36173183810E+03  0.10566000000E+00 0.  1.
         13    1    1    2    0    0 -0.13137763365E+03  0.37267982455E+01 -0.76782227476E+03  0.77898974860E+03  0.10566000000E+00 0. -1.
          4    1    1    2  501    0  0.22576337195E+02  0.43423691822E+01 -0.11264253060E+03  0.11496472012E+03  0.00000000000E+00 0.  1.
</event>
<event>
 5    1  0.8445827E-005  0.4478071E+02  0.7818608E-02  0.1317740E+00
         21   -1    0    0  501  502  0.00000000000E+00  0.00000000000E+00  0.21586324364E+03  0.21586324364E+03  0.00000000000E+00 0. -1.
         -4   -1    0    0    0  501 -0.00000000000E+00 -0.00000000000E+00 -0.81282733003E+02  0.81282733003E+02  0.00000000000E+00 0. -1.
        -13    1    1    2    0    0  0.36556893612E+01 -0.42066185579E+02  0.22368574449E+02  0.47783808144E+02  0.10566000000E+00 0.  1.
         13    1    1    2    0    0 -0.23070771809E+02 -0.54608284469E-01 -0.63537186255E+02  0.67596218053E+02  0.10566000000E+00 0. -1.
         -4    1    1    2    0  502  0.19415082448E+02  0.42120793863E+02  0.17574912245E+03  0.18176595045E+03  0.00000000000E+00 0. -1.
</event>
<event>
 5    1  0.8445827E-005  0.3212872E+03  0.7818608E-02  0.1005060E+00
         -4   -1    0    0    0  501 -0.00000000000E+00  0.00000000000E+00  0.28673475770E+03  0.28673475770E+03  0.00000000000E+00 0. -1.
         21   -1    0    0  501  502  0.00000000000E+00 -0.00000000000E+00 -0.15410200696E+04  0.15410200696E+04  0.00000000000E+00 0. -1.
        -13    1    1    2    0    0 -0.32255918903E+01  0.26262793141E+03 -0.77285958458E+02  0.27378269729E+03  0.10566000000E+00 0.  1.
         13    1    1    2    0    0  0.26574136303E+03  0.14899067078E+03 -0.98215473735E+03  0.10283212685E+04  0.10566000000E+00 0. -1.
         -4    1    1    2    0  502 -0.26251577114E+03 -0.41161860219E+03 -0.19484461607E+03  0.52565086148E+03  0.00000000000E+00 0. -1.
</event>
<event>
 5    1  0.8445827E-005  0.4216293E+03  0.7818608E-02  0.9861568E-01
         -4   -1    0    0    0  501 -0.00000000000E+00  0.00000000000E+00  0.87144091366E+03  0.87144091366E+03  0.00000000000E+00 0. -1.
         21   -1    0    0  501  502  0.00000000000E+00 -0.00000000000E+00 -0.35809397076E+03  0.35809397076E+03  0.00000000000E+00 0. -1.
        -13    1    1    2    0    0 -0.14976256865E+03  0.15725529265E+03  0.12859702014E+03  0.25237919643E+03  0.10566000000E+00 0.  1.
         13    1    1    2    0    0  0.47376863649E+03 -0.21982436159E+01  0.33809417360E+02  0.47497856906E+03  0.10566000000E+00 0. -1.
         -4    1    1    2    0  502 -0.32400606783E+03 -0.15505704903E+03  0.35094050541E+03  0.50217711894E+03  0.00000000000E+00 0. -1.
</event>
<event>
 5    1  0.8445827E-005  0.1484090E+03  0.7818608E-02  0.1102691E+00
          4   -1    0    0  502    0 -0.00000000000E+00  0.00000000000E+00  0.23496708588E+03  0.23496708588E+03  0.00000000000E+00 0.  1.
         21   -1    0    0  501  502  0.00000000000E+00 -0.00000000000E+00 -0.13697526980E+03  0.13697526980E+03  0.00000000000E+00 0. -1.
        -13    1    1    2    0    0  0.50292599389E+02  0.14151474615E+03  0.13612065046E+03  0.20269339303E+03  0.10566000000E+00 0.  1.
         13    1    1    2    0    0 -0.60268642278E+02 -0.13123533873E+03 -0.19460170890E+02  0.14571799061E+03  0.10566000000E+00 0. -1.
          4    1    1    2  501    0  0.99760428894E+01 -0.10279407424E+02 -0.18668663485E+02  0.23530972037E+02  0.00000000000E+00 0.  1.
</event>
<event>
 5    1  0.8445827E-005  0.3605173E+03  0.7818608E-02  0.9882627E-01
         -4   -1    0    0    0  501 -0.00000000000E+00  0.00000000000E+00  0.91645336634E+03  0.91645336634E+03  0.00000000000E+00 0. -1.
         21   -1    0    0  501  502  0.00000000000E+00 -0.00000000000E+00 -0.53923591252E+03  0.53923591252E+03  0.00000000000E+00 0. -1.
        -13    1    1    2    0    0 -0.25638278199E+03 -0.19746046567E+03  0.19150432893E+03  0.37602750640E+03  0.10566000000E+00 0.  1.
         13    1    1    2    0    0  0.30156153171E+03 -0.18266963629E+03  0.48087398847E+03  0.59627791958E+03  0.10566000000E+00 0. -1.
         -4    1    1    2    0  502 -0.45178749712E+02  0.38013010196E+03 -0.29516086358E+03  0.48338385289E+03  0.00000000000E+00 0. -1.
</event>
<event>
 5    1  0.8445827E-005  0.5700250E+02  0.7818608E-02  0.1265639E+00
          4   -1    0    0  502    0 -0.00000000000E+00  0.00000000000E+00  0.34363260720E+03  0.34363260720E+03  0.00000000000E+00 0.  1.
         21   -1    0    0  501  502  0.00000000000E+00 -0.00000000000E+00 -0.30616180292E+02  0.30616180292E+02  0.00000000000E+00 0. -1.
        -13    1    1    2    0    0  0.38780810456E+02  0.47174744410E+02  0.25683818589E+03  0.26399862246E+03  0.10566000000E+00 0.  1.
         13    1    1    2    0    0 -0.76043209072E+01 -0.33482088709E+02 -0.10054743140E+02  0.35776877791E+02  0.10566000000E+00 0. -1.
          4    1    1    2  501    0 -0.31176489549E+02 -0.13692655701E+02  0.66232984162E+02  0.74473287236E+02  0.00000000000E+00 0.  1.
</event>
<event>
 5    1  0.8445827E-005  0.2047167E+03  0.7818608E-02  0.1056950E+00
          4   -1    0    0  502    0 -0.00000000000E+00  0.00000000000E+00  0.87754084460E+03  0.87754084460E+03  0.00000000000E+00 0.  1.
         21   -1    0    0  501  502  0.00000000000E+00 -0.00000000000E+00 -0.74405937586E+02  0.74405937586E+02  0.00000000000E+00 0.  1.
        -13    1    1    2    0    0 -0.14338701050E+02  0.20783756528E+03  0.54637284894E+03  0.58474383546E+03  0.10566000000E+00 0.  1.
         13    1    1    2    0    0  0.25131772415E+02 -0.19731295779E+03  0.27758679678E+03  0.34149443657E+03  0.10566000000E+00 0. -1.
          4    1    1    2  501    0 -0.10793071365E+02 -0.10524607489E+02 -0.20824738703E+02  0.25708510154E+02  0.00000000000E+00 0.  1.
</event>
<event>
 5    1  0.8445827E-005  0.3719142E+03  0.7818608E-02  0.9813858E-01
         -4   -1    0    0    0  501 -0.00000000000E+00  0.00000000000E+00  0.23782451313E+04  0.23782451313E+04  0.00000000000E+00 0. -1.
         21   -1    0    0  501  502  0.00000000000E+00 -0.00000000000E+00 -0.43030860294E+03  0.43030860294E+03  0.00000000000E+00 0. -1.
        -13    1    1    2    0    0 -0.27007792932E+03  0.25157243669E+03  0.16583508413E+04  0.16989285750E+04  0.10566000000E+00 0.  1.
         13    1    1    2    0    0  0.23870483937E+02 -0.50213065976E+03  0.49266889598E+03  0.70386621719E+03  0.10566000000E+00 0. -1.
         -4    1    1    2    0  502  0.24620744538E+03  0.25055822307E+03 -0.20308320895E+03  0.40575894206E+03  0.00000000000E+00 0. -1.
</event>
<event>
 5    1  0.8445827E-005  0.3706954E+03  0.7818608E-02  0.9817717E-01
         21   -1    0    0  501  502  0.00000000000E+00  0.00000000000E+00  0.84840259616E+03  0.84840259616E+03  0.00000000000E+00 0.  1.
          4   -1    0    0  502    0 -0.00000000000E+00 -0.00000000000E+00 -0.56019976710E+03  0.56019976710E+03  0.00000000000E+00 0.  1.
        -13    1    1    2    0    0  0.47941413690E+02 -0.38584011626E+03 -0.34162232565E+03  0.51756815880E+03  0.10566000000E+00 0.  1.
         13    1    1    2    0    0 -0.33425619071E+02  0.32612556952E+03  0.79562360559E+02  0.33735046982E+03  0.10566000000E+00 0. -1.
          4    1    1    2  501    0 -0.14515794619E+02  0.59714546743E+02  0.55026279414E+03  0.55368373464E+03  0.00000000000E+00 0.  1.
</event>
<event>
 5    1  0.8445827E-005  0.3781198E+03  0.7818608E-02  0.1002685E+00
         21   -1    0    0  501  502  0.00000000000E+00  0.00000000000E+00  0.46389194538E+03  0.46389194538E+03  0.00000000000E+00 0. -1.
         -4   -1    0    0    0  501 -0.00000000000E+00 -0.00000000000E+00 -0.10887501267E+04  0.10887501267E+04  0.00000000000E+00 0. -1.
        -13    1    1    2    0    0  0.17395980886E+03 -0.59194286563E+01 -0.51653670693E+03  0.54507544019E+03  0.10566000000E+00 0.  1.
         13    1    1    2    0    0  0.17448295085E+03 -0.20077465750E+03 -0.41949529841E+03  0.49672032350E+03  0.10566000000E+00 0. -1.
         -4    1    1    2    0  502 -0.34844275971E+03  0.20669408615E+03  0.31117382401E+03  0.51084630839E+03  0.00000000000E+00 0. -1.
</event>
<event>
 5    1  0.8445827E-005  0.4883332E+03  0.7818608E-02  0.9519935E-01
         -4   -1    0    0    0  501 -0.00000000000E+00  0.00000000000E+00  0.23777866397E+04  0.23777866397E+04  0.00000000000E+00 0. -1.
         21   -1    0    0  501  502  0.00000000000E+00 -0.00000000000E+00 -0.31424510902E+03  0.31424510902E+03  0.00000000000E+00 0. -1.
        -13    1    1    2    0    0  0.32211016493E+02 -0.45966251219E+03  0.12184237840E+04  0.13026448877E+04  0.10566000000E+00 0.  1.
         13    1    1    2    0    0  0.44462182984E+03  0.35030257400E+03  0.24942677561E+03  0.61855815610E+03  0.10566000000E+00 0. -1.
         -4    1    1    2    0  502 -0.47683284633E+03  0.10935993819E+03  0.59569097106E+03  0.77082870498E+03  0.00000000000E+00 0. -1.
</event>
<event>
 5    1  0.8445827E-005  0.4684094E+03  0.7818608E-02  0.9550037E-01
         21   -1    0    0  501  502  0.00000000000E+00  0.00000000000E+00  0.18146695174E+03  0.18146695174E+03  0.00000000000E+00 0. -1.
         -4   -1    0    0    0  501 -0.00000000000E+00 -0.00000000000E+00 -0.29387248419E+04  0.29387248419E+04  0.00000000000E+00 0. -1.
        -13    1    1    2    0    0 -0.11924651420E+02 -0.39151121886E+03 -0.10385509289E+04  0.11099600330E+04  0.10566000000E+00 0.  1.
         13    1    1    2    0    0 -0.23226920407E+03  0.64261928349E+03 -0.12567420495E+04  0.14304926133E+04  0.10566000000E+00 0. -1.
         -4    1    1    2    0  502  0.24419385549E+03 -0.25110806464E+03 -0.46196491173E+03  0.57973914725E+03  0.00000000000E+00 0. -1.
</event>
<event>
 5    1  0.1611516E-004  0.3194663E+03  0.7818608E-02  0.1069319E+00
         21   -1    0    0  501  502  0.00000000000E+00  0.00000000000E+00  0.89912714160E+03  0.89912714160E+03  0.00000000000E+00 0. -1.
         -4   -1    0    0    0  501 -0.00000000000E+00 -0.00000000000E+00 -0.46043714372E+03  0.46043714372E+03  0.00000000000E+00 0. -1.
        -13    1    1    2    0    0  0.20211959329E+02 -0.31737793746E+02 -0.17754544555E+03  0.18148886261E+03  0.10566000000E+00 0.  1.
         13    1    1    2    0    0  0.84358655836E+02 -0.27455446459E+03 -0.16585008254E+03  0.33166669698E+03  0.10566000000E+00 0. -1.
         -4    1    1    2    0  502 -0.10457061516E+03  0.30629225834E+03  0.78208552596E+03  0.84640872573E+03  0.00000000000E+00 0. -1.
</event>
<event>
 5    1  0.8445827E-005  0.4167379E+03  0.7818608E-02  0.9924001E-01
         21   -1    0    0  501  502  0.00000000000E+00  0.00000000000E+00  0.14036382980E+03  0.14036382980E+03  0.00000000000E+00 0.  1.
          4   -1    0    0  502    0 -0.00000000000E+00 -0.00000000000E+00 -0.26772944445E+04  0.26772944445E+04  0.00000000000E+00 0.  1.
        -13    1    1    2    0    0  0.79949545767E+02  0.44931804192E+03 -0.42486732216E+03  0.62353098180E+03  0.10566000000E+00 0.  1.
         13    1    1    2    0    0 -0.22649124944E+02 -0.18103626006E+03 -0.23695001277E+03  0.29905255397E+03  0.10566000000E+00 0. -1.
          4    1    1    2  501    0 -0.57300420823E+02 -0.26828178186E+03 -0.18751132797E+04  0.18950747385E+04  0.00000000000E+00 0.  1.
</event>
<event>
 5    1  0.1473265E-004  0.4761095E+03  0.7818608E-02  0.9976576E-01
         -4   -1    0    0    0  501 -0.00000000000E+00  0.00000000000E+00  0.94051924157E+03  0.94051924157E+03  0.00000000000E+00 0. -1.
         21   -1    0    0  501  502  0.00000000000E+00 -0.00000000000E+00 -0.35950128063E+03  0.35950128063E+03  0.00000000000E+00 0. -1.
        -13    1    1    2    0    0 -0.75893992242E+02  0.69342950274E+02  0.20938474661E+03  0.23326021111E+03  0.10566000000E+00 0.  1.
         13    1    1    2    0    0  0.57928594750E+02  0.43133555387E+03  0.36132799875E+03  0.56565361836E+03  0.10566000000E+00 0. -1.
         -4    1    1    2    0  502  0.17965397492E+02 -0.50067850414E+03  0.10305215581E+02  0.50110669272E+03  0.00000000000E+00 0. -1.
</event>
<event>
 5    1  0.8445827E-005  0.4109962E+03  0.7818608E-02  0.1000817E+00
         -4   -1    0    0    0  501 -0.00000000000E+00  0.00000000000E+00  0.15682984907E+04  0.15682984907E+04  0.00000000000E+00 0. -1.
         21   -1    0    0  501  502  0.00000000000E+00 -0.00000000000E+00 -0.25890224401E+03  0.25890224401E+03  0.00000000000E+00 0. -1.
        -13    1    1    2    0    0 -0.65215679710E+01 -0.14392086754E+03  0.60292534077E+03  0.61989896327E+03  0.10566000000E+00 0.  1.
         13    1    1    2    0    0  0.41586587970E+03  0.11971757088E+03  0.66734798744E+03  0.79538045876E+03  0.10566000000E+00 0. -1.
         -4    1    1    2    0  502 -0.40934431173E+03  0.24203296665E+02  0.39122918509E+02  0.41192131271E+03  0.00000000000E+00 0. -1.
</event>
<event>
 5    1  0.8445827E-005  0.4928744E+03  0.7818608E-02  0.9493728E-01
         21   -1    0    0  501  502  0.00000000000E+00  0.00000000000E+00  0.54097876930E+03  0.54097876930E+03  0.00000000000E+00 0. -1.
         -4   -1    0    0    0  501 -0.00000000000E+00 -0.00000000000E+00 -0.24277718596E+04  0.24277718596E+04  0.00000000000E+00 0. -1.
        -13    1    1    2    0    0 -0.47402093646E+03  0.10333023612E+03 -0.17980887624E+04  0.18623899147E+04  0.10566000000E+00 0.  1.
         13    1    1    2    0    0  0.63989797241E+03  0.13886275984E+03  0.20991556880E+03  0.68761678161E+03  0.10566000000E+00 0. -1.
         -4    1    1    2    0  502 -0.16587703595E+03 -0.24219299597E+03 -0.29861989673E+03  0.41874393258E+03  0.00000000000E+00 0. -1.
</event>
<event>
 5    1  0.8445827E-005  0.1602636E+03  0.7818608E-02  0.1104204E+00
         -4   -1    0    0    0  501 -0.00000000000E+00  0.00000000000E+00  0.16173113631E+04  0.16173113631E+04  0.00000000000E+00 0. -1.
         21   -1    0    0  501  502  0.00000000000E+00 -0.00000000000E+00 -0.34867983859E+02  0.34867983859E+02  0.00000000000E+00 0. -1.
        -13    1    1    2    0    0 -0.10954581761E+03  0.28327333488E+02  0.35484921173E+03  0.37245227642E+03  0.10566000000E+00 0.  1.
         13    1    1    2    0    0  0.14614353223E+03  0.10649889981E+03  0.38163052046E+03  0.42230535515E+03  0.10566000000E+00 0. -1.
         -4    1    1    2    0  502 -0.36597714617E+02 -0.13482623330E+03  0.84596364705E+03  0.85742171539E+03  0.00000000000E+00 0. -1.
</event>
<event>
 5    1  0.8445827E-005  0.3958158E+03  0.7818608E-02  0.9919847E-01
         21   -1    0    0  501  502  0.00000000000E+00  0.00000000000E+00  0.26393014294E+04  0.26393014294E+04  0.00000000000E+00 0.  1.
          4   -1    0    0  502    0 -0.00000000000E+00 -0.00000000000E+00 -0.34178225136E+03  0.34178225136E+03  0.00000000000E+00 0.  1.
        -13    1    1    2    0    0  0.17680533763E+03 -0.54317164304E+03  0.87479713787E+03  0.10447801706E+04  0.10566000000E+00 0.  1.
         13    1    1    2    0    0 -0.77551735630E+02  0.20149295278E+03 -0.18828723590E+03  0.28647124827E+03  0.10566000000E+00 0. -1.
          4    1    1    2  501    0 -0.99253602000E+02  0.34167869026E+03  0.16110092760E+04  0.16498322619E+04  0.00000000000E+00 0.  1.
</event>
<event>
 5    1  0.8445827E-005  0.1454829E+03  0.7818608E-02  0.1105654E+00
         21   -1    0    0  501  502  0.00000000000E+00  0.00000000000E+00  0.21568782822E+03  0.21568782822E+03  0.00000000000E+00 0.  1.
         -4   -1    0    0    0  501 -0.00000000000E+00 -0.00000000000E+00 -0.22392233224E+03  0.22392233224E+03  0.00000000000E+00 0. -1.
        -13    1    1    2    0    0 -0.12300850851E+03 -0.51888819804E+02  0.11722229690E+03  0.17766434881E+03  0.10566000000E+00 0.  1.
         13    1    1    2    0    0  0.14338201990E+03  0.36965250435E+02 -0.16074653807E+03  0.21855043820E+03  0.10566000000E+00 0. -1.
         -4    1    1    2    0  502 -0.20373511392E+02  0.14923569369E+02  0.35289737150E+02  0.43395373455E+02  0.00000000000E+00 0. -1.
</event>
<event>
 5    1  0.8445827E-005  0.9963471E+02  0.7818608E-02  0.1165161E+00
         -4   -1    0    0    0  501 -0.00000000000E+00  0.00000000000E+00  0.18483370492E+02  0.18483370492E+02  0.00000000000E+00 0. -1.
         21   -1    0    0  501  502  0.00000000000E+00 -0.00000000000E+00 -0.10381014669E+04  0.10381014669E+04  0.00000000000E+00 0. -1.
        -13    1    1    2    0    0 -0.66308181805E+02 -0.19611921944E+02 -0.41574732100E+03  0.42145847783E+03  0.10566000000E+00 0.  1.
         13    1    1    2    0    0  0.12005446338E+03  0.54076995559E+01 -0.25554769877E+03  0.28239503342E+03  0.10566000000E+00 0. -1.
         -4    1    1    2    0  502 -0.53746281573E+02  0.14204222388E+02 -0.34832307660E+03  0.35273132610E+03  0.00000000000E+00 0. -1.
</event>
<event>
 5    1  0.8445827E-005  0.4075859E+03  0.7818608E-02  0.9821679E-01
         21   -1    0    0  501  502  0.00000000000E+00  0.00000000000E+00  0.53876875802E+03  0.53876875802E+03  0.00000000000E+00 0.  1.
          4   -1    0    0  502    0 -0.00000000000E+00 -0.00000000000E+00 -0.83748369564E+03  0.83748369564E+03  0.00000000000E+00 0.  1.
        -13    1    1    2    0    0 -0.58334719824E+02  0.34227675105E+03 -0.40345537600E+03  0.53228992611E+03  0.10566000000E+00 0.  1.
         13    1    1    2    0    0 -0.27055789023E+03 -0.50021960875E+02 -0.17172166087E+03  0.32433332933E+03  0.10566000000E+00 0. -1.
          4    1    1    2  501    0  0.32889261006E+03 -0.29225479018E+03  0.27646209924E+03  0.51962919823E+03  0.00000000000E+00 0.  1.
</event>
<event>
 5    1  0.8445827E-005  0.1543799E+03  0.7818608E-02  0.1096871E+00
          4   -1    0    0  502    0 -0.00000000000E+00  0.00000000000E+00  0.43419203810E+02  0.43419203810E+02  0.00000000000E+00 0.  1.
         21   -1    0    0  501  502  0.00000000000E+00 -0.00000000000E+00 -0.10962354876E+04  0.10962354876E+04  0.00000000000E+00 0. -1.
        -13    1    1    2    0    0  0.81827619638E+02  0.13573080061E+03 -0.13922044477E+03  0.21095248985E+03  0.10566000000E+00 0.  1.
         13    1    1    2    0    0 -0.86472193556E+02 -0.10676328960E+03 -0.76459277543E+03  0.77683844117E+03  0.10566000000E+00 0. -1.
          4    1    1    2  501    0  0.46445739182E+01 -0.28967511012E+02 -0.14900306354E+03  0.15186376035E+03  0.00000000000E+00 0.  1.
</event>
<event>
 5    1  0.8445827E-005  0.5063126E+03  0.7818608E-02  0.9586683E-01
         -4   -1    0    0    0  501 -0.00000000000E+00  0.00000000000E+00  0.95145582567E+03  0.95145582567E+03  0.00000000000E+00 0. -1.
         21   -1    0    0  501  502  0.00000000000E+00 -0.00000000000E+00 -0.80789517096E+03  0.80789517096E+03  0.00000000000E+00 0. -1.
        -13    1    1    2    0    0 -0.23075473874E+03  0.22924795676E+03  0.52774371899E+03  0.61993210856E+03  0.10566000000E+00 0.  1.
         13    1    1    2    0    0  0.56135766673E+03  0.10876830733E+03 -0.33831032703E+03  0.66438457478E+03  0.10566000000E+00 0. -1.
         -4    1    1    2    0  502 -0.33060292799E+03 -0.33801626409E+03 -0.45872737254E+02  0.47503431330E+03  0.00000000000E+00 0. -1.
</event>
<event>
 5    1  0.8445827E-005  0.3106791E+03  0.7818608E-02  0.1010297E+00
         21   -1    0    0  501  502  0.00000000000E+00  0.00000000000E+00  0.19011029623E+04  0.19011029623E+04  0.00000000000E+00 0.  1.
          4   -1    0    0  502    0 -0.00000000000E+00 -0.00000000000E+00 -0.26734237115E+03  0.26734237115E+03  0.00000000000E+00 0.  1.
        -13    1    1    2    0    0 -0.18477311437E+03 -0.78704832830E+02 -0.62181218664E+02  0.21024288246E+03  0.10566000000E+00 0.  1.
         13    1    1    2    0    0  0.75000163715E+02 -0.23356038344E+03  0.15852928187E+02  0.24581863999E+03  0.10566000000E+00 0. -1.
          4    1    1    2  501    0  0.10977295066E+03  0.31226521627E+03  0.16800888816E+04  0.17123838110E+04  0.00000000000E+00 0.  1.
</event>
<event>
 5    1  0.8445827E-005  0.1371626E+03  0.7818608E-02  0.1114511E+00
         -4   -1    0    0    0  501 -0.00000000000E+00  0.00000000000E+00  0.39178417572E+02  0.39178417572E+02  0.00000000000E+00 0. -1.
         21   -1    0    0  501  502  0.00000000000E+00 -0.00000000000E+00 -0.10556486634E+04  0.10556486634E+04  0.00000000000E+00 0.  1.
        -13    1    1    2    0    0 -0.97534276246E+01 -0.12871402594E+03 -0.46658089097E+03  0.48410760044E+03  0.10566000000E+00 0.  1.
         13    1    1    2    0    0  0.39507253163E+02  0.13506484889E+03 -0.13596283429E+03  0.19567636528E+03  0.10566000000E+00 0. -1.
         -4    1    1    2    0  502 -0.29753825538E+02 -0.63508229450E+01 -0.41392652060E+03  0.41504311529E+03  0.00000000000E+00 0. -1.
</event>
<event>
 5    1  0.8445827E-005  0.2340273E+03  0.7818608E-02  0.1039020E+00
         21   -1    0    0  501  502  0.00000000000E+00  0.00000000000E+00  0.95761435016E+03  0.95761435016E+03  0.00000000000E+00 0.  1.
         -4   -1    0    0    0  501 -0.00000000000E+00 -0.00000000000E+00 -0.10419815289E+03  0.10419815289E+03  0.00000000000E+00 0. -1.
        -13    1    1    2    0    0  0.16540493692E+02  0.17457630388E+03  0.52769002017E+03  0.55606406318E+03  0.10566000000E+00 0.  1.
         13    1    1    2    0    0 -0.10321446610E+03 -0.24085400378E+03  0.15903554597E+03  0.30652274499E+03  0.10566000000E+00 0. -1.
         -4    1    1    2    0  502  0.86673972409E+02  0.66277699899E+02  0.16669063112E+03  0.19922569488E+03  0.00000000000E+00 0. -1.
</event>
<event>
 5    1  0.8445827E-005  0.5021105E+03  0.7818608E-02  0.9639306E-01
          4   -1    0    0  502    0 -0.00000000000E+00  0.00000000000E+00  0.29700304566E+03  0.29700304566E+03  0.00000000000E+00 0.  1.
         21   -1    0    0  501  502  0.00000000000E+00 -0.00000000000E+00 -0.14801261533E+04  0.14801261533E+04  0.00000000000E+00 0.  1.
        -13    1    1    2    0    0  0.58515879664E+03 -0.47961569714E+02 -0.74586621584E+03  0.94922471130E+03  0.10566000000E+00 0.  1.
         13    1    1    2    0    0 -0.19034191179E+03  0.20085035545E+03 -0.21004287216E+03  0.34740312028E+03  0.10566000000E+00 0. -1.
          4    1    1    2  501    0 -0.39481688485E+03 -0.15288878574E+03 -0.22721401968E+03  0.48050136743E+03  0.00000000000E+00 0.  1.
</event>
<event>
 5    1  0.8445827E-005  0.4884390E+03  0.7818608E-02  0.9638872E-01
         -4   -1    0    0    0  501 -0.00000000000E+00  0.00000000000E+00  0.99149465177E+03  0.99149465177E+03  0.00000000000E+00 0. -1.
         21   -1    0    0  501  502  0.00000000000E+00 -0.00000000000E+00 -0.53534675236E+03  0.53534675236E+03  0.00000000000E+00 0. -1.
        -13    1    1    2    0    0 -0.19874158842E+03  0.22614969721E+03  0.40273133639E+03  0.50282645613E+03  0.10566000000E+00 0.  1.
         13    1    1    2    0    0  0.21352865907E+03 -0.59199157945E+03 -0.79862960311E+02  0.63437104440E+03  0.10566000000E+00 0. -1.
         -4    1    1    2    0  502 -0.14787070649E+02  0.36584188225E+03  0.13327952334E+03  0.38964390359E+03  0.00000000000E+00 0. -1.
</event>
<event>
 5    1  0.8445827E-005  0.1864486E+03  0.7818608E-02  0.1079516E+00
         -4   -1    0    0    0  501 -0.00000000000E+00  0.00000000000E+00  0.57197353732E+03  0.57197353732E+03  0.00000000000E+00 0. -1.
         21   -1    0    0  501  502  0.00000000000E+00 -0.00000000000E+00 -0.20134938298E+03  0.20134938298E+03  0.00000000000E+00 0. -1.
        -13    1    1    2    0    0  0.96835319454E+02 -0.10345288543E+03 -0.45953561040E+02  0.14896751167E+03  0.10566000000E+00 0.  1.
         13    1    1    2    0    0 -0.26083105901E+03  0.87522428280E+02  0.35345555710E+03  0.44791054777E+03  0.10566000000E+00 0. -1.
         -4    1    1    2    0  502  0.16399573955E+03  0.15930457153E+02  0.63122158268E+02  0.17644486085E+03  0.00000000000E+00 0. -1.
</event>
<event>
 5    1  0.8445827E-005  0.2999458E+03  0.7818608E-02  0.1007328E+00
         21   -1    0    0  501  502  0.00000000000E+00  0.00000000000E+00  0.29932464594E+03  0.29932464594E+03  0.00000000000E+00 0.  1.
         -4   -1    0    0    0  501 -0.00000000000E+00 -0.00000000000E+00 -0.10854491220E+04  0.10854491220E+04  0.00000000000E+00 0. -1.
        -13    1    1    2    0    0  0.22313913905E+03 -0.10946793826E+03 -0.40363822586E+03  0.47402334692E+03  0.10566000000E+00 0.  1.
         13    1    1    2    0    0 -0.30093128268E+03  0.33603773521E+03 -0.47397754234E+03  0.65432080678E+03  0.10566000000E+00 0. -1.
         -4    1    1    2    0  502  0.77792143633E+02 -0.22656979695E+03  0.91491292170E+02  0.25642961421E+03  0.00000000000E+00 0. -1.
</event>
<event>
 5    1  0.8445827E-005  0.4829814E+02  0.7818608E-02  0.1301970E+00
         21   -1    0    0  501  502  0.00000000000E+00  0.00000000000E+00  0.15945243143E+03  0.15945243143E+03  0.00000000000E+00 0.  1.
         -4   -1    0    0    0  501 -0.00000000000E+00 -0.00000000000E+00 -0.53242615130E+02  0.53242615130E+02  0.00000000000E+00 0. -1.
        -13    1    1    2    0    0  0.86000442330E+01 -0.44666768487E+02  0.50714500070E+01  0.45769113352E+02  0.10566000000E+00 0.  1.
         13    1    1    2    0    0 -0.54471787101E+02  0.45478005462E+02  0.20017653459E+02  0.73730198595E+02  0.10566000000E+00 0. -1.
         -4    1    1    2    0  502  0.45871742868E+02 -0.81123697584E+00  0.81120712831E+02  0.93195734609E+02  0.00000000000E+00 0. -1.
</event>
<event>
 5    1  0.8445827E-005  0.5525597E+02  0.7818608E-02  0.1271752E+00
         21   -1    0    0  501  502  0.00000000000E+00  0.00000000000E+00  0.28567325996E+03  0.28567325996E+03  0.00000000000E+00 0.  1.
         -4   -1    0    0    0  501 -0.00000000000E+00 -0.00000000000E+00 -0.44521911281E+02  0.44521911281E+02  0.00000000000E+00 0. -1.
        -13    1    1    2    0    0 -0.27107139219E+00 -0.51440937591E+02  0.18137867932E+03  0.18853243757E+03  0.10566000000E+00 0.  1.
         13    1    1    2    0    0 -0.16171743731E+02  0.53485097162E+02 -0.20635420067E+02  0.59565196542E+02  0.10566000000E+00 0. -1.
         -4    1    1    2    0  502  0.16442815123E+02 -0.20441595707E+01  0.80408089420E+02  0.82097537123E+02  0.00000000000E+00 0. -1.
</event>
<event>
 5    1  0.8445827E-005  0.4482992E+03  0.7818608E-02  0.9946546E-01
         21   -1    0    0  501  502  0.00000000000E+00  0.00000000000E+00  0.12262360054E+04  0.12262360054E+04  0.00000000000E+00 0. -1.
         -4   -1    0    0    0  501 -0.00000000000E+00 -0.00000000000E+00 -0.26568510415E+03  0.26568510415E+03  0.00000000000E+00 0. -1.
        -13    1    1    2    0    0 -0.10638474072E+03 -0.84707168050E+02  0.70491828949E+02  0.15317351758E+03  0.10566000000E+00 0.  1.
         13    1    1    2    0    0  0.78292147232E+02 -0.38791994032E+03  0.84972466219E+02  0.40476149964E+03  0.10566000000E+00 0. -1.
         -4    1    1    2    0  502  0.28092593483E+02  0.47262710837E+03  0.80508660607E+03  0.93398609232E+03  0.00000000000E+00 0. -1.
</event>
<event>
 5    1  0.8445827E-005  0.2440159E+03  0.7818608E-02  0.1033541E+00
          4   -1    0    0  502    0 -0.00000000000E+00  0.00000000000E+00  0.13485639060E+04  0.13485639060E+04  0.00000000000E+00 0.  1.
         21   -1    0    0  501  502  0.00000000000E+00 -0.00000000000E+00 -0.55536662308E+03  0.55536662308E+03  0.00000000000E+00 0.  1.
        -13    1    1    2    0    0  0.35894624925E+03 -0.12918922210E+03 -0.45306064695E+03  0.59228052976E+03  0.10566000000E+00 0.  1.
         13    1    1    2    0    0 -0.23958875003E+03  0.11531951077E+02  0.78838296604E+03  0.82406520819E+03  0.10566000000E+00 0. -1.
          4    1    1    2  501    0 -0.11935749922E+03  0.11765727103E+03  0.45787496385E+03  0.48758479116E+03  0.00000000000E+00 0.  1.
</event>
<event>
 5    1  0.8445827E-005  0.1232919E+03  0.7818608E-02  0.1130906E+00
         21   -1    0    0  501  502  0.00000000000E+00  0.00000000000E+00  0.25086674023E+03  0.25086674023E+03  0.00000000000E+00 0. -1.
         -4   -1    0    0    0  501 -0.00000000000E+00 -0.00000000000E+00 -0.27934206995E+03  0.27934206995E+03  0.00000000000E+00 0. -1.
        -13    1    1    2    0    0  0.79598419236E+02  0.63041984678E+02 -0.55228722734E+02  0.11558729669E+03  0.10566000000E+00 0.  1.
         13    1    1    2    0    0 -0.83611866111E+02 -0.11960862181E+03 -0.16170239662E+03  0.21781837114E+03  0.10566000000E+00 0. -1.
         -4    1    1    2    0  502  0.40134468750E+01  0.56566637136E+02  0.18845578964E+03  0.19680314236E+03  0.00000000000E+00 0. -1.
</event>
<event>
 5    1  0.8445827E-005  0.1161942E+03  0.7818608E-02  0.1140234E+00
         21   -1    0    0  501  502  0.00000000000E+00  0.00000000000E+00  0.16662305363E+04  0.16662305363E+04  0.00000000000E+00 0. -1.
         -4   -1    0    0    0  501 -0.00000000000E+00 -0.00000000000E+00 -0.20447615527E+03  0.20447615527E+03  0.00000000000E+00 0. -1.
        -13    1    1    2    0    0  0.87876927230E+02 -0.37712866383E+02 -0.12021508080E+02  0.96380197399E+02  0.10566000000E+00 0.  1.
         13    1    1    2    0    0 -0.85850673774E+02  0.10685159834E+03 -0.11811199841E+03  0.18093661207E+03  0.10566000000E+00 0. -1.
         -4    1    1    2    0  502 -0.20262534559E+01 -0.69138731953E+02  0.15918878875E+04  0.15933898821E+04  0.00000000000E+00 0. -1.
</event>
<event>
 5    1  0.8445827E-005  0.5690815E+03  0.7818608E-02  0.9338190E-01
          4   -1    0    0  502    0 -0.00000000000E+00  0.00000000000E+00  0.26365921273E+04  0.26365921273E+04  0.00000000000E+00 0.  1.
         21   -1    0    0  501  502  0.00000000000E+00 -0.00000000000E+00 -0.23210467574E+03  0.23210467574E+03  0.00000000000E+00 0. -1.
        -13    1    1    2    0    0  0.14831510921E+03 -0.66040656850E+03  0.18101310682E+04  0.19325394440E+04  0.10566000000E+00 0.  1.
         13    1    1    2    0    0  0.37173482360E+02  0.40491818051E+03  0.31087244038E+03  0.51184205186E+03  0.10566000000E+00 0. -1.
          4    1    1    2  501    0 -0.18548859157E+03  0.25548838799E+03  0.28348394301E+03  0.42431530723E+03  0.00000000000E+00 0.  1.
</event>
<event>
 5    1  0.8445827E-005  0.4345493E+03  0.7818608E-02  0.9787863E-01
         -4   -1    0    0    0  501 -0.00000000000E+00  0.00000000000E+00  0.14680240995E+04  0.14680240995E+04  0.00000000000E+00 0. -1.
         21   -1    0    0  501  502  0.00000000000E+00 -0.00000000000E+00 -0.39353002860E+03  0.39353002860E+03  0.00000000000E+00 0. -1.
        -13    1    1    2    0    0 -0.86870760470E+02  0.23952749369E+03  0.73518691208E+03  0.77808724197E+03  0.10566000000E+00 0.  1.
         13    1    1    2    0    0  0.46776415924E+03 -0.16004479134E+02  0.42660436568E+03  0.63328567646E+03  0.10566000000E+00 0. -1.
         -4    1    1    2    0  502 -0.38089339877E+03 -0.22352301456E+03 -0.87297206806E+02  0.45018120972E+03  0.00000000000E+00 0. -1.
</event>
<event>
 5    1  0.8445827E-005  0.2634299E+03  0.7818608E-02  0.1023659E+00
         21   -1    0    0  501  502  0.00000000000E+00  0.00000000000E+00  0.11171974968E+03  0.11171974968E+03  0.00000000000E+00 0. -1.
          4   -1    0    0  502    0 -0.00000000000E+00 -0.00000000000E+00 -0.82238513905E+03  0.82238513905E+03  0.00000000000E+00 0.  1.
        -13    1    1    2    0    0  0.38923655001E+02 -0.26753170242E+03 -0.32083377777E+03  0.41955045804E+03  0.10566000000E+00 0.  1.
         13    1    1    2    0    0 -0.54982390937E+01  0.25890691991E+03 -0.40179573408E+03  0.47801971393E+03  0.10566000000E+00 0. -1.
          4    1    1    2  501    0 -0.33425415907E+02  0.86247825164E+01  0.11964122478E+02  0.36534716759E+02  0.00000000000E+00 0.  1.
</event>
<event>
 5    1  0.8445827E-005  0.2492855E+02  0.7818608E-02  0.1450970E+00
         -4   -1    0    0    0  501 -0.00000000000E+00  0.00000000000E+00  0.88816620194E+01  0.88816620194E+01  0.00000000000E+00 0. -1.
         21   -1    0    0  501  502  0.00000000000E+00 -0.00000000000E+00 -0.12720021591E+03  0.12720021591E+03  0.00000000000E+00 0. -1.
        -13    1    1    2    0    0  0.19748356144E+02  0.83467147405E+01 -0.26357164862E+02  0.33976116920E+02  0.10566000000E+00 0.  1.
         13    1    1    2    0    0 -0.30093955601E+02 -0.94268204622E+01 -0.52023988417E+02  0.60835989698E+02  0.10566000000E+00 0. -1.
         -4    1    1    2    0  502  0.10345599456E+02  0.10801057218E+01 -0.39937400614E+02  0.41269771314E+02  0.00000000000E+00 0. -1.
</event>
<event>
 5    1  0.8445827E-005  0.2876110E+03  0.7818608E-02  0.1061551E+00
         21   -1    0    0  501  502  0.00000000000E+00  0.00000000000E+00  0.15277638298E+04  0.15277638298E+04  0.00000000000E+00 0.  1.
          4   -1    0    0  502    0 -0.00000000000E+00 -0.00000000000E+00 -0.91731183460E+02  0.91731183460E+02  0.00000000000E+00 0.  1.
        -13    1    1    2    0    0  0.29864119259E+03  0.13952642382E+03  0.46434504566E+03  0.56944755461E+03  0.10566000000E+00 0.  1.
         13    1    1    2    0    0 -0.64535626993E+02  0.21235762417E-01  0.32779847918E+02  0.72383542300E+02  0.10566000000E+00 0. -1.
          4    1    1    2  501    0 -0.23410556560E+03 -0.13954765958E+03  0.93890775280E+03  0.97766391639E+03  0.00000000000E+00 0.  1.
</event>
<event>
 5    1  0.8445827E-005  0.3362825E+03  0.7818608E-02  0.9933632E-01
         -4   -1    0    0    0  501 -0.00000000000E+00  0.00000000000E+00  0.24034634429E+03  0.24034634429E+03  0.00000000000E+00 0. -1.
         21   -1    0    0  501  502  0.00000000000E+00 -0.00000000000E+00 -0.19877492869E+04  0.19877492869E+04  0.00000000000E+00 0. -1.
        -13    1    1    2    0    0  0.75343234878E+02 -0.32102039299E+03 -0.71071500848E+02  0.33731567582E+03  0.10566000000E+00 0.  1.
         13    1    1    2    0    0 -0.30729153813E+03  0.31736258505E+03 -0.15782707791E+04  0.16389282361E+04  0.10566000000E+00 0. -1.
         -4    1    1    2    0  502  0.23194830325E+03  0.36578079363E+01 -0.98060662683E+02  0.25185171929E+03  0.00000000000E+00 0. -1.
</event>
<event>
 5    1  0.8445827E-005  0.4989400E+03  0.7818608E-02  0.9788151E-01
         21   -1    0    0  501  502  0.00000000000E+00  0.00000000000E+00  0.18885192201E+03  0.18885192201E+03  0.00000000000E+00 0.  1.
          4   -1    0    0  502    0 -0.00000000000E+00 -0.00000000000E+00 -0.21123203750E+04  0.21123203750E+04  0.00000000000E+00 0.  1.
        -13    1    1    2    0    0 -0.17010672838E+02  0.46076887166E+03 -0.73926740043E+03  0.87127126464E+03  0.10566000000E+00 0.  1.
         13    1    1    2    0    0  0.15709628907E+03  0.60000026470E+02 -0.64781813217E+03  0.66928886943E+03  0.10566000000E+00 0. -1.
          4    1    1    2  501    0 -0.14008561623E+03 -0.52076889813E+03 -0.53638292043E+03  0.76061216297E+03  0.00000000000E+00 0.  1.
</event>
<event>
 5    1  0.8445827E-005  0.4713061E+03  0.7818608E-02  0.9657167E-01
         -4   -1    0    0    0  501 -0.00000000000E+00  0.00000000000E+00  0.11171957032E+04  0.11171957032E+04  0.00000000000E+00 0. -1.
         21   -1    0    0  501  502  0.00000000000E+00 -0.00000000000E+00 -0.50817702843E+03  0.50817702843E+03  0.00000000000E+00 0. -1.
        -13    1    1    2    0    0 -0.29774810333E+03  0.10034492494E+03  0.53517086227E+03  0.62058915555E+03  0.10566000000E+00 0.  1.
         13    1    1    2    0    0 -0.33533086706E+03 -0.12672212463E+03  0.94832654552E+02  0.37080794329E+03  0.10566000000E+00 0. -1.
         -4    1    1    2    0  502  0.63307897040E+03  0.26377199696E+02 -0.20984842017E+02  0.63397563282E+03  0.00000000000E+00 0. -1.
</event>
<event>
 5    1  0.8445827E-005  0.1916209E+03  0.7818608E-02  0.1066037E+00
          4   -1    0    0  502    0 -0.00000000000E+00  0.00000000000E+00  0.23781847163E+04  0.23781847163E+04  0.00000000000E+00 0.  1.
         21   -1    0    0  501  502  0.00000000000E+00 -0.00000000000E+00 -0.35912950759E+02  0.35912950759E+02  0.00000000000E+00 0. -1.
        -13    1    1    2    0    0 -0.92818647717E+01  0.16768600784E+03  0.47637580093E+03  0.50511252718E+03  0.10566000000E+00 0.  1.
         13    1    1    2    0    0  0.82915203341E+02 -0.21477798094E+03  0.64307880520E+03  0.68304822150E+03  0.10566000000E+00 0. -1.
          4    1    1    2  501    0 -0.73633338569E+02  0.47091973096E+02  0.12228171594E+04  0.12259369183E+04  0.00000000000E+00 0.  1.
</event>
<event>
 5    1  0.8445827E-005  0.4959258E+03  0.7818608E-02  0.9667208E-01
          4   -1    0    0  502    0 -0.00000000000E+00  0.00000000000E+00  0.14589949183E+04  0.14589949183E+04  0.00000000000E+00 0.  1.
         21   -1    0    0  501  502  0.00000000000E+00 -0.00000000000E+00 -0.78657149765E+03  0.78657149765E+03  0.00000000000E+00 0.  1.
        -13    1    1    2    0    0  0.46100946826E+03  0.39331337130E+03 -0.32886444561E+03  0.68947586805E+03  0.10566000000E+00 0.  1.
         13    1    1    2    0    0 -0.25793667269E+03 -0.35373503410E+02  0.11020631416E+04  0.11323982475E+04  0.10566000000E+00 0. -1.
          4    1    1    2  501    0 -0.20307279557E+03 -0.35793986789E+03 -0.10077527526E+03  0.42369230041E+03  0.00000000000E+00 0.  1.
</event>
<event>
 5    1  0.8445827E-005  0.4582834E+03  0.7818608E-02  0.9667155E-01
         -4   -1    0    0    0  501 -0.00000000000E+00  0.00000000000E+00  0.93745057757E+03  0.93745057757E+03  0.00000000000E+00 0. -1.
         21   -1    0    0  501  502  0.00000000000E+00 -0.00000000000E+00 -0.54756855822E+03  0.54756855822E+03  0.00000000000E+00 0. -1.
        -13    1    1    2    0    0 -0.30235495309E+03  0.13217037705E+03  0.26801592063E+03  0.42511183365E+03  0.10566000000E+00 0.  1.
         13    1    1    2    0    0 -0.24157218407E+03 -0.24083532261E+02  0.37784690829E+03  0.44911628106E+03  0.10566000000E+00 0. -1.
         -4    1    1    2    0  502  0.54392713716E+03 -0.10808684479E+03 -0.25598080958E+03  0.61079102108E+03  0.00000000000E+00 0. -1.
</event>
<event>
 5    1  0.8445827E-005  0.2934842E+03  0.7818608E-02  0.1046204E+00
         -4   -1    0    0    0  501 -0.00000000000E+00  0.00000000000E+00  0.11199945914E+04  0.11199945914E+04  0.00000000000E+00 0. -1.
         21   -1    0    0  501  502  0.00000000000E+00 -0.00000000000E+00 -0.22837257295E+03  0.22837257295E+03  0.00000000000E+00 0. -1.
        -13    1    1    2    0    0 -0.74120599503E+02  0.60298542564E+02  0.23721503028E+02  0.98450486926E+02  0.10566000000E+00 0.  1.
         13    1    1    2    0    0 -0.82995340497E+01 -0.30036927444E+03 -0.43694062618E+02  0.30364414298E+03  0.10566000000E+00 0. -1.
         -4    1    1    2    0  502  0.82420133552E+02  0.24007073188E+03  0.91159457805E+03  0.94627253445E+03  0.00000000000E+00 0. -1.
</event>
<event>
 5    1  0.8445827E-005  0.4354586E+03  0.7818608E-02  0.9631898E-01
          4   -1    0    0  502    0 -0.00000000000E+00  0.00000000000E+00  0.20789428859E+04  0.20789428859E+04  0.00000000000E+00 0.  1.
         21   -1    0    0  501  502  0.00000000000E+00 -0.00000000000E+00 -0.28916238560E+03  0.28916238560E+03  0.00000000000E+00 0.  1.
        -13    1    1    2    0    0  0.23949866257E+03 -0.39931282101E+03  0.17340362474E+02  0.46595175472E+03  0.10566000000E+00 0.  1.
         13    1    1    2    0    0 -0.13114744930E+03  0.40921887507E+03  0.68061286160E+03  0.80491839320E+03  0.10566000000E+00 0. -1.
          4    1    1    2  501    0 -0.10835121327E+03 -0.99060540635E+01  0.10918272762E+04  0.10972351236E+04  0.00000000000E+00 0.  1.
</event>
<event>
 5    1  0.8445827E-005  0.3565419E+03  0.7818608E-02  0.9863704E-01
         -4   -1    0    0    0  501 -0.00000000000E+00  0.00000000000E+00  0.36317396689E+03  0.36317396689E+03  0.00000000000E+00 0. -1.
         21   -1    0    0  501  502  0.00000000000E+00 -0.00000000000E+00 -0.73837109612E+03  0.73837109612E+03  0.00000000000E+00 0.  1.
        -13    1    1    2    0    0 -0.32261686364E+03 -0.15896713763E+03  0.19422035643E+03  0.40874655909E+03  0.10566000000E+00 0.  1.
         13    1    1    2    0    0  0.29647773834E+03  0.17253756090E+03 -0.42877303286E+03  0.54910343663E+03  0.10566000000E+00 0. -1.
         -4    1    1    2    0  502  0.26139125303E+02 -0.13570423273E+02 -0.14064445280E+03  0.14369506729E+03  0.00000000000E+00 0. -1.
</event>
<event>
 5    1  0.8445827E-005  0.4626994E+03  0.7818608E-02  0.9774144E-01
          4   -1    0    0  502    0 -0.00000000000E+00  0.00000000000E+00  0.25114284865E+04  0.25114284865E+04  0.00000000000E+00 0.  1.
         21   -1    0    0  501  502  0.00000000000E+00 -0.00000000000E+00 -0.17292663458E+03  0.17292663458E+03  0.00000000000E+00 0.  1.
        -13    1    1    2    0    0  0.36925044206E+03  0.42822447541E+03  0.11238679299E+04  0.12580942832E+04  0.10566000000E+00 0.  1.
         13    1    1    2    0    0  0.61319268349E+01 -0.22113687272E+03  0.79931369856E+03  0.82936211444E+03  0.10566000000E+00 0. -1.
          4    1    1    2  501    0 -0.37538236890E+03 -0.20708760269E+03  0.41532022340E+03  0.59689872343E+03  0.00000000000E+00 0.  1.
</event>
<event>
 5    1  0.8445827E-005  0.4040904E+03  0.7818608E-02  0.9894527E-01
         21   -1    0    0  501  502  0.00000000000E+00  0.00000000000E+00  0.68626719932E+03  0.68626719932E+03  0.00000000000E+00 0. -1.
         -4   -1    0    0    0  501 -0.00000000000E+00 -0.00000000000E+00 -0.90293116794E+03  0.90293116794E+03  0.00000000000E+00 0. -1.
        -13    1    1    2    0    0 -0.65792575042E+02 -0.21078855377E+03 -0.48266716380E+03  0.53078063219E+03  0.10566000000E+00 0.  1.
         13    1    1    2    0    0  0.45636430204E+03  0.17026129713E+03 -0.12646696002E+03  0.50324068657E+03  0.10566000000E+00 0. -1.
         -4    1    1    2    0  502 -0.39057172700E+03  0.40527256642E+02  0.39247015520E+03  0.55517704850E+03  0.00000000000E+00 0. -1.
</event>
<event>
 5    1  0.8445827E-005  0.4696202E+03  0.7818608E-02  0.1022173E+00
         -4   -1    0    0    0  501 -0.00000000000E+00  0.00000000000E+00  0.82116510795E+03  0.82116510795E+03  0.00000000000E+00 0. -1.
         21   -1    0    0  501  502  0.00000000000E+00 -0.00000000000E+00 -0.33230175843E+03  0.33230175843E+03  0.00000000000E+00 0. -1.
        -13    1    1    2    0    0 -0.33937520028E+00 -0.48711111312E+02  0.14278554178E+03  0.15086619783E+03  0.10566000000E+00 0.  1.
         13    1    1    2    0    0  0.13007036244E+03 -0.42616837212E+03  0.20521981572E+03  0.49056392500E+03  0.10566000000E+00 0. -1.
         -4    1    1    2    0  502 -0.12973098724E+03  0.47487948343E+03  0.14085799202E+03  0.51203674355E+03  0.00000000000E+00 0. -1.
</event>
<event>
 5    1  0.8445827E-005  0.1069147E+03  0.7818608E-02  0.1153596E+00
         -4   -1    0    0    0  501 -0.00000000000E+00  0.00000000000E+00  0.67293482227E+02  0.67293482227E+02  0.00000000000E+00 0. -1.
         21   -1    0    0  501  502  0.00000000000E+00 -0.00000000000E+00 -0.13339436643E+04  0.13339436643E+04  0.00000000000E+00 0. -1.
        -13    1    1    2    0    0 -0.79037919667E+01 -0.85633960018E+02 -0.12372866329E+03  0.15067992010E+03  0.10566000000E+00 0.  1.
         13    1    1    2    0    0  0.72487531625E+02  0.98702330589E+02 -0.18080825263E+02  0.12378820506E+03  0.10566000000E+00 0. -1.
         -4    1    1    2    0  502 -0.64583739658E+02 -0.13068370571E+02 -0.11248406935E+04  0.11267690213E+04  0.00000000000E+00 0. -1.
</event>
<event>
 5    1  0.8445827E-005  0.4643428E+03  0.7818608E-02  0.9559748E-01
         21   -1    0    0  501  502  0.00000000000E+00  0.00000000000E+00  0.60583528191E+03  0.60583528191E+03  0.00000000000E+00 0.  1.
          4   -1    0    0  502    0 -0.00000000000E+00 -0.00000000000E+00 -0.11466951731E+04  0.11466951731E+04  0.00000000000E+00 0.  1.
        -13    1    1    2    0    0  0.46505204822E+03 -0.22399358610E+03 -0.42485204529E+03  0.66854005543E+03  0.10566000000E+00 0.  1.
         13    1    1    2    0    0 -0.46238753110E+03 -0.19818034416E+03 -0.33890863870E+03  0.60657790454E+03  0.10566000000E+00 0. -1.
          4    1    1    2  501    0 -0.26645171224E+01  0.42217393026E+03  0.22290079276E+03  0.47741249507E+03  0.00000000000E+00 0.  1.
</event>
<event>
 5    1  0.8445827E-005  0.1075794E+03  0.7818608E-02  0.1152590E+00
         21   -1    0    0  501  502  0.00000000000E+00  0.00000000000E+00  0.38601602612E+03  0.38601602612E+03  0.00000000000E+00 0.  1.
          4   -1    0    0  502    0 -0.00000000000E+00 -0.00000000000E+00 -0.24100050923E+03  0.24100050923E+03  0.00000000000E+00 0.  1.
        -13    1    1    2    0    0  0.37663957377E+02  0.10179371366E+03 -0.19389740992E+03  0.22220879947E+03  0.10566000000E+00 0.  1.
         13    1    1    2    0    0 -0.52550663814E+02 -0.89094137604E+02  0.49389904263E+02  0.11462421834E+03  0.10566000000E+00 0. -1.
          4    1    1    2  501    0  0.14886706437E+02 -0.12699576061E+02  0.28952302255E+03  0.29018351753E+03  0.00000000000E+00 0.  1.
</event>
<event>
 5    1  0.8445827E-005  0.2320745E+02  0.7818608E-02  0.1500637E+00
         21   -1    0    0  501  502  0.00000000000E+00  0.00000000000E+00  0.32369923094E+02  0.32369923094E+02  0.00000000000E+00 0.  1.
          4   -1    0    0  502    0 -0.00000000000E+00 -0.00000000000E+00 -0.69188793742E+02  0.69188793742E+02  0.00000000000E+00 0.  1.
        -13    1    1    2    0    0 -0.19199516087E+02 -0.10596408727E+02  0.17176560442E+02  0.27855891451E+02  0.10566000000E+00 0.  1.
         13    1    1    2    0    0 -0.13404526250E+02  0.58533623606E+01 -0.28531018567E+02  0.32062023633E+02  0.10566000000E+00 0. -1.
          4    1    1    2  501    0  0.32604042336E+02  0.47430463665E+01 -0.25464412523E+02  0.41640801753E+02  0.00000000000E+00 0.  1.
</event>
<event>
 5    1  0.8445827E-005  0.3348912E+03  0.7818608E-02  0.9938626E-01
         21   -1    0    0  501  502  0.00000000000E+00  0.00000000000E+00  0.47818729818E+02  0.47818729818E+02  0.00000000000E+00 0. -1.
         -4   -1    0    0    0  501 -0.00000000000E+00 -0.00000000000E+00 -0.33667226772E+04  0.33667226772E+04  0.00000000000E+00 0. -1.
        -13    1    1    2    0    0  0.28544274765E+03 -0.18547704109E+03 -0.16289593587E+04  0.16641477995E+04  0.10566000000E+00 0.  1.
         13    1    1    2    0    0 -0.24287849745E+03  0.22657334671E+03 -0.16389975761E+04  0.16723153147E+04  0.10566000000E+00 0. -1.
         -4    1    1    2    0  502 -0.42564250202E+02 -0.41096305622E+02 -0.50947012511E+02  0.78078292853E+02  0.00000000000E+00 0. -1.
</event>
<event>
 5    1  0.8445827E-005  0.5044959E+03  0.7818608E-02  0.9589470E-01
         21   -1    0    0  501  502  0.00000000000E+00  0.00000000000E+00  0.48893410020E+03  0.48893410020E+03  0.00000000000E+00 0. -1.
         -4   -1    0    0    0  501 -0.00000000000E+00 -0.00000000000E+00 -0.99883373336E+03  0.99883373336E+03  0.00000000000E+00 0. -1.
        -13    1    1    2    0    0 -0.32554561180E+03 -0.14157048420E+01 -0.14320761465E+03  0.35565486309E+03  0.10566000000E+00 0.  1.
         13    1    1    2    0    0 -0.23877169504E+03 -0.26971984804E+03 -0.35525933955E+03  0.50593470752E+03  0.10566000000E+00 0. -1.
         -4    1    1    2    0  502  0.56431730684E+03  0.27113555289E+03 -0.11432678967E+02  0.62617826294E+03  0.00000000000E+00 0. -1.
</event>
<event>
 5    1  0.8445827E-005  0.2891881E+03  0.7818608E-02  0.1011871E+00
          4   -1    0    0  502    0 -0.00000000000E+00  0.00000000000E+00  0.19373931198E+04  0.19373931198E+04  0.00000000000E+00 0.  1.
         21   -1    0    0  501  502  0.00000000000E+00 -0.00000000000E+00 -0.78163739429E+02  0.78163739429E+02  0.00000000000E+00 0. -1.
        -13    1    1    2    0    0 -0.24935801157E+03 -0.16133610907E+03  0.14669799249E+04  0.14967427532E+04  0.10566000000E+00 0.  1.
         13    1    1    2    0    0  0.21806835285E+03  0.15609470563E+03  0.40406324914E+03  0.48496029127E+03  0.10566000000E+00 0. -1.
          4    1    1    2  501    0  0.31289658719E+02  0.52414034423E+01 -0.11813793672E+02  0.33853814759E+02  0.00000000000E+00 0.  1.
</event>
<event>
 5    1  0.8445827E-005  0.5417710E+03  0.7818608E-02  0.9449462E-01
          4   -1    0    0  502    0 -0.00000000000E+00  0.00000000000E+00  0.12748116243E+04  0.12748116243E+04  0.00000000000E+00 0.  1.
         21   -1    0    0  501  502  0.00000000000E+00 -0.00000000000E+00 -0.77013684099E+03  0.77013684099E+03  0.00000000000E+00 0.  1.
        -13    1    1    2    0    0 -0.28153200605E+03  0.19357443427E+03  0.37070771198E+01  0.34167979984E+03  0.10566000000E+00 0.  1.
         13    1    1    2    0    0 -0.13640581391E+03  0.58811870527E+03  0.54836716185E+03  0.81559592503E+03  0.10566000000E+00 0. -1.
          4    1    1    2  501    0  0.41793781997E+03 -0.78169313954E+03 -0.47399455621E+02  0.88767274046E+03  0.00000000000E+00 0.  1.
</event>
<event>
 5    1  0.8445827E-005  0.4466155E+03  0.7818608E-02  0.9652983E-01
         21   -1    0    0  501  502  0.00000000000E+00  0.00000000000E+00  0.14277026049E+04  0.14277026049E+04  0.00000000000E+00 0.  1.
         -4   -1    0    0    0  501 -0.00000000000E+00 -0.00000000000E+00 -0.44745719934E+03  0.44745719934E+03  0.00000000000E+00 0. -1.
        -13    1    1    2    0    0 -0.18026231198E+03 -0.32851096003E+03 -0.62225390395E+02  0.37984992083E+03  0.10566000000E+00 0.  1.
         13    1    1    2    0    0  0.52894591645E+03  0.35945736720E+02  0.26095575779E+03  0.59090929694E+03  0.10566000000E+00 0. -1.
         -4    1    1    2    0  502 -0.34868360447E+03  0.29256522331E+03  0.78151503814E+03  0.90440058644E+03  0.00000000000E+00 0. -1.
</event>
<event>
 5    1  0.8445827E-005  0.8961248E+03  0.7818608E-02  0.8878836E-01
         21   -1    0    0  501  502  0.00000000000E+00  0.00000000000E+00  0.40747648137E+03  0.40747648137E+03  0.00000000000E+00 0.  1.
         -4   -1    0    0    0  501 -0.00000000000E+00 -0.00000000000E+00 -0.34422210811E+04  0.34422210811E+04  0.00000000000E+00 0. -1.
        -13    1    1    2    0    0 -0.98741829311E+02 -0.88913756030E+03 -0.18027127402E+04  0.20124832384E+04  0.10566000000E+00 0.  1.
         13    1    1    2    0    0  0.48987243228E+03  0.81902224226E+03 -0.97284608062E+03  0.13627919654E+04  0.10566000000E+00 0. -1.
         -4    1    1    2    0  502 -0.39113060297E+03  0.70115318040E+02 -0.25918577888E+03  0.47442235864E+03  0.00000000000E+00 0. -1.
</event>
<event>
 5    1  0.8445827E-005  0.4058467E+03  0.7818608E-02  0.9712311E-01
         21   -1    0    0  501  502  0.00000000000E+00  0.00000000000E+00  0.30840478476E+03  0.30840478476E+03  0.00000000000E+00 0.  1.
          4   -1    0    0  502    0 -0.00000000000E+00 -0.00000000000E+00 -0.19395329378E+04  0.19395329378E+04  0.00000000000E+00 0.  1.
        -13    1    1    2    0    0  0.14877602730E+03 -0.52910527871E+03 -0.88340284073E+03  0.10404264955E+04  0.10566000000E+00 0.  1.
         13    1    1    2    0    0 -0.44638225029E+02  0.34443418884E+03 -0.88785956130E+03  0.95337405741E+03  0.10566000000E+00 0. -1.
          4    1    1    2  501    0 -0.10413780227E+03  0.18467108987E+03  0.14013424898E+03  0.25413716972E+03  0.00000000000E+00 0.  1.
</event>
<event>
 5    1  0.8445827E-005  0.4886019E+03  0.7818608E-02  0.9638648E-01
         -4   -1    0    0    0  501 -0.00000000000E+00  0.00000000000E+00  0.21047381014E+04  0.21047381014E+04  0.00000000000E+00 0. -1.
         21   -1    0    0  501  502  0.00000000000E+00 -0.00000000000E+00 -0.29050815300E+03  0.29050815300E+03  0.00000000000E+00 0. -1.
        -13    1    1    2    0    0 -0.10859054407E+03 -0.28073432615E+03  0.10626410859E+04  0.11044499793E+04  0.10566000000E+00 0.  1.
         13    1    1    2    0    0  0.30328922201E+03  0.60102366148E+03  0.45080248073E+03  0.81020780152E+03  0.10566000000E+00 0. -1.
         -4    1    1    2    0  502 -0.19469867794E+03 -0.32028933533E+03  0.30078638181E+03  0.48058847364E+03  0.00000000000E+00 0. -1.
</event>
<event>
 5    1  0.8445827E-005  0.5312540E+03  0.7818608E-02  0.9456170E-01
         21   -1    0    0  501  502  0.00000000000E+00  0.00000000000E+00  0.98826370599E+03  0.98826370599E+03  0.00000000000E+00 0. -1.
          4   -1    0    0  502    0 -0.00000000000E+00 -0.00000000000E+00 -0.75620819797E+03  0.75620819797E+03  0.00000000000E+00 0.  1.
        -13    1    1    2    0    0 -0.10527400007E+03  0.22518906615E+03 -0.23334554405E+03  0.34094410788E+03  0.10566000000E+00 0.  1.
         13    1    1    2    0    0  0.28651043810E+03  0.50003105900E+03  0.18784634103E+03  0.60613987668E+03  0.10566000000E+00 0. -1.
          4    1    1    2  501    0 -0.18123643802E+03 -0.72522012514E+03  0.27755471104E+03  0.79738791940E+03  0.00000000000E+00 0.  1.
</event>
<event>
 5    1  0.8445827E-005  0.3414375E+03  0.7818608E-02  0.1042084E+00
         21   -1    0    0  501  502  0.00000000000E+00  0.00000000000E+00  0.10884107104E+03  0.10884107104E+03  0.00000000000E+00 0.  1.
          4   -1    0    0  502    0 -0.00000000000E+00 -0.00000000000E+00 -0.15489316436E+04  0.15489316436E+04  0.00000000000E+00 0.  1.
        -13    1    1    2    0    0  0.26762990750E+03  0.21605054836E+03 -0.98177355908E+03  0.10402802215E+04  0.10566000000E+00 0.  1.
         13    1    1    2    0    0 -0.49322140982E+02  0.47798245531E+02 -0.52236724096E+02  0.86290395614E+02  0.10566000000E+00 0. -1.
          4    1    1    2  501    0 -0.21830776651E+03 -0.26384879389E+03 -0.40608028937E+03  0.53120209748E+03  0.00000000000E+00 0.  1.
</event>
<event>
 5    1  0.8445827E-005  0.6843461E+02  0.7818608E-02  0.1230896E+00
          4   -1    0    0  502    0 -0.00000000000E+00  0.00000000000E+00  0.47515325829E+03  0.47515325829E+03  0.00000000000E+00 0.  1.
         21   -1    0    0  501  502  0.00000000000E+00 -0.00000000000E+00 -0.29119766470E+02  0.29119766470E+02  0.00000000000E+00 0. -1.
        -13    1    1    2    0    0 -0.62221526616E+02  0.82952088941E+01  0.95299239104E+02  0.11411522687E+03  0.10566000000E+00 0.  1.
         13    1    1    2    0    0  0.67087742757E+02 -0.22663635166E+02  0.36349874787E+03  0.37033195441E+03  0.10566000000E+00 0. -1.
          4    1    1    2  501    0 -0.48662161414E+01  0.14368426272E+02 -0.12764495160E+02  0.19825843481E+02  0.00000000000E+00 0.  1.
</event>
<event>
 5    1  0.8445827E-005  0.4481979E+03  0.7818608E-02  0.9840119E-01
         21   -1    0    0  501  502  0.00000000000E+00  0.00000000000E+00  0.42204679422E+03  0.42204679422E+03  0.00000000000E+00 0. -1.
         -4   -1    0    0    0  501 -0.00000000000E+00 -0.00000000000E+00 -0.96455724864E+03  0.96455724864E+03  0.00000000000E+00 0. -1.
        -13    1    1    2    0    0 -0.13525400367E+03 -0.13959695104E+03 -0.39242830394E+03  0.43792800681E+03  0.10566000000E+00 0.  1.
         13    1    1    2    0    0 -0.33208687993E+03  0.25660405494E+03 -0.19893869108E+03  0.46443939411E+03  0.10566000000E+00 0. -1.
         -4    1    1    2    0  502  0.46734088359E+03 -0.11700710391E+03  0.48856540609E+02  0.48423664195E+03  0.00000000000E+00 0. -1.
</event>
<event>
 5    1  0.8445827E-005  0.4700769E+02  0.7818608E-02  0.1328664E+00
         21   -1    0    0  501  502  0.00000000000E+00  0.00000000000E+00  0.74252823033E+02  0.74252823033E+02  0.00000000000E+00 0. -1.
          4   -1    0    0  502    0 -0.00000000000E+00 -0.00000000000E+00 -0.17444107172E+03  0.17444107172E+03  0.00000000000E+00 0.  1.
        -13    1    1    2    0    0 -0.46094733881E+01  0.29490557094E+02 -0.13010518997E+03  0.13348524946E+03  0.10566000000E+00 0.  1.
         13    1    1    2    0    0 -0.42305065562E+02 -0.32448472327E+02  0.40584811466E+02  0.67005671508E+02  0.10566000000E+00 0. -1.
          4    1    1    2  501    0  0.46914538950E+02  0.29579152325E+01 -0.10667870184E+02  0.48202973784E+02  0.00000000000E+00 0.  1.
</event>
<event>
 5    1  0.8445827E-005  0.4719615E+03  0.7818608E-02  0.9704963E-01
         21   -1    0    0  501  502  0.00000000000E+00  0.00000000000E+00  0.12746740148E+04  0.12746740148E+04  0.00000000000E+00 0. -1.
         -4   -1    0    0    0  501 -0.00000000000E+00 -0.00000000000E+00 -0.39652438359E+03  0.39652438359E+03  0.00000000000E+00 0. -1.
        -13    1    1    2    0    0  0.25973635650E+03 -0.51238770375E+02 -0.82415060142E+02  0.27727358291E+03  0.10566000000E+00 0.  1.
         13    1    1    2    0    0  0.14712892336E+03  0.38838971514E+03  0.18310273592E+03  0.45389438638E+03  0.10566000000E+00 0. -1.
         -4    1    1    2    0  502 -0.40686527986E+03 -0.33715094477E+03  0.77746195548E+03  0.94003042915E+03  0.00000000000E+00 0. -1.
</event>
<event>
 5    1  0.8445827E-005  0.6232085E+03  0.7818608E-02  0.9242503E-01
         21   -1    0    0  501  502  0.00000000000E+00  0.00000000000E+00  0.59645631260E+03  0.59645631260E+03  0.00000000000E+00 0. -1.
         -4   -1    0    0    0  501 -0.00000000000E+00 -0.00000000000E+00 -0.24082413527E+04  0.24082413527E+04  0.00000000000E+00 0. -1.
        -13    1    1    2    0    0  0.21286012284E+03 -0.62719255817E+03 -0.16895961546E+04  0.18147768771E+04  0.10566000000E+00 0.  1.
         13    1    1    2    0    0 -0.50841571473E+03  0.20698204026E+03  0.19916990921E+03  0.58394928536E+03  0.10566000000E+00 0. -1.
         -4    1    1    2    0  502  0.29555559189E+03  0.42021051792E+03 -0.32135879466E+03  0.60597150277E+03  0.00000000000E+00 0. -1.
</event>
<event>
 5    1  0.8445827E-005  0.4048812E+03  0.7818608E-02  0.1007453E+00
         -4   -1    0    0    0  501 -0.00000000000E+00  0.00000000000E+00  0.13108945645E+04  0.13108945645E+04  0.00000000000E+00 0. -1.
         21   -1    0    0  501  502  0.00000000000E+00 -0.00000000000E+00 -0.24987014473E+03  0.24987014473E+03  0.00000000000E+00 0. -1.
        -13    1    1    2    0    0  0.60355137283E+02  0.10540522993E+03  0.18512218484E+03  0.22141192284E+03  0.10566000000E+00 0.  1.
         13    1    1    2    0    0 -0.37450636345E+03  0.15556158059E+03  0.83579629584E+03  0.92898325116E+03  0.10566000000E+00 0. -1.
         -4    1    1    2    0  502  0.31415122617E+03 -0.26096681051E+03  0.40105939087E+02  0.41036953523E+03  0.00000000000E+00 0. -1.
</event>
<event>
 5    1  0.8445827E-005  0.1148030E+03  0.7818608E-02  0.1142148E+00
         21   -1    0    0  501  502  0.00000000000E+00  0.00000000000E+00  0.19558500983E+02  0.19558500983E+02  0.00000000000E+00 0.  1.
         -4   -1    0    0    0  501 -0.00000000000E+00 -0.00000000000E+00 -0.96338623805E+03  0.96338623805E+03  0.00000000000E+00 0. -1.
        -13    1    1    2    0    0 -0.18483441437E+02 -0.12138438687E+03 -0.27481732751E+03  0.30099897283E+03  0.10566000000E+00 0.  1.
         13    1    1    2    0    0  0.15123178798E+02  0.11087814971E+03 -0.65290209371E+03  0.66242269720E+03  0.10566000000E+00 0. -1.
         -4    1    1    2    0  502  0.33602626394E+01  0.10506237150E+02 -0.16108315844E+02  0.19523069005E+02  0.00000000000E+00 0. -1.
</event>
<event>
 5    1  0.8445827E-005  0.3370039E+03  0.7818608E-02  0.1014292E+00
          4   -1    0    0  502    0 -0.00000000000E+00  0.00000000000E+00  0.11354547094E+04  0.11354547094E+04  0.00000000000E+00 0.  1.
         21   -1    0    0  501  502  0.00000000000E+00 -0.00000000000E+00 -0.42466296598E+03  0.42466296598E+03  0.00000000000E+00 0.  1.
        -13    1    1    2    0    0 -0.43506854084E+03  0.15823273629E+03  0.89933448417E+03  0.10114962974E+04  0.10566000000E+00 0.  1.
         13    1    1    2    0    0  0.11732411708E+03 -0.12181909013E+03 -0.15076805982E+03  0.22657417812E+03  0.10566000000E+00 0. -1.
          4    1    1    2  501    0  0.31774442376E+03 -0.36413646167E+02 -0.37774680885E+02  0.32204719992E+03  0.00000000000E+00 0.  1.
</event>
<event>
 5    1  0.8445827E-005  0.4238152E+03  0.7818608E-02  0.1001517E+00
          4   -1    0    0  502    0 -0.00000000000E+00  0.00000000000E+00  0.13230084885E+04  0.13230084885E+04  0.00000000000E+00 0.  1.
         21   -1    0    0  501  502  0.00000000000E+00 -0.00000000000E+00 -0.37962609003E+03  0.37962609003E+03  0.00000000000E+00 0.  1.
        -13    1    1    2    0    0 -0.32547158213E+03 -0.45085694528E+02  0.97673228593E+03  0.10305195001E+04  0.10566000000E+00 0.  1.
         13    1    1    2    0    0 -0.12627759404E+03  0.23341606044E+02 -0.15739958401E+03  0.20313911868E+03  0.10566000000E+00 0. -1.
          4    1    1    2  501    0  0.45174917617E+03  0.21744088484E+02  0.12404969651E+03  0.46897595968E+03  0.00000000000E+00 0.  1.
</event>
<event>
 5    1  0.8445827E-005  0.5014640E+03  0.7818608E-02  0.1012156E+00
         21   -1    0    0  501  502  0.00000000000E+00  0.00000000000E+00  0.18673285065E+04  0.18673285065E+04  0.00000000000E+00 0.  1.
          4   -1    0    0  502    0 -0.00000000000E+00 -0.00000000000E+00 -0.43228375226E+03  0.43228375226E+03  0.00000000000E+00 0.  1.
        -13    1    1    2    0    0  0.34189394178E+03 -0.34167139605E+03  0.79593466851E+03  0.93120503542E+03  0.10566000000E+00 0.  1.
         13    1    1    2    0    0  0.54749269001E+02  0.48011517608E+01 -0.29448667075E+03  0.29957126686E+03  0.10566000000E+00 0. -1.
          4    1    1    2  501    0 -0.39664321078E+03  0.33687024428E+03  0.93359675648E+03  0.10688359565E+04  0.00000000000E+00 0.  1.
</event>
<event>
 5    1  0.8445827E-005  0.1479555E+03  0.7818608E-02  0.1103146E+00
         21   -1    0    0  501  502  0.00000000000E+00  0.00000000000E+00  0.30207776879E+03  0.30207776879E+03  0.00000000000E+00 0.  1.
         -4   -1    0    0    0  501 -0.00000000000E+00 -0.00000000000E+00 -0.12149941653E+03  0.12149941653E+03  0.00000000000E+00 0. -1.
        -13    1    1    2    0    0 -0.70070624499E+02 -0.11238939149E+03  0.14033515215E+03  0.19296433305E+03  0.10566000000E+00 0.  1.
         13    1    1    2    0    0  0.43516441654E+02  0.14979915790E+03 -0.17380877407E+02  0.15695723770E+03  0.10566000000E+00 0. -1.
         -4    1    1    2    0  502  0.26554182846E+02 -0.37409766412E+02  0.57624077511E+02  0.73655614577E+02  0.00000000000E+00 0. -1.
</event>
<event>
 5    1  0.8445827E-005  0.1800663E+03  0.7818608E-02  0.1086509E+00
         21   -1    0    0  501  502  0.00000000000E+00  0.00000000000E+00  0.44734983571E+03  0.44734983571E+03  0.00000000000E+00 0. -1.
         -4   -1    0    0    0  501 -0.00000000000E+00 -0.00000000000E+00 -0.91250367385E+03  0.91250367385E+03  0.00000000000E+00 0. -1.
        -13    1    1    2    0    0 -0.32392148539E+02 -0.20994312270E+03 -0.22764307592E+03  0.31136272615E+03  0.10566000000E+00 0.  1.
         13    1    1    2    0    0  0.81055905872E+02 -0.12479479749E+03  0.34453264736E+03  0.37529529389E+03  0.10566000000E+00 0. -1.
         -4    1    1    2    0  502 -0.48663757333E+02  0.33473792019E+03 -0.58204340957E+03  0.67319548952E+03  0.00000000000E+00 0. -1.
</event>
<event>
 5    1  0.8445827E-005  0.4782677E+03  0.7818608E-02  0.9815254E-01
         -4   -1    0    0    0  501 -0.00000000000E+00  0.00000000000E+00  0.17144071760E+04  0.17144071760E+04  0.00000000000E+00 0. -1.
         21   -1    0    0  501  502  0.00000000000E+00 -0.00000000000E+00 -0.21249545098E+03  0.21249545098E+03  0.00000000000E+00 0. -1.
        -13    1    1    2    0    0 -0.12507660540E+03 -0.12104580511E+03  0.41616450382E+03  0.45109771620E+03  0.10566000000E+00 0.  1.
         13    1    1    2    0    0 -0.41607060432E+03  0.16275964683E+03  0.38736991618E+03  0.59132132850E+03  0.10566000000E+00 0. -1.
         -4    1    1    2    0  502  0.54114720972E+03 -0.41713841726E+02  0.69837730505E+03  0.88448358231E+03  0.00000000000E+00 0. -1.
</event>
<event>
 5    1  0.8445827E-005  0.2548671E+03  0.7818608E-02  0.1027901E+00
         -4   -1    0    0    0  501 -0.00000000000E+00  0.00000000000E+00  0.96665374716E+03  0.96665374716E+03  0.00000000000E+00 0. -1.
         21   -1    0    0  501  502  0.00000000000E+00 -0.00000000000E+00 -0.90930222954E+02  0.90930222954E+02  0.00000000000E+00 0.  1.
        -13    1    1    2    0    0 -0.24903931705E+03 -0.34849293018E+02  0.21804672730E+03  0.33283545651E+03  0.10566000000E+00 0.  1.
         13    1    1    2    0    0  0.25242409582E+03  0.44566937891E+02  0.66461865484E+03  0.71233566781E+03  0.10566000000E+00 0. -1.
         -4    1    1    2    0  502 -0.33847787768E+01 -0.97176448738E+01 -0.69418579339E+01  0.12412845799E+02  0.00000000000E+00 0. -1.
</event>
<event>
 5    1  0.8445827E-005  0.1004901E+03  0.7818608E-02  0.1163747E+00
         21   -1    0    0  501  502  0.00000000000E+00  0.00000000000E+00  0.77132600695E+02  0.77132600695E+02  0.00000000000E+00 0.  1.
         -4   -1    0    0    0  501 -0.00000000000E+00 -0.00000000000E+00 -0.22429875979E+03  0.22429875979E+03  0.00000000000E+00 0. -1.
        -13    1    1    2    0    0  0.80842599757E+02 -0.35749792474E+02  0.77415243817E+01  0.88732834741E+02  0.10566000000E+00 0.  1.
         13    1    1    2    0    0 -0.10155735765E+03  0.25751556258E+02 -0.15790556200E+03  0.18950255201E+03  0.10566000000E+00 0. -1.
         -4    1    1    2    0  502  0.20714757890E+02  0.99982362160E+01  0.29978785270E+01  0.23195973736E+02  0.00000000000E+00 0. -1.
</event>
<event>
 5    1  0.8445827E-005  0.3415715E+03  0.7818608E-02  0.1026201E+00
         -4   -1    0    0    0  501 -0.00000000000E+00  0.00000000000E+00  0.25598111416E+03  0.25598111416E+03  0.00000000000E+00 0. -1.
         21   -1    0    0  501  502  0.00000000000E+00 -0.00000000000E+00 -0.12838627747E+04  0.12838627747E+04  0.00000000000E+00 0. -1.
        -13    1    1    2    0    0 -0.37815281572E+01  0.11155890000E+03 -0.23520841115E+02  0.11407422695E+03  0.10566000000E+00 0.  1.
         13    1    1    2    0    0  0.32191043557E+03 -0.13046166631E+03 -0.10480412583E+04  0.11041001156E+04  0.10566000000E+00 0. -1.
         -4    1    1    2    0  502 -0.31812890741E+03  0.18902766310E+02  0.43680438888E+02  0.32166954634E+03  0.00000000000E+00 0. -1.
</event>
<event>
 5    1  0.8445827E-005  0.1236759E+03  0.7818608E-02  0.1130421E+00
         21   -1    0    0  501  502  0.00000000000E+00  0.00000000000E+00  0.20490280765E+03  0.20490280765E+03  0.00000000000E+00 0. -1.
          4   -1    0    0  502    0 -0.00000000000E+00 -0.00000000000E+00 -0.13402482349E+03  0.13402482349E+03  0.00000000000E+00 0.  1.
        -13    1    1    2    0    0 -0.12494492940E+03  0.20333297636E+02  0.10145133085E+03  0.16222534349E+03  0.10566000000E+00 0.  1.
         13    1    1    2    0    0  0.12251381860E+03  0.22394453875E+02 -0.43618980754E+02  0.13196125931E+03  0.10566000000E+00 0. -1.
          4    1    1    2  501    0  0.24311107965E+01 -0.42727751511E+02  0.13045634062E+02  0.44741028340E+02  0.00000000000E+00 0.  1.
</event>
<event>
 5    1  0.8445827E-005  0.2563987E+03  0.7818608E-02  0.1027129E+00
         21   -1    0    0  501  502  0.00000000000E+00  0.00000000000E+00  0.19010536364E+03  0.19010536364E+03  0.00000000000E+00 0.  1.
         -4   -1    0    0    0  501 -0.00000000000E+00 -0.00000000000E+00 -0.85239581761E+03  0.85239581761E+03  0.00000000000E+00 0. -1.
        -13    1    1    2    0    0  0.27409117906E+03 -0.42683351349E+02  0.52072130868E+01  0.27744363239E+03  0.10566000000E+00 0.  1.
         13    1    1    2    0    0 -0.24788705565E+03  0.51044329551E+02 -0.68647333188E+03  0.73164141660E+03  0.10566000000E+00 0. -1.
         -4    1    1    2    0  502 -0.26204123413E+02 -0.83609782018E+01  0.18975664825E+02  0.33416132270E+02  0.00000000000E+00 0. -1.
</event>
<event>
 5    1  0.8445827E-005  0.3385382E+03  0.7818608E-02  0.9925590E-01
         21   -1    0    0  501  502  0.00000000000E+00  0.00000000000E+00  0.65779689927E+03  0.65779689927E+03  0.00000000000E+00 0.  1.
          4   -1    0    0  502    0 -0.00000000000E+00 -0.00000000000E+00 -0.64645711874E+03  0.64645711874E+03  0.00000000000E+00 0.  1.
        -13    1    1    2    0    0  0.12243759623E+03  0.39420741904E+03 -0.34527580674E+03  0.53815039541E+03  0.10566000000E+00 0.  1.
         13    1    1    2    0    0 -0.15519117335E+03 -0.22235266821E+03 -0.90596667614E+02  0.28588944837E+03  0.10566000000E+00 0. -1.
          4    1    1    2  501    0  0.32753577120E+02 -0.17185475083E+03  0.44721225489E+03  0.48021417422E+03  0.00000000000E+00 0.  1.
</event>
<event>
 5    1  0.8445827E-005  0.3820809E+03  0.7818608E-02  0.9782272E-01
         21   -1    0    0  501  502  0.00000000000E+00  0.00000000000E+00  0.36437599258E+03  0.36437599258E+03  0.00000000000E+00 0. -1.
          4   -1    0    0  502    0 -0.00000000000E+00 -0.00000000000E+00 -0.10610554892E+04  0.10610554892E+04  0.00000000000E+00 0.  1.
        -13    1    1    2    0    0 -0.10560759076E+03 -0.36284184533E+03 -0.84093791025E+03  0.92194563181E+03  0.10566000000E+00 0.  1.
         13    1    1    2    0    0  0.64276190824E+02  0.41033679878E+03  0.14667573983E+03  0.44047871794E+03  0.10566000000E+00 0. -1.
          4    1    1    2  501    0  0.41331399932E+02 -0.47494953444E+02 -0.24173262182E+01  0.63007132049E+02  0.00000000000E+00 0.  1.
</event>
<event>
 5    1  0.8445827E-005  0.5166052E+03  0.7818608E-02  0.9699855E-01
          4   -1    0    0  502    0 -0.00000000000E+00  0.00000000000E+00  0.18030505531E+04  0.18030505531E+04  0.00000000000E+00 0.  1.
         21   -1    0    0  501  502  0.00000000000E+00 -0.00000000000E+00 -0.23717092067E+03  0.23717092067E+03  0.00000000000E+00 0.  1.
        -13    1    1    2    0    0 -0.36373353187E+01  0.43509610205E+03  0.47204222783E+03  0.64198576639E+03  0.10566000000E+00 0.  1.
         13    1    1    2    0    0 -0.78584960991E+02  0.18986784206E+03  0.46246889688E+03  0.50606608787E+03  0.10566000000E+00 0. -1.
          4    1    1    2  501    0  0.82222296309E+02 -0.62496394411E+03  0.63136850768E+03  0.89216961948E+03  0.00000000000E+00 0.  1.
</event>
<event>
 5    1  0.8445827E-005  0.4895014E+03  0.7818608E-02  0.1004611E+00
         -4   -1    0    0    0  501 -0.00000000000E+00  0.00000000000E+00  0.37259933768E+04  0.37259933768E+04  0.00000000000E+00 0. -1.
         21   -1    0    0  501  502  0.00000000000E+00 -0.00000000000E+00 -0.78354587287E+02  0.78354587287E+02  0.00000000000E+00 0. -1.
        -13    1    1    2    0    0  0.54989046072E+02 -0.51524727216E+02  0.33690899731E+03  0.34523365469E+03  0.10566000000E+00 0.  1.
         13    1    1    2    0    0 -0.31277340675E+03  0.43263146527E+03  0.19978501795E+04  0.20679464547E+04  0.10566000000E+00 0. -1.
         -4    1    1    2    0  502  0.25778436068E+03 -0.38110673806E+03  0.13128796127E+04  0.13911678546E+04  0.00000000000E+00 0. -1.
</event>
<event>
 5    1  0.8445827E-005  0.2310965E+03  0.7818608E-02  0.1040683E+00
         21   -1    0    0  501  502  0.00000000000E+00  0.00000000000E+00  0.66916260831E+03  0.66916260831E+03  0.00000000000E+00 0.  1.
          4   -1    0    0  502    0 -0.00000000000E+00 -0.00000000000E+00 -0.52115453809E+03  0.52115453809E+03  0.00000000000E+00 0.  1.
        -13    1    1    2    0    0 -0.23486228134E+03  0.11175816442E+03 -0.35030710278E+03  0.43630867048E+03  0.10566000000E+00 0.  1.
         13    1    1    2    0    0  0.15187826360E+03 -0.10766874119E+03 -0.55286742043E+02  0.19420659050E+03  0.10566000000E+00 0. -1.
          4    1    1    2  501    0  0.82984017734E+02 -0.40894232375E+01  0.55360191505E+03  0.55980188543E+03  0.00000000000E+00 0.  1.
</event>
<event>
 5    1  0.8445827E-005  0.4809670E+03  0.7818608E-02  0.9626771E-01
         -4   -1    0    0    0  501 -0.00000000000E+00  0.00000000000E+00  0.20848812332E+04  0.20848812332E+04  0.00000000000E+00 0. -1.
         21   -1    0    0  501  502  0.00000000000E+00 -0.00000000000E+00 -0.22777399265E+03  0.22777399265E+03  0.00000000000E+00 0. -1.
        -13    1    1    2    0    0  0.29528925473E+03  0.14527348106E+03  0.58798511738E+03  0.67381498772E+03  0.10566000000E+00 0.  1.
         13    1    1    2    0    0 -0.24155022290E+03 -0.56446896941E+03  0.77024239824E+03  0.98501019833E+03  0.10566000000E+00 0. -1.
         -4    1    1    2    0  502 -0.53739031837E+02  0.41919548835E+03  0.49887972494E+03  0.65383003980E+03  0.00000000000E+00 0. -1.
</event>
<event>
 5    1  0.8445827E-005  0.2920388E+03  0.7818608E-02  0.1070551E+00
          4   -1    0    0  502    0 -0.00000000000E+00  0.00000000000E+00  0.18183721810E+04  0.18183721810E+04  0.00000000000E+00 0.  1.
         21   -1    0    0  501  502  0.00000000000E+00 -0.00000000000E+00 -0.14830197353E+03  0.14830197353E+03  0.00000000000E+00 0.  1.
        -13    1    1    2    0    0  0.23476178133E+03 -0.23854906218E+03  0.15238462196E+04  0.15601686002E+04  0.10566000000E+00 0.  1.
         13    1    1    2    0    0 -0.29456205565E+02  0.37325260897E+02  0.10607099564E+03  0.11624074341E+03  0.10566000000E+00 0. -1.
          4    1    1    2  501    0 -0.20530557577E+03  0.20122380128E+03  0.40152992223E+02  0.29026481087E+03  0.00000000000E+00 0.  1.
</event>
<event>
 5    1  0.8445827E-005  0.4092076E+03  0.7818608E-02  0.9956460E-01
         21   -1    0    0  501  502  0.00000000000E+00  0.00000000000E+00  0.49387066515E+03  0.49387066515E+03  0.00000000000E+00 0. -1.
         -4   -1    0    0    0  501 -0.00000000000E+00 -0.00000000000E+00 -0.13717378320E+04  0.13717378320E+04  0.00000000000E+00 0. -1.
        -13    1    1    2    0    0  0.18201471849E+02 -0.17207059689E+03 -0.84943782261E+03  0.86688188904E+03  0.10566000000E+00 0.  1.
         13    1    1    2    0    0 -0.16016308589E+03 -0.33990612384E+03  0.19385143632E+03  0.42280820431E+03  0.10566000000E+00 0. -1.
         -4    1    1    2    0  502  0.14196161404E+03  0.51197672073E+03 -0.22228078054E+03  0.57591840380E+03  0.00000000000E+00 0. -1.
</event>
<event>
 5    1  0.8445827E-005  0.7388025E+02  0.7818608E-02  0.1230356E+00
         21   -1    0    0  501  502  0.00000000000E+00  0.00000000000E+00  0.43377882972E+02  0.43377882972E+02  0.00000000000E+00 0. -1.
         -4   -1    0    0    0  501 -0.00000000000E+00 -0.00000000000E+00 -0.66710386454E+03  0.66710386454E+03  0.00000000000E+00 0. -1.
        -13    1    1    2    0    0  0.52291699146E+02  0.17137620819E+02 -0.17690172202E+03  0.18526292199E+03  0.10566000000E+00 0.  1.
         13    1    1    2    0    0 -0.11549068974E+03 -0.45905272400E+02 -0.43791802801E+03  0.45521160340E+03  0.10566000000E+00 0. -1.
         -4    1    1    2    0  502  0.63198990590E+02  0.28767651581E+02 -0.89062315416E+01  0.70007222123E+02  0.00000000000E+00 0. -1.
</event>
<event>
 5    1  0.8445827E-005  0.2446816E+03  0.7818608E-02  0.1033186E+00
         21   -1    0    0  501  502  0.00000000000E+00  0.00000000000E+00  0.76857280586E+03  0.76857280586E+03  0.00000000000E+00 0.  1.
         -4   -1    0    0    0  501 -0.00000000000E+00 -0.00000000000E+00 -0.23350443198E+03  0.23350443198E+03  0.00000000000E+00 0. -1.
        -13    1    1    2    0    0 -0.16477990985E+03  0.23639891107E+03  0.23811014063E+03  0.37380919475E+03  0.10566000000E+00 0.  1.
         13    1    1    2    0    0  0.21998101366E+03 -0.97610072427E+02 -0.54175334856E+02  0.24668674606E+03  0.10566000000E+00 0. -1.
         -4    1    1    2    0  502 -0.55201103803E+02 -0.13878883864E+03  0.35113356811E+03  0.38158129703E+03  0.00000000000E+00 0. -1.
</event>
<event>
 5    1  0.8445827E-005  0.1095357E+03  0.7818608E-02  0.1149675E+00
          4   -1    0    0  502    0 -0.00000000000E+00  0.00000000000E+00  0.32656322278E+03  0.32656322278E+03  0.00000000000E+00 0.  1.
         21   -1    0    0  501  502  0.00000000000E+00 -0.00000000000E+00 -0.18341109006E+03  0.18341109006E+03  0.00000000000E+00 0.  1.
        -13    1    1    2    0    0  0.96425285651E+02 -0.56570518206E+02  0.27064481819E+03  0.29282535413E+03  0.10566000000E+00 0.  1.
         13    1    1    2    0    0 -0.95965283089E+02  0.28658335510E+02 -0.15031542225E+02  0.10127484475E+03  0.10566000000E+00 0. -1.
          4    1    1    2  501    0 -0.46000256213E+00  0.27912182696E+02 -0.11246114325E+03  0.11587411396E+03  0.00000000000E+00 0.  1.
</event>
<event>
 5    1  0.8445827E-005  0.2626528E+03  0.7818608E-02  0.1024037E+00
          4   -1    0    0  502    0 -0.00000000000E+00  0.00000000000E+00  0.96987039667E+03  0.96987039667E+03  0.00000000000E+00 0.  1.
         21   -1    0    0  501  502  0.00000000000E+00 -0.00000000000E+00 -0.10990278256E+03  0.10990278256E+03  0.00000000000E+00 0. -1.
        -13    1    1    2    0    0  0.21945908070E+03 -0.14323146775E+03  0.60736841275E+03  0.66149371987E+03  0.10566000000E+00 0.  1.
         13    1    1    2    0    0 -0.22817247621E+03  0.13281875404E+03  0.28175272880E+03  0.38611929721E+03  0.10566000000E+00 0. -1.
          4    1    1    2  501    0  0.87133955159E+01  0.10412713710E+02 -0.29153527432E+02  0.32160162157E+02  0.00000000000E+00 0.  1.
</event>
<event>
 5    1  0.8445827E-005  0.4779473E+03  0.7818608E-02  0.9635964E-01
         21   -1    0    0  501  502  0.00000000000E+00  0.00000000000E+00  0.70805674033E+03  0.70805674033E+03  0.00000000000E+00 0.  1.
         -4   -1    0    0    0  501 -0.00000000000E+00 -0.00000000000E+00 -0.71267133132E+03  0.71267133132E+03  0.00000000000E+00 0. -1.
        -13    1    1    2    0    0 -0.16406979619E+03  0.28013755198E+03  0.12671732289E+03  0.34850141626E+03  0.10566000000E+00 0.  1.
         13    1    1    2    0    0  0.57320759301E+03 -0.71672967102E+02 -0.19268784516E+03  0.60896024150E+03  0.10566000000E+00 0. -1.
         -4    1    1    2    0  502 -0.40913779682E+03 -0.20846458488E+03  0.61355931294E+02  0.46326641389E+03  0.00000000000E+00 0. -1.
</event>
<event>
 5    1  0.8445827E-005  0.4911431E+03  0.7818608E-02  0.9585171E-01
         21   -1    0    0  501  502  0.00000000000E+00  0.00000000000E+00  0.16514935179E+03  0.16514935179E+03  0.00000000000E+00 0.  1.
          4   -1    0    0  502    0 -0.00000000000E+00 -0.00000000000E+00 -0.33382047417E+04  0.33382047417E+04  0.00000000000E+00 0.  1.
        -13    1    1    2    0    0  0.11555090968E+03 -0.58241529240E+03 -0.10787573464E+04  0.12313720027E+04  0.10566000000E+00 0.  1.
         13    1    1    2    0    0  0.17125198014E+03  0.31470300838E+03 -0.41870827316E+03  0.55107336477E+03  0.10566000000E+00 0. -1.
          4    1    1    2  501    0 -0.28680288982E+03  0.26771228402E+03 -0.16755897703E+04  0.17209087259E+04  0.00000000000E+00 0.  1.
</event>
<event>
 5    1  0.8445827E-005  0.5248766E+02  0.7818608E-02  0.1281979E+00
         -4   -1    0    0    0  501 -0.00000000000E+00  0.00000000000E+00  0.48465969894E+02  0.48465969894E+02  0.00000000000E+00 0. -1.
         21   -1    0    0  501  502  0.00000000000E+00 -0.00000000000E+00 -0.84572166648E+03  0.84572166648E+03  0.00000000000E+00 0. -1.
        -13    1    1    2    0    0  0.37961796317E+02  0.16129556890E+02 -0.18237945645E+03  0.18698539484E+03  0.10566000000E+00 0.  1.
         13    1    1    2    0    0 -0.50092573600E+02 -0.18597323714E+02  0.30621489403E+02  0.61585819443E+02  0.10566000000E+00 0. -1.
         -4    1    1    2    0  502  0.12130777284E+02  0.24677668231E+01 -0.64549772954E+03  0.64561642209E+03  0.00000000000E+00 0. -1.
</event>
<event>
 5    1  0.8445827E-005  0.2421121E+02  0.7818608E-02  0.1458511E+00
         21   -1    0    0  501  502  0.00000000000E+00  0.00000000000E+00  0.23463552528E+02  0.23463552528E+02  0.00000000000E+00 0.  1.
         -4   -1    0    0    0  501 -0.00000000000E+00 -0.00000000000E+00 -0.85198388391E+02  0.85198388391E+02  0.00000000000E+00 0. -1.
        -13    1    1    2    0    0 -0.67238188456E+01  0.19870081580E+02  0.69723064285E+01  0.22105521999E+02  0.10566000000E+00 0.  1.
         13    1    1    2    0    0  0.18307596306E+02 -0.17063098772E+02 -0.70215592899E+02  0.74542324034E+02  0.10566000000E+00 0. -1.
         -4    1    1    2    0  502 -0.11583777460E+02 -0.28069828078E+01  0.15084506071E+01  0.12014094888E+02  0.00000000000E+00 0. -1.
</event>
<event>
 5    1  0.8445827E-005  0.2136928E+03  0.7818608E-02  0.1079331E+00
         21   -1    0    0  501  502  0.00000000000E+00  0.00000000000E+00  0.66068950695E+03  0.66068950695E+03  0.00000000000E+00 0. -1.
         -4   -1    0    0    0  501 -0.00000000000E+00 -0.00000000000E+00 -0.79115510948E+03  0.79115510948E+03  0.00000000000E+00 0. -1.
        -13    1    1    2    0    0  0.24388182502E+01 -0.94580726880E+02 -0.39016074755E+03  0.40146840701E+03  0.10566000000E+00 0.  1.
         13    1    1    2    0    0  0.20881862234E+03  0.57260608660E+02 -0.34580175374E+03  0.40799860097E+03  0.10566000000E+00 0. -1.
         -4    1    1    2    0  502 -0.21125744059E+03  0.37320118220E+02  0.60549689876E+03  0.64237760845E+03  0.00000000000E+00 0. -1.
</event>
<event>
 5    1  0.8445827E-005  0.5610367E+03  0.7818608E-02  0.9601586E-01
         -4   -1    0    0    0  501 -0.00000000000E+00  0.00000000000E+00  0.22831537603E+04  0.22831537603E+04  0.00000000000E+00 0. -1.
         21   -1    0    0  501  502  0.00000000000E+00 -0.00000000000E+00 -0.50431587579E+03  0.50431587579E+03  0.00000000000E+00 0.  1.
        -13    1    1    2    0    0  0.34025710408E+03 -0.65437690500E+03  0.11860332353E+04  0.13966599003E+04  0.10566000000E+00 0.  1.
         13    1    1    2    0    0 -0.10095386582E+03  0.14693617696E+03  0.77942175223E+03  0.79954999978E+03  0.10566000000E+00 0. -1.
         -4    1    1    2    0  502 -0.23930323826E+03  0.50744072804E+03 -0.18661710302E+03  0.59125973603E+03  0.00000000000E+00 0. -1.
</event>
<event>
 5    1  0.8445827E-005  0.2813001E+03  0.7818608E-02  0.1033014E+00
         21   -1    0    0  501  502  0.00000000000E+00  0.00000000000E+00  0.39326334673E+03  0.39326334673E+03  0.00000000000E+00 0. -1.
         -4   -1    0    0    0  501 -0.00000000000E+00 -0.00000000000E+00 -0.15108776998E+04  0.15108776998E+04  0.00000000000E+00 0. -1.
        -13    1    1    2    0    0 -0.51476715820E+02  0.15347598809E+03 -0.85518784966E+03  0.87037405785E+03  0.10566000000E+00 0.  1.
         13    1    1    2    0    0 -0.19831227793E+03 -0.19067338025E+01 -0.57360287033E+03  0.60691981284E+03  0.10566000000E+00 0. -1.
         -4    1    1    2    0  502  0.24978899375E+03 -0.15156925429E+03  0.31117636688E+03  0.42684717587E+03  0.00000000000E+00 0. -1.
</event>
<event>
 5    1  0.8445827E-005  0.1488087E+03  0.7818608E-02  0.1133151E+00
         -4   -1    0    0    0  501 -0.00000000000E+00  0.00000000000E+00  0.19524021138E+03  0.19524021138E+03  0.00000000000E+00 0. -1.
         21   -1    0    0  501  502  0.00000000000E+00 -0.00000000000E+00 -0.38265242490E+03  0.38265242490E+03  0.00000000000E+00 0. -1.
        -13    1    1    2    0    0 -0.59234859646E+02 -0.29575745489E+02  0.39210839806E+02  0.76947998290E+02  0.10566000000E+00 0.  1.
         13    1    1    2    0    0 -0.13923244049E+03 -0.19523031640E+02 -0.25827119430E+03  0.29405924951E+03  0.10566000000E+00 0. -1.
         -4    1    1    2    0  502  0.19846730014E+03  0.49098777129E+02  0.31648140969E+02  0.20688538848E+03  0.00000000000E+00 0. -1.
</event>
<event>
 5    1  0.8445827E-005  0.6895544E+03  0.7818608E-02  0.9138270E-01
         21   -1    0    0  501  502  0.00000000000E+00  0.00000000000E+00  0.89316979402E+03  0.89316979402E+03  0.00000000000E+00 0. -1.
         -4   -1    0    0    0  501 -0.00000000000E+00 -0.00000000000E+00 -0.13734819875E+04  0.13734819875E+04  0.00000000000E+00 0. -1.
        -13    1    1    2    0    0 -0.66132928773E+03  0.44063967093E+03 -0.56032980744E+03  0.97236271559E+03  0.10566000000E+00 0.  1.
         13    1    1    2    0    0  0.92018373810E+02 -0.66847614422E+03 -0.77978808413E+01  0.67482483255E+03  0.10566000000E+00 0. -1.
         -4    1    1    2    0  502  0.56931091392E+03  0.22783647329E+03  0.87815494831E+02  0.61946423335E+03  0.00000000000E+00 0. -1.
</event>
<event>
 5    1  0.8445827E-005  0.1086868E+03  0.7818608E-02  0.1150932E+00
         21   -1    0    0  501  502  0.00000000000E+00  0.00000000000E+00  0.20988433810E+03  0.20988433810E+03  0.00000000000E+00 0. -1.
         -4   -1    0    0    0  501 -0.00000000000E+00 -0.00000000000E+00 -0.27699962778E+03  0.27699962778E+03  0.00000000000E+00 0. -1.
        -13    1    1    2    0    0  0.10597718750E+03  0.17908428303E+02  0.31559325484E+02  0.11201731234E+03  0.10566000000E+00 0.  1.
         13    1    1    2    0    0 -0.10513851247E+03 -0.28664166461E+02 -0.22398727845E+03  0.24909045207E+03  0.10566000000E+00 0. -1.
         -4    1    1    2    0  502 -0.83867503358E+00  0.10755738159E+02  0.12531266327E+03  0.12577620147E+03  0.00000000000E+00 0. -1.
</event>
<event>
 5    1  0.8445827E-005  0.4580079E+03  0.7818608E-02  0.9575087E-01
         -4   -1    0    0    0  501 -0.00000000000E+00  0.00000000000E+00  0.36685555387E+04  0.36685555387E+04  0.00000000000E+00 0. -1.
         21   -1    0    0  501  502  0.00000000000E+00 -0.00000000000E+00 -0.31904339023E+03  0.31904339023E+03  0.00000000000E+00 0. -1.
        -13    1    1    2    0    0 -0.25879099233E+03  0.36119226739E+03  0.26746188841E+04  0.27112762342E+04  0.10566000000E+00 0.  1.
         13    1    1    2    0    0  0.93451905572E+02 -0.68961546483E+03  0.32244035065E+03  0.76698796528E+03  0.10566000000E+00 0. -1.
         -4    1    1    2    0  502  0.16533908676E+03  0.32842319744E+03  0.35245291363E+03  0.50933472938E+03  0.00000000000E+00 0. -1.
</event>
<event>
 5    1  0.8445827E-005  0.2546770E+03  0.7818608E-02  0.1051234E+00
          4   -1    0    0  502    0 -0.00000000000E+00  0.00000000000E+00  0.36873685725E+03  0.36873685725E+03  0.00000000000E+00 0.  1.
         21   -1    0    0  501  502  0.00000000000E+00 -0.00000000000E+00 -0.91775169935E+03  0.91775169935E+03  0.00000000000E+00 0.  1.
        -13    1    1    2    0    0  0.16848592231E+03  0.28149807308E+03  0.24140421538E+03  0.40731397905E+03  0.10566000000E+00 0.  1.
         13    1    1    2    0    0  0.25599490192E+02 -0.12323232449E+03 -0.18250595094E+03  0.22169793186E+03  0.10566000000E+00 0. -1.
          4    1    1    2  501    0 -0.19408541251E+03 -0.15826574859E+03 -0.60791310653E+03  0.65747664568E+03  0.00000000000E+00 0.  1.
</event>
<event>
 5    1  0.8445827E-005  0.4897435E+03  0.7818608E-02  0.9522824E-01
         -4   -1    0    0    0  501 -0.00000000000E+00  0.00000000000E+00  0.12335446719E+04  0.12335446719E+04  0.00000000000E+00 0. -1.
         21   -1    0    0  501  502  0.00000000000E+00 -0.00000000000E+00 -0.56162612677E+03  0.56162612677E+03  0.00000000000E+00 0. -1.
        -13    1    1    2    0    0 -0.35047620221E+03  0.28554403252E+03  0.53016022055E+03  0.69673440668E+03  0.10566000000E+00 0.  1.
         13    1    1    2    0    0  0.54631873452E+03  0.16470386217E+03 -0.46700490397E+02  0.57251416478E+03  0.10566000000E+00 0. -1.
         -4    1    1    2    0  502 -0.19584253230E+03 -0.45024789470E+03  0.18845881497E+03  0.52592222722E+03  0.00000000000E+00 0. -1.
</event>
<event>
 5    1  0.8445827E-005  0.4019808E+03  0.7818608E-02  0.1013900E+00
         21   -1    0    0  501  502  0.00000000000E+00  0.00000000000E+00  0.53503009895E+03  0.53503009895E+03  0.00000000000E+00 0. -1.
         -4   -1    0    0    0  501 -0.00000000000E+00 -0.00000000000E+00 -0.60558020784E+03  0.60558020784E+03  0.00000000000E+00 0. -1.
        -13    1    1    2    0    0 -0.49771268249E+02  0.87784377492E+02 -0.85895208986E+02  0.13251895776E+03  0.10566000000E+00 0.  1.
         13    1    1    2    0    0  0.12437134058E+02 -0.47118285041E+03 -0.25649794138E+03  0.53661826835E+03  0.10566000000E+00 0. -1.
         -4    1    1    2    0  502  0.37334134191E+02  0.38339847292E+03  0.27184304147E+03  0.47147308069E+03  0.00000000000E+00 0. -1.
</event>
<event>
 5    1  0.8445827E-005  0.2765749E+03  0.7818608E-02  0.1017472E+00
         -4   -1    0    0    0  501 -0.00000000000E+00  0.00000000000E+00  0.25852374506E+04  0.25852374506E+04  0.00000000000E+00 0. -1.
         21   -1    0    0  501  502  0.00000000000E+00 -0.00000000000E+00 -0.21431268755E+03  0.21431268755E+03  0.00000000000E+00 0. -1.
        -13    1    1    2    0    0  0.19718732039E+03 -0.16795083297E+03  0.14999765143E+04  0.15221760333E+04  0.10566000000E+00 0.  1.
         13    1    1    2    0    0 -0.12166871752E+03  0.33690390060E+03  0.99303816119E+03  0.10556667636E+04  0.10566000000E+00 0. -1.
         -4    1    1    2    0  502 -0.75518602873E+02 -0.16895306763E+03 -0.12208991246E+03  0.22170734125E+03  0.00000000000E+00 0. -1.
</event>
<event>
 5    1  0.8445827E-005  0.9404143E+02  0.7818608E-02  0.1186192E+00
         21   -1    0    0  501  502  0.00000000000E+00  0.00000000000E+00  0.12313984862E+03  0.12313984862E+03  0.00000000000E+00 0. -1.
          4   -1    0    0  502    0 -0.00000000000E+00 -0.00000000000E+00 -0.32750270701E+03  0.32750270701E+03  0.00000000000E+00 0.  1.
        -13    1    1    2    0    0  0.60915077843E+02  0.18318031227E+02 -0.17653671159E+03  0.18764705881E+03  0.10566000000E+00 0.  1.
         13    1    1    2    0    0 -0.14968505530E+03 -0.49361242742E+02 -0.51868874227E+02  0.16592932032E+03  0.10566000000E+00 0. -1.
          4    1    1    2  501    0  0.88769977455E+02  0.31043211515E+02  0.24042727418E+02  0.97066176499E+02  0.00000000000E+00 0.  1.
</event>
<event>
 5    1  0.8445827E-005  0.5004018E+03  0.7818608E-02  0.9557423E-01
         21   -1    0    0  501  502  0.00000000000E+00  0.00000000000E+00  0.16545366057E+03  0.16545366057E+03  0.00000000000E+00 0.  1.
          4   -1    0    0  502    0 -0.00000000000E+00 -0.00000000000E+00 -0.32436756544E+04  0.32436756544E+04  0.00000000000E+00 0.  1.
        -13    1    1    2    0    0 -0.43376319343E+03 -0.45908324851E+03 -0.99557549362E+03  0.11790159082E+04  0.10566000000E+00 0.  1.
         13    1    1    2    0    0  0.22479924205E+02  0.37345420555E+03 -0.10820385646E+04  0.11448933824E+04  0.10566000000E+00 0. -1.
          4    1    1    2  501    0  0.41128326923E+03  0.85629042957E+02 -0.10006079356E+04  0.10852200244E+04  0.00000000000E+00 0.  1.
</event>
<event>
 5    1  0.8445827E-005  0.4930498E+03  0.7818608E-02  0.9622322E-01
          4   -1    0    0  502    0 -0.00000000000E+00  0.00000000000E+00  0.21156770764E+04  0.21156770764E+04  0.00000000000E+00 0.  1.
         21   -1    0    0  501  502  0.00000000000E+00 -0.00000000000E+00 -0.28133312757E+03  0.28133312757E+03  0.00000000000E+00 0.  1.
        -13    1    1    2    0    0 -0.45725934703E+03  0.18970924021E+03  0.28332713082E+03  0.57039458316E+03  0.10566000000E+00 0.  1.
         13    1    1    2    0    0 -0.77491396151E+02 -0.30049995842E+03  0.10150936649E+04  0.10614708198E+04  0.10566000000E+00 0. -1.
          4    1    1    2  501    0  0.53475074318E+03  0.11079071820E+03  0.53592315312E+03  0.76514480109E+03  0.00000000000E+00 0.  1.
</event>
<event>
 5    1  0.8445827E-005  0.1414579E+03  0.7818608E-02  0.1109856E+00
         -4   -1    0    0    0  501 -0.00000000000E+00  0.00000000000E+00  0.33491551292E+03  0.33491551292E+03  0.00000000000E+00 0. -1.
         21   -1    0    0  501  502  0.00000000000E+00 -0.00000000000E+00 -0.13633555564E+03  0.13633555564E+03  0.00000000000E+00 0.  1.
        -13    1    1    2    0    0  0.17522063693E+03 -0.33734853102E+01  0.30204341848E+02  0.17783690685E+03  0.10566000000E+00 0.  1.
         13    1    1    2    0    0 -0.12864948884E+03 -0.34469306829E+02  0.18789497519E+03  0.23031143471E+03  0.10566000000E+00 0. -1.
         -4    1    1    2    0  502 -0.46571148086E+02  0.37842792139E+02 -0.19519359754E+02  0.63102727011E+02  0.00000000000E+00 0. -1.
</event>
<event>
 5    1  0.8445827E-005  0.4689137E+03  0.7818608E-02  0.1001109E+00
         21   -1    0    0  501  502  0.00000000000E+00  0.00000000000E+00  0.84346703366E+03  0.84346703366E+03  0.00000000000E+00 0.  1.
          4   -1    0    0  502    0 -0.00000000000E+00 -0.00000000000E+00 -0.47117096276E+03  0.47117096276E+03  0.00000000000E+00 0.  1.
        -13    1    1    2    0    0 -0.49552897330E+03 -0.36854373529E+02  0.53592524967E+03  0.73083725454E+03  0.10566000000E+00 0.  1.
         13    1    1    2    0    0  0.91974911401E+02 -0.27806623829E+02 -0.14592122457E+03  0.17471579093E+03  0.10566000000E+00 0. -1.
          4    1    1    2  501    0  0.40355406190E+03  0.64660997357E+02 -0.17707954207E+02  0.40908495095E+03  0.00000000000E+00 0.  1.
</event>
<event>
 5    1  0.8445827E-005  0.3310341E+03  0.7818608E-02  0.1007521E+00
         21   -1    0    0  501  502  0.00000000000E+00  0.00000000000E+00  0.85533897710E+03  0.85533897710E+03  0.00000000000E+00 0.  1.
          4   -1    0    0  502    0 -0.00000000000E+00 -0.00000000000E+00 -0.93589455981E+03  0.93589455981E+03  0.00000000000E+00 0.  1.
        -13    1    1    2    0    0 -0.12572818459E+03  0.32813626720E+03  0.74697511457E+03  0.82550155615E+03  0.10566000000E+00 0.  1.
         13    1    1    2    0    0 -0.75053068545E+02 -0.20865354780E+03 -0.59975262909E+03  0.63943138285E+03  0.10566000000E+00 0. -1.
          4    1    1    2  501    0  0.20078125314E+03 -0.11948271940E+03 -0.22777806820E+03  0.32630059791E+03  0.00000000000E+00 0.  1.
</event>
<event>
 5    1  0.8445827E-005  0.1506881E+03  0.7818608E-02  0.1100435E+00
         21   -1    0    0  501  502  0.00000000000E+00  0.00000000000E+00  0.79580764847E+03  0.79580764847E+03  0.00000000000E+00 0.  1.
         -4   -1    0    0    0  501 -0.00000000000E+00 -0.00000000000E+00 -0.39309023467E+02  0.39309023467E+02  0.00000000000E+00 0. -1.
        -13    1    1    2    0    0 -0.19285326887E+02 -0.16166666751E+03  0.38497250635E+03  0.41798549858E+03  0.10566000000E+00 0.  1.
         13    1    1    2    0    0  0.35060052270E+02  0.13958646828E+03  0.21798663865E+03  0.26121212680E+03  0.10566000000E+00 0. -1.
         -4    1    1    2    0  502 -0.15774725383E+02  0.22080199223E+02  0.15353948001E+03  0.15591904656E+03  0.00000000000E+00 0. -1.
</event>
<event>
 5    1  0.8445827E-005  0.5567147E+03  0.7818608E-02  0.9361636E-01
         -4   -1    0    0    0  501 -0.00000000000E+00  0.00000000000E+00  0.10354514996E+04  0.10354514996E+04  0.00000000000E+00 0. -1.
         21   -1    0    0  501  502  0.00000000000E+00 -0.00000000000E+00 -0.60994185758E+03  0.60994185758E+03  0.00000000000E+00 0.  1.
        -13    1    1    2    0    0 -0.47761562734E+03  0.30423755890E+02  0.19626357372E+03  0.51726365998E+03  0.10566000000E+00 0.  1.
         13    1    1    2    0    0  0.74800734573E+03 -0.16969479744E+02 -0.36073312015E+02  0.74906892041E+03  0.10566000000E+00 0. -1.
         -4    1    1    2    0  502 -0.27039171839E+03 -0.13454276146E+02  0.26531938029E+03  0.37906077676E+03  0.00000000000E+00 0. -1.
</event>
<event>
 5    1  0.8445827E-005  0.4524761E+03  0.7818608E-02  0.9588699E-01
         -4   -1    0    0    0  501 -0.00000000000E+00  0.00000000000E+00  0.97799273332E+03  0.97799273332E+03  0.00000000000E+00 0. -1.
         21   -1    0    0  501  502  0.00000000000E+00 -0.00000000000E+00 -0.51695104074E+03  0.51695104074E+03  0.00000000000E+00 0. -1.
        -13    1    1    2    0    0 -0.29292214009E+03 -0.33914358492E+03  0.22956563456E+03  0.50350982422E+03  0.10566000000E+00 0.  1.
         13    1    1    2    0    0  0.32021936277E+03  0.32402786161E+03  0.52566254968E+03  0.69559731361E+03  0.10566000000E+00 0. -1.
         -4    1    1    2    0  502 -0.27297222676E+02  0.15115723305E+02 -0.29418649166E+03  0.29583663623E+03  0.00000000000E+00 0. -1.
</event>
<event>
 5    1  0.8445827E-005  0.3985947E+03  0.7818608E-02  0.9765845E-01
          4   -1    0    0  502    0 -0.00000000000E+00  0.00000000000E+00  0.37031289423E+04  0.37031289423E+04  0.00000000000E+00 0.  1.
         21   -1    0    0  501  502  0.00000000000E+00 -0.00000000000E+00 -0.11248764364E+03  0.11248764364E+03  0.00000000000E+00 0.  1.
        -13    1    1    2    0    0  0.33994496037E+03 -0.64360792248E+02  0.11484981562E+04  0.11994802682E+04  0.10566000000E+00 0.  1.
         13    1    1    2    0    0  0.12058601174E+02  0.42156555788E+03  0.13502862262E+04  0.14146150831E+04  0.10566000000E+00 0. -1.
          4    1    1    2  501    0 -0.35200356155E+03 -0.35720476564E+03  0.10918569163E+04  0.12015212347E+04  0.00000000000E+00 0.  1.
</event>
<event>
 5    1  0.8445827E-005  0.4155302E+03  0.7818608E-02  0.9685234E-01
         21   -1    0    0  501  502  0.00000000000E+00  0.00000000000E+00  0.20858984118E+03  0.20858984118E+03  0.00000000000E+00 0. -1.
         -4   -1    0    0    0  501 -0.00000000000E+00 -0.00000000000E+00 -0.10724289221E+04  0.10724289221E+04  0.00000000000E+00 0. -1.
        -13    1    1    2    0    0  0.25464040789E+03  0.31382903357E+03 -0.29964423414E+03  0.50310742179E+03  0.10566000000E+00 0.  1.
         13    1    1    2    0    0 -0.28395098637E+03 -0.31393385142E+03 -0.59832503063E+03  0.73292256015E+03  0.10566000000E+00 0. -1.
         -4    1    1    2    0  502  0.29310578479E+02  0.10481785455E+00  0.34130183850E+02  0.44988781348E+02  0.00000000000E+00 0. -1.
</event>
<event>
 5    1  0.8445827E-005  0.4539410E+03  0.7818608E-02  0.9672357E-01
         21   -1    0    0  501  502  0.00000000000E+00  0.00000000000E+00  0.10393252723E+04  0.10393252723E+04  0.00000000000E+00 0. -1.
         -4   -1    0    0    0  501 -0.00000000000E+00 -0.00000000000E+00 -0.45966740635E+03  0.45966740635E+03  0.00000000000E+00 0. -1.
        -13    1    1    2    0    0 -0.24100560962E+03 -0.23038232703E+03  0.20905216709E+03  0.39352578087E+03  0.10566000000E+00 0.  1.
         13    1    1    2    0    0  0.48014100958E+03 -0.13129686992E+03  0.44242936888E+03  0.66597148193E+03  0.10566000000E+00 0. -1.
         -4    1    1    2    0  502 -0.23913539995E+03  0.36167919695E+03 -0.71823669976E+02  0.43949541589E+03  0.00000000000E+00 0. -1.
</event>
<event>
 5    1  0.8445827E-005  0.5254952E+03  0.7818608E-02  0.9664066E-01
         21   -1    0    0  501  502  0.00000000000E+00  0.00000000000E+00  0.39947060534E+03  0.39947060534E+03  0.00000000000E+00 0.  1.
          4   -1    0    0  502    0 -0.00000000000E+00 -0.00000000000E+00 -0.12766237503E+04  0.12766237503E+04  0.00000000000E+00 0.  1.
        -13    1    1    2    0    0 -0.30089875097E+03  0.38204046938E+03 -0.95178627709E+02  0.49553401590E+03  0.10566000000E+00 0.  1.
         13    1    1    2    0    0 -0.21725962225E+03 -0.41849657857E+02 -0.38633153185E+03  0.44520242698E+03  0.10566000000E+00 0. -1.
          4    1    1    2  501    0  0.51815837322E+03 -0.34019081152E+03 -0.39564298542E+03  0.73535791278E+03  0.00000000000E+00 0.  1.
</event>
<event>
 5    1  0.8445827E-005  0.1622157E+03  0.7818608E-02  0.1103774E+00
         -4   -1    0    0    0  501 -0.00000000000E+00  0.00000000000E+00  0.88625781998E+03  0.88625781998E+03  0.00000000000E+00 0. -1.
         21   -1    0    0  501  502  0.00000000000E+00 -0.00000000000E+00 -0.64780304719E+02  0.64780304719E+02  0.00000000000E+00 0. -1.
        -13    1    1    2    0    0 -0.10648420212E+03 -0.29070332651E+02  0.12504381246E+03  0.16679309260E+03  0.10566000000E+00 0.  1.
         13    1    1    2    0    0  0.17567981510E+03 -0.10432903956E+03  0.46987073219E+03  0.51237336198E+03  0.10566000000E+00 0. -1.
         -4    1    1    2    0  502 -0.69195612978E+02  0.13339937221E+03  0.22656297061E+03  0.27187167011E+03  0.00000000000E+00 0. -1.
</event>
<event>
 5    1  0.8445827E-005  0.6445558E+02  0.7818608E-02  0.1242072E+00
         -4   -1    0    0    0  501 -0.00000000000E+00  0.00000000000E+00  0.20933697945E+02  0.20933697945E+02  0.00000000000E+00 0. -1.
         21   -1    0    0  501  502  0.00000000000E+00 -0.00000000000E+00 -0.40006546036E+03  0.40006546036E+03  0.00000000000E+00 0.  1.
        -13    1    1    2    0    0 -0.40296856379E+02  0.19083231528E+02 -0.14309842818E+03  0.14988388062E+03  0.10566000000E+00 0.  1.
         13    1    1    2    0    0  0.58347682665E+02 -0.56670170378E+02 -0.10037833816E+03  0.12919668037E+03  0.10566000000E+00 0. -1.
         -4    1    1    2    0  502 -0.18050826286E+02  0.37586938850E+02 -0.13565499608E+03  0.14191859731E+03  0.00000000000E+00 0. -1.
</event>
<event>
 5    1  0.8445827E-005  0.4236465E+03  0.7818608E-02  0.9796378E-01
         21   -1    0    0  501  502  0.00000000000E+00  0.00000000000E+00  0.35015871166E+03  0.35015871166E+03  0.00000000000E+00 0.  1.
          4   -1    0    0  502    0 -0.00000000000E+00 -0.00000000000E+00 -0.12079591352E+04  0.12079591352E+04  0.00000000000E+00 0.  1.
        -13    1    1    2    0    0  0.49806734279E+03 -0.31446413277E+03 -0.62500477229E+03  0.85883045201E+03  0.10566000000E+00 0.  1.
         13    1    1    2    0    0 -0.26679108116E+03  0.12534701275E+02 -0.16214811388E+03  0.31245259116E+03  0.10566000000E+00 0. -1.
          4    1    1    2  501    0 -0.23127626164E+03  0.30192943149E+03 -0.70647537360E+02  0.38683480367E+03  0.00000000000E+00 0.  1.
</event>
<event>
 5    1  0.8445827E-005  0.5073880E+03  0.7818608E-02  0.9480001E-01
         21   -1    0    0  501  502  0.00000000000E+00  0.00000000000E+00  0.56724391639E+03  0.56724391639E+03  0.00000000000E+00 0. -1.
          4   -1    0    0  502    0 -0.00000000000E+00 -0.00000000000E+00 -0.12408610819E+04  0.12408610819E+04  0.00000000000E+00 0.  1.
        -13    1    1    2    0    0 -0.48046870049E+02  0.16333792289E+03 -0.56015472018E+03  0.58545802623E+03  0.10566000000E+00 0.  1.
         13    1    1    2    0    0  0.88192249646E+02  0.51696196575E+03 -0.13245444222E+03  0.54089900846E+03  0.10566000000E+00 0. -1.
          4    1    1    2  501    0 -0.40145379597E+02 -0.68029988864E+03  0.18991996852E+02  0.68174796364E+03  0.00000000000E+00 0.  1.
</event>
<event>
 5    1  0.1399568E-004  0.4615026E+03  0.7818608E-02  0.9566593E-01
          4   -1    0    0  502    0 -0.00000000000E+00  0.00000000000E+00  0.27365341915E+04  0.27365341915E+04  0.00000000000E+00 0.  1.
         21   -1    0    0  501  502  0.00000000000E+00 -0.00000000000E+00 -0.26491207096E+03  0.26491207096E+03  0.00000000000E+00 0.  1.
        -13    1    1    2    0    0  0.38645115096E+03 -0.16143417104E+02  0.10069948370E+03  0.39968174737E+03  0.10566000000E+00 0.  1.
         13    1    1    2    0    0 -0.43046180657E+03  0.33456110642E+03  0.63767862910E+03  0.83896516377E+03  0.10566000000E+00 0. -1.
          4    1    1    2  501    0  0.44010655612E+02 -0.31841768932E+03  0.17332440078E+04  0.17627993514E+04  0.00000000000E+00 0.  1.
</event>
<event>
 5    1  0.8445827E-005  0.6478430E+03  0.7818608E-02  0.9202280E-01
         21   -1    0    0  501  502  0.00000000000E+00  0.00000000000E+00  0.67595022605E+03  0.67595022605E+03  0.00000000000E+00 0. -1.
         -4   -1    0    0    0  501 -0.00000000000E+00 -0.00000000000E+00 -0.25685481779E+04  0.25685481779E+04  0.00000000000E+00 0. -1.
        -13    1    1    2    0    0 -0.20724582163E+03  0.71000397327E+03 -0.18635476030E+04  0.20049603867E+04  0.10566000000E+00 0.  1.
         13    1    1    2    0    0 -0.21382992200E+02 -0.51822645886E+03 -0.47476654230E+03  0.70314946908E+03  0.10566000000E+00 0. -1.
         -4    1    1    2    0  502  0.22862881383E+03 -0.19177751441E+03  0.44571619340E+03  0.53638854817E+03  0.00000000000E+00 0. -1.
</event>
<event>
 5    1  0.8445827E-005  0.7456826E+02  0.7818608E-02  0.1215227E+00
         21   -1    0    0  501  502  0.00000000000E+00  0.00000000000E+00  0.76662488851E+02  0.76662488851E+02  0.00000000000E+00 0. -1.
          4   -1    0    0  502    0 -0.00000000000E+00 -0.00000000000E+00 -0.10483322754E+03  0.10483322754E+03  0.00000000000E+00 0.  1.
        -13    1    1    2    0    0 -0.37573429575E+02 -0.69706933470E+02 -0.52337058791E+02  0.94921009638E+02  0.10566000000E+00 0.  1.
         13    1    1    2    0    0  0.24141604036E+02  0.61581319579E+02  0.13262324499E+02  0.67460924851E+02  0.10566000000E+00 0. -1.
          4    1    1    2  501    0  0.13431825539E+02  0.81256138913E+01  0.10903995603E+02  0.19113781900E+02  0.00000000000E+00 0.  1.
</event>
<event>
 5    1  0.8445827E-005  0.1109202E+03  0.7818608E-02  0.1151209E+00
         21   -1    0    0  501  502  0.00000000000E+00  0.00000000000E+00  0.43449643226E+03  0.43449643226E+03  0.00000000000E+00 0.  1.
         -4   -1    0    0    0  501 -0.00000000000E+00 -0.00000000000E+00 -0.22131344844E+03  0.22131344844E+03  0.00000000000E+00 0. -1.
        -13    1    1    2    0    0  0.92465494466E+02 -0.41987957926E+02  0.32196730601E+03  0.33760304143E+03  0.10566000000E+00 0.  1.
         13    1    1    2    0    0  0.12594263126E+02  0.10239107665E+03 -0.15693423679E+03  0.18780552144E+03  0.10566000000E+00 0. -1.
         -4    1    1    2    0  502 -0.10505975759E+03 -0.60403118721E+02  0.48149914598E+02  0.13040131783E+03  0.00000000000E+00 0. -1.
</event>
<event>
 5    1  0.8445827E-005  0.9797340E+02  0.7818608E-02  0.1170150E+00
          4   -1    0    0  502    0 -0.00000000000E+00  0.00000000000E+00  0.14160693664E+03  0.14160693664E+03  0.00000000000E+00 0.  1.
         21   -1    0    0  501  502  0.00000000000E+00 -0.00000000000E+00 -0.11765841019E+04  0.11765841019E+04  0.00000000000E+00 0.  1.
        -13    1    1    2    0    0  0.18304877273E+03  0.40737502117E+02  0.54418911633E+02  0.19526347939E+03  0.10566000000E+00 0.  1.
         13    1    1    2    0    0 -0.92619264205E+02 -0.77327002123E+01 -0.13623957302E+03  0.16492227010E+03  0.10566000000E+00 0. -1.
          4    1    1    2  501    0 -0.90429508527E+02 -0.33004801904E+02 -0.95315650391E+03  0.95800528908E+03  0.00000000000E+00 0.  1.
</event>
<event>
 5    1  0.8445827E-005  0.7359983E+02  0.7818608E-02  0.1217587E+00
         21   -1    0    0  501  502  0.00000000000E+00  0.00000000000E+00  0.10937174245E+03  0.10937174245E+03  0.00000000000E+00 0.  1.
         -4   -1    0    0    0  501 -0.00000000000E+00 -0.00000000000E+00 -0.72919306652E+02  0.72919306652E+02  0.00000000000E+00 0. -1.
        -13    1    1    2    0    0  0.39917111344E+02 -0.53834541874E+02  0.48851587058E+02  0.82933843507E+02  0.10566000000E+00 0.  1.
         13    1    1    2    0    0 -0.57048422799E+02  0.51617481396E+02 -0.21432097689E+02  0.79863839784E+02  0.10566000000E+00 0. -1.
         -4    1    1    2    0  502  0.17131311456E+02  0.22170604775E+01  0.90329464255E+01  0.19493365807E+02  0.00000000000E+00 0. -1.
</event>
<event>
 5    1  0.8445827E-005  0.1485916E+03  0.7818608E-02  0.1102509E+00
         21   -1    0    0  501  502  0.00000000000E+00  0.00000000000E+00  0.10236602225E+04  0.10236602225E+04  0.00000000000E+00 0.  1.
         -4   -1    0    0    0  501 -0.00000000000E+00 -0.00000000000E+00 -0.40582578701E+02  0.40582578701E+02  0.00000000000E+00 0. -1.
        -13    1    1    2    0    0 -0.16384676371E+03  0.70255429818E+02  0.35255984383E+03  0.39506966732E+03  0.10566000000E+00 0.  1.
         13    1    1    2    0    0  0.11516574935E+03 -0.60234072717E+02  0.21897265621E+03  0.25463764190E+03  0.10566000000E+00 0. -1.
         -4    1    1    2    0  502  0.48681014359E+02 -0.10021357102E+02  0.41154514371E+03  0.41453549193E+03  0.00000000000E+00 0. -1.
</event>
<event>
 5    1  0.8445827E-005  0.8267110E+03  0.7818608E-02  0.8957059E-01
         -4   -1    0    0    0  501 -0.00000000000E+00  0.00000000000E+00  0.17201398218E+04  0.17201398218E+04  0.00000000000E+00 0. -1.
         21   -1    0    0  501  502  0.00000000000E+00 -0.00000000000E+00 -0.78268770264E+03  0.78268770264E+03  0.00000000000E+00 0.  1.
        -13    1    1    2    0    0 -0.63889453629E+03  0.47721795836E+03 -0.16341885251E+03  0.81402023365E+03  0.10566000000E+00 0.  1.
         13    1    1    2    0    0  0.85771707340E+03 -0.12633609201E+03  0.75890425819E+03  0.11522044395E+04  0.10566000000E+00 0. -1.
         -4    1    1    2    0  502 -0.21882253711E+03 -0.35088186634E+03  0.34196671345E+03  0.53660285127E+03  0.00000000000E+00 0. -1.
</event>
<event>
 5    1  0.8445827E-005  0.6034883E+03  0.7818608E-02  0.9355917E-01
         -4   -1    0    0    0  501 -0.00000000000E+00  0.00000000000E+00  0.22572817826E+04  0.22572817826E+04  0.00000000000E+00 0. -1.
         21   -1    0    0  501  502  0.00000000000E+00 -0.00000000000E+00 -0.61817038806E+03  0.61817038806E+03  0.00000000000E+00 0.  1.
        -13    1    1    2    0    0  0.32684346772E+03  0.84453657415E+03  0.11060249918E+04  0.14294614269E+04  0.10566000000E+00 0.  1.
         13    1    1    2    0    0 -0.24391658195E+03 -0.24677306456E+03  0.73240605242E+03  0.81043869671E+03  0.10566000000E+00 0. -1.
         -4    1    1    2    0  502 -0.82926885762E+02 -0.59776350959E+03 -0.19931964963E+03  0.63555204705E+03  0.00000000000E+00 0. -1.
</event>
<event>
 5    1  0.8445827E-005  0.7252275E+02  0.7818608E-02  0.1220260E+00
         21   -1    0    0  501  502  0.00000000000E+00  0.00000000000E+00  0.27728314991E+03  0.27728314991E+03  0.00000000000E+00 0.  1.
         -4   -1    0    0    0  501 -0.00000000000E+00 -0.00000000000E+00 -0.40589851029E+02  0.40589851029E+02  0.00000000000E+00 0. -1.
        -13    1    1    2    0    0  0.59924716662E+02 -0.21438896418E+02  0.12179045862E+03  0.13741733850E+03  0.10566000000E+00 0.  1.
         13    1    1    2    0    0 -0.65018144492E+02  0.39272931984E+02  0.13226706234E+02  0.77101745905E+02  0.10566000000E+00 0. -1.
         -4    1    1    2    0  502  0.50934278304E+01 -0.17834035566E+02  0.10167613402E+03  0.10335391653E+03  0.00000000000E+00 0. -1.
</event>
<event>
 5    1  0.8445827E-005  0.4891352E+03  0.7818608E-02  0.9612682E-01
         21   -1    0    0  501  502  0.00000000000E+00  0.00000000000E+00  0.42203403239E+03  0.42203403239E+03  0.00000000000E+00 0.  1.
          4   -1    0    0  502    0 -0.00000000000E+00 -0.00000000000E+00 -0.11997308672E+04  0.11997308672E+04  0.00000000000E+00 0.  1.
        -13    1    1    2    0    0 -0.31687965848E+03 -0.49255391253E+03 -0.18364059626E+03  0.61379634608E+03  0.10566000000E+00 0.  1.
         13    1    1    2    0    0  0.30873704449E+03  0.11335399152E+03 -0.32730231393E+02  0.33051319072E+03  0.10566000000E+00 0. -1.
          4    1    1    2  501    0  0.81426139985E+01  0.37919992101E+03 -0.56132600714E+03  0.67745536278E+03  0.00000000000E+00 0.  1.
</event>
<event>
 5    1  0.8445827E-005  0.1729949E+03  0.7818608E-02  0.1081058E+00
         -4   -1    0    0    0  501 -0.00000000000E+00  0.00000000000E+00  0.91389517811E+03  0.91389517811E+03  0.00000000000E+00 0. -1.
         21   -1    0    0  501  502  0.00000000000E+00 -0.00000000000E+00 -0.47108118096E+03  0.47108118096E+03  0.00000000000E+00 0. -1.
        -13    1    1    2    0    0  0.15007304179E+03 -0.79617166223E+02  0.32279548258E+03  0.36477081265E+03  0.10566000000E+00 0.  1.
         13    1    1    2    0    0 -0.11067395741E+03  0.24662040300E+03  0.51939611275E+03  0.58552769459E+03  0.10566000000E+00 0. -1.
         -4    1    1    2    0  502 -0.39399084374E+02 -0.16700323678E+03 -0.39937759818E+03  0.43467785183E+03  0.00000000000E+00 0. -1.
</event>
<event>
 5    1  0.8445827E-005  0.3310667E+03  0.7818608E-02  0.9952488E-01
         21   -1    0    0  501  502  0.00000000000E+00  0.00000000000E+00  0.57614775540E+03  0.57614775540E+03  0.00000000000E+00 0.  1.
          4   -1    0    0  502    0 -0.00000000000E+00 -0.00000000000E+00 -0.12628251392E+04  0.12628251392E+04  0.00000000000E+00 0.  1.
        -13    1    1    2    0    0 -0.15774879253E+03  0.35979807818E+03 -0.41357262862E+03  0.57042236011E+03  0.10566000000E+00 0.  1.
         13    1    1    2    0    0  0.18979391718E+03 -0.24449119714E+03 -0.73176712800E+03  0.79453182268E+03  0.10566000000E+00 0. -1.
          4    1    1    2  501    0 -0.32045124646E+02 -0.11530688105E+03  0.45866237285E+03  0.47401871176E+03  0.00000000000E+00 0.  1.
</event>
<event>
 5    1  0.8445827E-005  0.4430777E+03  0.7818608E-02  0.9758482E-01
         21   -1    0    0  501  502  0.00000000000E+00  0.00000000000E+00  0.28439832201E+03  0.28439832201E+03  0.00000000000E+00 0. -1.
         -4   -1    0    0    0  501 -0.00000000000E+00 -0.00000000000E+00 -0.15613925817E+04  0.15613925817E+04  0.00000000000E+00 0. -1.
        -13    1    1    2    0    0 -0.26580230483E+03  0.58308616513E+01 -0.41397849818E+03  0.49199905724E+03  0.10566000000E+00 0.  1.
         13    1    1    2    0    0 -0.13055553790E+02 -0.39476784721E+03 -0.77123460024E+03  0.86649577059E+03  0.10566000000E+00 0. -1.
         -4    1    1    2    0  502  0.27885785862E+03  0.38893698555E+03 -0.91781161300E+02  0.48729607593E+03  0.00000000000E+00 0. -1.
</event>
<event>
 5    1  0.8445827E-005  0.2872136E+03  0.7818608E-02  0.1038564E+00
          4   -1    0    0  502    0 -0.00000000000E+00  0.00000000000E+00  0.19114520179E+04  0.19114520179E+04  0.00000000000E+00 0.  1.
         21   -1    0    0  501  502  0.00000000000E+00 -0.00000000000E+00 -0.17642129787E+03  0.17642129787E+03  0.00000000000E+00 0.  1.
        -13    1    1    2    0    0 -0.30468129396E+03  0.13170760126E+03  0.13661787474E+04  0.14059238828E+04  0.10566000000E+00 0.  1.
         13    1    1    2    0    0  0.10591999816E+03  0.72520636593E+02  0.37555504870E+03  0.39688776059E+03  0.10566000000E+00 0. -1.
          4    1    1    2  501    0  0.19876129580E+03 -0.20422823785E+03 -0.67030760727E+01  0.28506167240E+03  0.00000000000E+00 0.  1.
</event>
<event>
 5    1  0.8445827E-005  0.5380822E+03  0.7818608E-02  0.9428308E-01
          4   -1    0    0  502    0 -0.00000000000E+00  0.00000000000E+00  0.17560266971E+04  0.17560266971E+04  0.00000000000E+00 0.  1.
         21   -1    0    0  501  502  0.00000000000E+00 -0.00000000000E+00 -0.66124630075E+03  0.66124630075E+03  0.00000000000E+00 0.  1.
        -13    1    1    2    0    0 -0.43648179776E+03  0.28323922516E+03  0.12234984425E+03  0.53451876861E+03  0.10566000000E+00 0.  1.
         13    1    1    2    0    0 -0.12666100982E+03 -0.55462474333E+03  0.11057999867E+04  0.12435615140E+04  0.10566000000E+00 0. -1.
          4    1    1    2  501    0  0.56314280758E+03  0.27138551817E+03 -0.13336943456E+03  0.63919271529E+03  0.00000000000E+00 0.  1.
</event>
<event>
 5    1  0.8445827E-005  0.1012434E+03  0.7818608E-02  0.1173299E+00
         21   -1    0    0  501  502  0.00000000000E+00  0.00000000000E+00  0.14508696314E+04  0.14508696314E+04  0.00000000000E+00 0.  1.
          4   -1    0    0  502    0 -0.00000000000E+00 -0.00000000000E+00 -0.15841728118E+02  0.15841728118E+02  0.00000000000E+00 0.  1.
        -13    1    1    2    0    0  0.13061333391E+03  0.42545741119E+02  0.61933307376E+03  0.63438430820E+03  0.10566000000E+00 0.  1.
         13    1    1    2    0    0 -0.45825161819E+02 -0.63269967022E+02  0.36736291322E+03  0.37557762894E+03  0.10566000000E+00 0. -1.
          4    1    1    2  501    0 -0.84788172092E+02  0.20724225903E+02  0.44833191628E+03  0.45674942235E+03  0.00000000000E+00 0.  1.
</event>
<event>
 5    1  0.8445827E-005  0.6450928E+03  0.7818608E-02  0.9206677E-01
          4   -1    0    0  502    0 -0.00000000000E+00  0.00000000000E+00  0.10142992950E+04  0.10142992950E+04  0.00000000000E+00 0.  1.
         21   -1    0    0  501  502  0.00000000000E+00 -0.00000000000E+00 -0.73049688135E+03  0.73049688135E+03  0.00000000000E+00 0. -1.
        -13    1    1    2    0    0 -0.90573620282E+02  0.68769958907E+03  0.63852399073E+03  0.94278693425E+03  0.10566000000E+00 0.  1.
         13    1    1    2    0    0  0.89181169001E+02 -0.52107515486E+03 -0.17485083614E+03  0.55681722672E+03  0.10566000000E+00 0. -1.
          4    1    1    2  501    0  0.13924512809E+01 -0.16662443421E+03 -0.17987074089E+03  0.24519201542E+03  0.00000000000E+00 0.  1.
</event>
<event>
 5    1  0.8445827E-005  0.6010751E+02  0.7818608E-02  0.1255357E+00
          4   -1    0    0  502    0 -0.00000000000E+00  0.00000000000E+00  0.97075083961E+02  0.97075083961E+02  0.00000000000E+00 0.  1.
         21   -1    0    0  501  502  0.00000000000E+00 -0.00000000000E+00 -0.13578474991E+03  0.13578474991E+03  0.00000000000E+00 0. -1.
        -13    1    1    2    0    0 -0.24881777356E+02  0.53925654922E+02  0.55357580101E+02  0.81188373193E+02  0.10566000000E+00 0.  1.
         13    1    1    2    0    0  0.62327133373E+02 -0.41590745806E+02 -0.80504003188E+02  0.10997894064E+03  0.10566000000E+00 0. -1.
          4    1    1    2  501    0 -0.37445356017E+02 -0.12334909116E+02 -0.13563242863E+02  0.41692520038E+02  0.00000000000E+00 0.  1.
</event>
<event>
 5    1  0.8445827E-005  0.4111701E+03  0.7818608E-02  0.1019763E+00
         -4   -1    0    0    0  501 -0.00000000000E+00  0.00000000000E+00  0.15593698009E+04  0.15593698009E+04  0.00000000000E+00 0. -1.
         21   -1    0    0  501  502  0.00000000000E+00 -0.00000000000E+00 -0.14468571429E+03  0.14468571429E+03  0.00000000000E+00 0. -1.
        -13    1    1    2    0    0  0.62228407337E+02  0.47518025799E+02  0.13665488004E+03  0.15749572965E+03  0.10566000000E+00 0.  1.
         13    1    1    2    0    0 -0.19564415582E+02 -0.42736851752E+03  0.38652120109E+03  0.57656332365E+03  0.10566000000E+00 0. -1.
         -4    1    1    2    0  502 -0.42663991755E+02  0.37985049172E+03  0.89150800546E+03  0.96999646187E+03  0.00000000000E+00 0. -1.
</event>
<event>
 5    1  0.8445827E-005  0.3855795E+03  0.7818608E-02  0.9939202E-01
         -4   -1    0    0    0  501 -0.00000000000E+00  0.00000000000E+00  0.26127485637E+04  0.26127485637E+04  0.00000000000E+00 0. -1.
         21   -1    0    0  501  502  0.00000000000E+00 -0.00000000000E+00 -0.15384663307E+03  0.15384663307E+03  0.00000000000E+00 0. -1.
        -13    1    1    2    0    0 -0.16141418692E+03  0.14800745873E+03  0.70160068923E+03  0.73498590862E+03  0.10566000000E+00 0.  1.
         13    1    1    2    0    0  0.40913474550E+03  0.41118609205E+02  0.22659528935E+03  0.46949698223E+03  0.10566000000E+00 0. -1.
         -4    1    1    2    0  502 -0.24772055858E+03 -0.18912606794E+03  0.15307059521E+04  0.15621123059E+04  0.00000000000E+00 0. -1.
</event>
<event>
 5    1  0.8445827E-005  0.1352578E+03  0.7818608E-02  0.1116635E+00
          4   -1    0    0  502    0 -0.00000000000E+00  0.00000000000E+00  0.24329912395E+03  0.24329912395E+03  0.00000000000E+00 0.  1.
         21   -1    0    0  501  502  0.00000000000E+00 -0.00000000000E+00 -0.10823479646E+03  0.10823479646E+03  0.00000000000E+00 0. -1.
        -13    1    1    2    0    0  0.77483340461E+02 -0.10594176602E+03  0.11306031288E+03  0.17323386317E+03  0.10566000000E+00 0.  1.
         13    1    1    2    0    0 -0.82427059827E+02  0.11567954651E+03  0.48136812058E+02  0.14997713663E+03  0.10566000000E+00 0. -1.
          4    1    1    2  501    0  0.49437193660E+01 -0.97377804931E+01 -0.26132797443E+02  0.28322920618E+02  0.00000000000E+00 0.  1.
</event>
<event>
 5    1  0.8445827E-005  0.1633886E+03  0.7818608E-02  0.1088609E+00
         21   -1    0    0  501  502  0.00000000000E+00  0.00000000000E+00  0.40767865881E+03  0.40767865881E+03  0.00000000000E+00 0.  1.
          4   -1    0    0  502    0 -0.00000000000E+00 -0.00000000000E+00 -0.30966051538E+03  0.30966051538E+03  0.00000000000E+00 0.  1.
        -13    1    1    2    0    0 -0.10013071343E+03  0.13069529597E+03 -0.26564211380E+03  0.31252706115E+03  0.10566000000E+00 0.  1.
         13    1    1    2    0    0  0.10683738125E+03 -0.10318238260E+03  0.28839316468E+03  0.32439398686E+03  0.10566000000E+00 0. -1.
          4    1    1    2  501    0 -0.67066678198E+01 -0.27512913373E+02  0.75267092563E+02  0.80418126181E+02  0.00000000000E+00 0.  1.
</event>
<event>
 5    1  0.8445827E-005  0.1432678E+03  0.7818608E-02  0.1107948E+00
         -4   -1    0    0    0  501 -0.00000000000E+00  0.00000000000E+00  0.14257671469E+03  0.14257671469E+03  0.00000000000E+00 0. -1.
         21   -1    0    0  501  502  0.00000000000E+00 -0.00000000000E+00 -0.22501201088E+03  0.22501201088E+03  0.00000000000E+00 0.  1.
        -13    1    1    2    0    0 -0.13656237048E+03  0.16128522386E+02 -0.13320885809E+03  0.19145239957E+03  0.10566000000E+00 0.  1.
         13    1    1    2    0    0  0.14501485107E+03 -0.44725936374E+01  0.62101600459E+02  0.15781613057E+03  0.10566000000E+00 0. -1.
         -4    1    1    2    0  502 -0.84524805910E+01 -0.11655928749E+02 -0.11328038557E+02  0.18320195432E+02  0.00000000000E+00 0. -1.
</event>
<event>
 5    1  0.8445827E-005  0.2646368E+03  0.7818608E-02  0.1031665E+00
         21   -1    0    0  501  502  0.00000000000E+00  0.00000000000E+00  0.77768307724E+02  0.77768307724E+02  0.00000000000E+00 0.  1.
          4   -1    0    0  502    0 -0.00000000000E+00 -0.00000000000E+00 -0.49683114370E+04  0.49683114370E+04  0.00000000000E+00 0.  1.
        -13    1    1    2    0    0  0.26789280951E+03  0.20870194620E+02 -0.23118229234E+03  0.35446775011E+03  0.10566000000E+00 0.  1.
         13    1    1    2    0    0 -0.45657244890E+02 -0.19745160196E+03 -0.94840588240E+03  0.96981722405E+03  0.10566000000E+00 0. -1.
          4    1    1    2  501    0 -0.22223556462E+03  0.17658140734E+03 -0.37109549545E+04  0.37217947705E+04  0.00000000000E+00 0.  1.
</event>
<event>
 5    1  0.8445827E-005  0.1114947E+03  0.7818608E-02  0.1151751E+00
         -4   -1    0    0    0  501 -0.00000000000E+00  0.00000000000E+00  0.10835553907E+03  0.10835553907E+03  0.00000000000E+00 0. -1.
         21   -1    0    0  501  502  0.00000000000E+00 -0.00000000000E+00 -0.46821955926E+03  0.46821955926E+03  0.00000000000E+00 0. -1.
        -13    1    1    2    0    0 -0.13325241947E+03  0.15018549896E+02  0.55722347258E+01  0.13421186646E+03  0.10566000000E+00 0.  1.
         13    1    1    2    0    0  0.59510194554E+02  0.77772110185E+02 -0.60271931751E+02  0.11498991825E+03  0.10566000000E+00 0. -1.
         -4    1    1    2    0  502  0.73742224916E+02 -0.92790660081E+02 -0.30516432317E+03  0.32737331362E+03  0.00000000000E+00 0. -1.
</event>
<event>
 5    1  0.8445827E-005  0.1624080E+03  0.7818608E-02  0.1089480E+00
         21   -1    0    0  501  502  0.00000000000E+00  0.00000000000E+00  0.14832598566E+03  0.14832598566E+03  0.00000000000E+00 0.  1.
         -4   -1    0    0    0  501 -0.00000000000E+00 -0.00000000000E+00 -0.22983722044E+03  0.22983722044E+03  0.00000000000E+00 0. -1.
        -13    1    1    2    0    0  0.85531374179E+02  0.13908332552E+03 -0.98581431117E+02  0.19073043053E+03  0.10566000000E+00 0.  1.
         13    1    1    2    0    0 -0.74447173061E+02 -0.14298106882E+03 -0.62468779271E+01  0.16132266507E+03  0.10566000000E+00 0. -1.
         -4    1    1    2    0  502 -0.11084201118E+02  0.38977433035E+01  0.23317074268E+02  0.26110110488E+02  0.00000000000E+00 0. -1.
</event>
<event>
 5    1  0.8445827E-005  0.3315740E+03  0.7818608E-02  0.1007558E+00
          4   -1    0    0  502    0 -0.00000000000E+00  0.00000000000E+00  0.20903006122E+04  0.20903006122E+04  0.00000000000E+00 0.  1.
         21   -1    0    0  501  502  0.00000000000E+00 -0.00000000000E+00 -0.30427595837E+03  0.30427595837E+03  0.00000000000E+00 0.  1.
        -13    1    1    2    0    0 -0.34348887779E+03  0.38644384525E+03  0.72102730187E+03  0.88724508221E+03  0.10566000000E+00 0.  1.
         13    1    1    2    0    0  0.18021859374E+03 -0.12687426618E+03  0.11643215055E+04  0.11849980592E+04  0.10566000000E+00 0. -1.
          4    1    1    2  501    0  0.16327028406E+03 -0.25956957906E+03 -0.99324153611E+02  0.32233342911E+03  0.00000000000E+00 0.  1.
</event>
<event>
 5    1  0.8445827E-005  0.4677184E+02  0.7818608E-02  0.1305521E+00
         -4   -1    0    0    0  501 -0.00000000000E+00  0.00000000000E+00  0.48123054711E+02  0.48123054711E+02  0.00000000000E+00 0. -1.
         21   -1    0    0  501  502  0.00000000000E+00 -0.00000000000E+00 -0.12938906055E+03  0.12938906055E+03  0.00000000000E+00 0.  1.
        -13    1    1    2    0    0  0.44247675854E+02  0.27261761063E+02 -0.75309047940E+02  0.91501498897E+02  0.10566000000E+00 0.  1.
         13    1    1    2    0    0 -0.44231501753E+02 -0.13195695834E+02  0.24648924834E+02  0.52327170718E+02  0.10566000000E+00 0. -1.
         -4    1    1    2    0  502 -0.16174100712E-01 -0.14066065230E+02 -0.30605882733E+02  0.33683445644E+02  0.00000000000E+00 0. -1.
</event>
<event>
 5    1  0.8445827E-005  0.7942700E+02  0.7818608E-02  0.1203961E+00
          4   -1    0    0  502    0 -0.00000000000E+00  0.00000000000E+00  0.39034860335E+03  0.39034860335E+03  0.00000000000E+00 0.  1.
         21   -1    0    0  501  502  0.00000000000E+00 -0.00000000000E+00 -0.36537824145E+02  0.36537824145E+02  0.00000000000E+00 0.  1.
        -13    1    1    2    0    0 -0.44196837526E+02 -0.74131813704E+02  0.16089588163E+03  0.18258253514E+03  0.10566000000E+00 0.  1.
         13    1    1    2    0    0  0.65448423459E+02  0.42620149212E+02  0.19088095443E+03  0.20624141965E+03  0.10566000000E+00 0. -1.
          4    1    1    2  501    0 -0.21251585933E+02  0.31511664492E+02  0.20339431536E+01  0.38062472706E+02  0.00000000000E+00 0.  1.
</event>
<event>
 5    1  0.8445827E-005  0.4648616E+03  0.7818608E-02  0.9558503E-01
          4   -1    0    0  502    0 -0.00000000000E+00  0.00000000000E+00  0.94131988960E+03  0.94131988960E+03  0.00000000000E+00 0.  1.
         21   -1    0    0  501  502  0.00000000000E+00 -0.00000000000E+00 -0.57387241150E+03  0.57387241150E+03  0.00000000000E+00 0.  1.
        -13    1    1    2    0    0  0.22866656432E+03  0.62450879686E+03  0.12450129866E+03  0.67660935518E+03  0.10566000000E+00 0.  1.
         13    1    1    2    0    0  0.89175387626E+02 -0.38983843915E+03  0.17985315972E+03  0.43848994130E+03  0.10566000000E+00 0. -1.
          4    1    1    2  501    0 -0.31784195195E+03 -0.23467035771E+03  0.63093019725E+02  0.40009300461E+03  0.00000000000E+00 0.  1.
</event>
<event>
 5    1  0.8445827E-005  0.6372469E+02  0.7818608E-02  0.1244222E+00
         -4   -1    0    0    0  501 -0.00000000000E+00  0.00000000000E+00  0.32312489546E+02  0.32312489546E+02  0.00000000000E+00 0. -1.
         21   -1    0    0  501  502  0.00000000000E+00 -0.00000000000E+00 -0.29132018446E+03  0.29132018446E+03  0.00000000000E+00 0.  1.
        -13    1    1    2    0    0 -0.68522770168E+02  0.24540965522E+02 -0.14198610187E+03  0.15955467185E+03  0.10566000000E+00 0.  1.
         13    1    1    2    0    0  0.50593948932E+02 -0.35339192206E+02 -0.20073631633E+02  0.64896594867E+02  0.10566000000E+00 0. -1.
         -4    1    1    2    0  502  0.17928821236E+02  0.10798226684E+02 -0.96947961410E+02  0.99181407289E+02  0.00000000000E+00 0. -1.
</event>
<event>
 5    1  0.8445827E-005  0.2708484E+03  0.7818608E-02  0.1020121E+00
         -4   -1    0    0    0  501 -0.00000000000E+00  0.00000000000E+00  0.21066842907E+04  0.21066842907E+04  0.00000000000E+00 0. -1.
         21   -1    0    0  501  502  0.00000000000E+00 -0.00000000000E+00 -0.29538049136E+03  0.29538049136E+03  0.00000000000E+00 0. -1.
        -13    1    1    2    0    0 -0.85354907405E+02 -0.23172819179E+03  0.11443395601E+04  0.11706820470E+04  0.10566000000E+00 0.  1.
         13    1    1    2    0    0 -0.68447796333E+02  0.37181285368E+03  0.86509312891E+03  0.94409535103E+03  0.10566000000E+00 0. -1.
         -4    1    1    2    0  502  0.15380270374E+03 -0.14008466188E+03 -0.19812888962E+03  0.28728738412E+03  0.00000000000E+00 0. -1.
</event>
<event>
 5    1  0.8445827E-005  0.1328598E+03  0.7818608E-02  0.1119364E+00
         -4   -1    0    0    0  501 -0.00000000000E+00  0.00000000000E+00  0.59924276789E+02  0.59924276789E+02  0.00000000000E+00 0. -1.
         21   -1    0    0  501  502  0.00000000000E+00 -0.00000000000E+00 -0.43805748508E+03  0.43805748508E+03  0.00000000000E+00 0.  1.
        -13    1    1    2    0    0  0.11055720557E+03  0.49742731074E+02 -0.27367016849E+03  0.29932024202E+03  0.10566000000E+00 0.  1.
         13    1    1    2    0    0 -0.12064896542E+03 -0.65246276618E+02 -0.58500424138E+02  0.14911592892E+03  0.10566000000E+00 0. -1.
         -4    1    1    2    0  502  0.10091759856E+02  0.15503545544E+02 -0.45962615666E+02  0.49545590927E+02  0.00000000000E+00 0. -1.
</event>
<event>
 5    1  0.8445827E-005  0.3542970E+03  0.7818608E-02  0.9871207E-01
         21   -1    0    0  501  502  0.00000000000E+00  0.00000000000E+00  0.22152563947E+03  0.22152563947E+03  0.00000000000E+00 0. -1.
          4   -1    0    0  502    0 -0.00000000000E+00 -0.00000000000E+00 -0.66644441590E+03  0.66644441590E+03  0.00000000000E+00 0.  1.
        -13    1    1    2    0    0  0.58155932111E+01 -0.35107281078E+03 -0.23054722351E+03  0.42004520355E+03  0.10566000000E+00 0.  1.
         13    1    1    2    0    0  0.21033549911E+02  0.35738965627E+03 -0.23940269121E+03  0.43067788003E+03  0.10566000000E+00 0. -1.
          4    1    1    2  501    0 -0.26849143122E+02 -0.63168454904E+01  0.25031138288E+02  0.37246971787E+02  0.00000000000E+00 0.  1.
</event>
<event>
 5    1  0.8445827E-005  0.4743555E+03  0.7818608E-02  0.9943207E-01
         21   -1    0    0  501  502  0.00000000000E+00  0.00000000000E+00  0.40688224111E+03  0.40688224111E+03  0.00000000000E+00 0.  1.
          4   -1    0    0  502    0 -0.00000000000E+00 -0.00000000000E+00 -0.99233899378E+03  0.99233899378E+03  0.00000000000E+00 0.  1.
        -13    1    1    2    0    0 -0.15161470406E+03  0.47449146967E+03  0.13218438034E+03  0.51536578742E+03  0.10566000000E+00 0.  1.
         13    1    1    2    0    0 -0.11239640938E+02 -0.11551964117E+03 -0.11241448669E+03  0.16158015040E+03  0.10566000000E+00 0. -1.
          4    1    1    2  501    0  0.16285434499E+03 -0.35897182850E+03 -0.60522664632E+03  0.72227529707E+03  0.00000000000E+00 0.  1.
</event>
<event>
 5    1  0.8445827E-005  0.2561545E+02  0.7818608E-02  0.1452206E+00
          4   -1    0    0  502    0 -0.00000000000E+00  0.00000000000E+00  0.61496808637E+02  0.61496808637E+02  0.00000000000E+00 0.  1.
         21   -1    0    0  501  502  0.00000000000E+00 -0.00000000000E+00 -0.25109515880E+02  0.25109515880E+02  0.00000000000E+00 0.  1.
        -13    1    1    2    0    0  0.22678344450E+02 -0.80295434371E+00  0.17638510940E+02  0.28741612253E+02  0.10566000000E+00 0.  1.
         13    1    1    2    0    0 -0.85279742381E+00 -0.22522577149E+02  0.10545493168E+02  0.24883977477E+02  0.10566000000E+00 0. -1.
          4    1    1    2  501    0 -0.21825547026E+02  0.23325531493E+02  0.82032886483E+01  0.32980734787E+02  0.00000000000E+00 0.  1.
</event>
<event>
 5    1  0.8445827E-005  0.2811042E+02  0.7818608E-02  0.1459711E+00
          4   -1    0    0  502    0 -0.00000000000E+00  0.00000000000E+00  0.74146433553E+02  0.74146433553E+02  0.00000000000E+00 0.  1.
         21   -1    0    0  501  502  0.00000000000E+00 -0.00000000000E+00 -0.92618407707E+02  0.92618407707E+02  0.00000000000E+00 0. -1.
        -13    1    1    2    0    0  0.37532681274E+02  0.15559115670E+02  0.57588839619E+02  0.70478889440E+02  0.10566000000E+00 0.  1.
         13    1    1    2    0    0 -0.11890567100E+02 -0.94454126576E+01 -0.66551883546E+02  0.68262477055E+02  0.10566000000E+00 0. -1.
          4    1    1    2  501    0 -0.25642114174E+02 -0.61137030122E+01 -0.95089302267E+01  0.28023474765E+02  0.00000000000E+00 0.  1.
</event>
<event>
 5    1  0.8445827E-005  0.3884181E+03  0.7818608E-02  0.1021221E+00
         21   -1    0    0  501  502  0.00000000000E+00  0.00000000000E+00  0.15576170050E+03  0.15576170050E+03  0.00000000000E+00 0. -1.
         -4   -1    0    0    0  501 -0.00000000000E+00 -0.00000000000E+00 -0.17988624151E+04  0.17988624151E+04  0.00000000000E+00 0. -1.
        -13    1    1    2    0    0  0.65540417658E+01  0.88468871431E+02 -0.13105557363E+03  0.15825697842E+03  0.10566000000E+00 0.  1.
         13    1    1    2    0    0  0.12832467943E+02 -0.45851542385E+03 -0.12786516052E+04  0.13584369712E+04  0.10566000000E+00 0. -1.
         -4    1    1    2    0  502 -0.19386509709E+02  0.37004655242E+03 -0.23339353575E+03  0.43793016595E+03  0.00000000000E+00 0. -1.
</event>
<event>
 5    1  0.8445827E-005  0.1519311E+03  0.7818608E-02  0.1099223E+00
         -4   -1    0    0    0  501 -0.00000000000E+00  0.00000000000E+00  0.50796606353E+03  0.50796606353E+03  0.00000000000E+00 0. -1.
         21   -1    0    0  501  502  0.00000000000E+00 -0.00000000000E+00 -0.48322035300E+03  0.48322035300E+03  0.00000000000E+00 0.  1.
        -13    1    1    2    0    0 -0.14119222486E+03 -0.13746728616E+00 -0.25160803983E+03  0.28851668951E+03  0.10566000000E+00 0.  1.
         13    1    1    2    0    0  0.15185842824E+03 -0.13140979353E+02  0.47727696328E+03  0.50102592589E+03  0.10566000000E+00 0. -1.
         -4    1    1    2    0  502 -0.10666203382E+02  0.13278446639E+02 -0.20092321293E+03  0.20164380113E+03  0.00000000000E+00 0. -1.
</event>
<event>
 5    1  0.8445827E-005  0.2086863E+03  0.7818608E-02  0.1054339E+00
         21   -1    0    0  501  502  0.00000000000E+00  0.00000000000E+00  0.10468997342E+04  0.10468997342E+04  0.00000000000E+00 0. -1.
          4   -1    0    0  502    0 -0.00000000000E+00 -0.00000000000E+00 -0.82830409289E+02  0.82830409289E+02  0.00000000000E+00 0.  1.
        -13    1    1    2    0    0  0.23086000407E+03 -0.85081619122E+02  0.27455341412E+03  0.36866626067E+03  0.10566000000E+00 0.  1.
         13    1    1    2    0    0 -0.17418256582E+03 -0.44704001793E+02  0.41061178971E+03  0.44826339023E+03  0.10566000000E+00 0. -1.
          4    1    1    2  501    0 -0.56677438247E+02  0.12978562092E+03  0.27890412112E+03  0.31280049262E+03  0.00000000000E+00 0.  1.
</event>
<event>
 5    1  0.1467690E-004  0.2987895E+03  0.7818608E-02  0.1044750E+00
          4   -1    0    0  502    0 -0.00000000000E+00  0.00000000000E+00  0.15845349489E+04  0.15845349489E+04  0.00000000000E+00 0.  1.
         21   -1    0    0  501  502  0.00000000000E+00 -0.00000000000E+00 -0.24518523919E+03  0.24518523919E+03  0.00000000000E+00 0.  1.
        -13    1    1    2    0    0  0.32242363514E+03  0.64264151486E+02  0.91288112056E+03  0.97027770927E+03  0.10566000000E+00 0.  1.
         13    1    1    2    0    0 -0.26803297669E+02 -0.90709224933E+02  0.53509312032E+03  0.54338866278E+03  0.10566000000E+00 0. -1.
          4    1    1    2  501    0 -0.29562033747E+03  0.26445073447E+02 -0.10862453121E+03  0.31605381601E+03  0.00000000000E+00 0.  1.
</event>
<event>
 5    1  0.8445827E-005  0.6197563E+02  0.7818608E-02  0.1249500E+00
         21   -1    0    0  501  502  0.00000000000E+00  0.00000000000E+00  0.39238730290E+02  0.39238730290E+02  0.00000000000E+00 0.  1.
         -4   -1    0    0    0  501 -0.00000000000E+00 -0.00000000000E+00 -0.24680995092E+03  0.24680995092E+03  0.00000000000E+00 0. -1.
        -13    1    1    2    0    0  0.13188772188E+02 -0.72587378529E+02 -0.31647637499E+02  0.80277365159E+02  0.10566000000E+00 0.  1.
         13    1    1    2    0    0 -0.50423619486E+01  0.59477984754E+02 -0.18013931523E+03  0.18977154724E+03  0.10566000000E+00 0. -1.
         -4    1    1    2    0  502 -0.81464102392E+01  0.13109393775E+02  0.42157321017E+01  0.15999768814E+02  0.00000000000E+00 0. -1.
</event>
<event>
 5    1  0.8445827E-005  0.4869457E+02  0.7818608E-02  0.1300589E+00
          4   -1    0    0  502    0 -0.00000000000E+00  0.00000000000E+00  0.49641381985E+02  0.49641381985E+02  0.00000000000E+00 0.  1.
         21   -1    0    0  501  502  0.00000000000E+00 -0.00000000000E+00 -0.17187338609E+03  0.17187338609E+03  0.00000000000E+00 0. -1.
        -13    1    1    2    0    0  0.41002075345E+02 -0.34157283952E+01  0.18136907073E+02  0.44964385298E+02  0.10566000000E+00 0.  1.
         13    1    1    2    0    0 -0.27630559615E+01  0.45504074611E+02 -0.88643920890E+02  0.99679542331E+02  0.10566000000E+00 0. -1.
          4    1    1    2  501    0 -0.38239019383E+02 -0.42088346216E+02 -0.51724990292E+02  0.76870840448E+02  0.00000000000E+00 0.  1.
</event>
<event>
 5    1  0.8445827E-005  0.3502333E+02  0.7818608E-02  0.1368589E+00
         21   -1    0    0  501  502  0.00000000000E+00  0.00000000000E+00  0.14554489306E+03  0.14554489306E+03  0.00000000000E+00 0. -1.
         -4   -1    0    0    0  501 -0.00000000000E+00 -0.00000000000E+00 -0.20620321227E+02  0.20620321227E+02  0.00000000000E+00 0. -1.
        -13    1    1    2    0    0  0.40472638550E+02 -0.32720520732E+01  0.76278696617E+02  0.86412912910E+02  0.10566000000E+00 0.  1.
         13    1    1    2    0    0 -0.33322796215E+02 -0.65815854133E+01  0.48687549327E+01  0.34313874057E+02  0.10566000000E+00 0. -1.
         -4    1    1    2    0  502 -0.71498423342E+01  0.98536374866E+01  0.43777120281E+02  0.45438427319E+02  0.00000000000E+00 0. -1.
</event>
<event>
 5    1  0.8445827E-005  0.2479456E+03  0.7818608E-02  0.1040723E+00
         -4   -1    0    0    0  501 -0.00000000000E+00  0.00000000000E+00  0.66682818113E+03  0.66682818113E+03  0.00000000000E+00 0. -1.
         21   -1    0    0  501  502  0.00000000000E+00 -0.00000000000E+00 -0.23816629433E+04  0.23816629433E+04  0.00000000000E+00 0. -1.
        -13    1    1    2    0    0 -0.42646769557E+03  0.91677532007E+02  0.29127263944E+03  0.52451809015E+03  0.10566000000E+00 0.  1.
         13    1    1    2    0    0  0.14088883254E+03 -0.88879200444E+02  0.22204935911E+03  0.27758801208E+03  0.10566000000E+00 0. -1.
         -4    1    1    2    0  502  0.28557886303E+03 -0.27983315624E+01 -0.22281567607E+04  0.22463850222E+04  0.00000000000E+00 0. -1.
</event>
<event>
 5    1  0.8445827E-005  0.5992039E+03  0.7818608E-02  0.9283622E-01
         -4   -1    0    0    0  501 -0.00000000000E+00  0.00000000000E+00  0.22722471528E+04  0.22722471528E+04  0.00000000000E+00 0. -1.
         21   -1    0    0  501  502  0.00000000000E+00 -0.00000000000E+00 -0.18546159815E+03  0.18546159815E+03  0.00000000000E+00 0.  1.
        -13    1    1    2    0    0  0.52599729614E+03 -0.29923806576E+03  0.11462084111E+04  0.12961521163E+04  0.10566000000E+00 0.  1.
         13    1    1    2    0    0 -0.50142284376E+03  0.31627867475E+03  0.95825775316E+03  0.11268163120E+04  0.10566000000E+00 0. -1.
         -4    1    1    2    0  502 -0.24574452378E+02 -0.17040608993E+02 -0.17680609637E+02  0.34740322706E+02  0.00000000000E+00 0. -1.
</event>
<event>
 5    1  0.8445827E-005  0.3447812E+03  0.7818608E-02  0.1006093E+00
         21   -1    0    0  501  502  0.00000000000E+00  0.00000000000E+00  0.44846732824E+03  0.44846732824E+03  0.00000000000E+00 0.  1.
          4   -1    0    0  502    0 -0.00000000000E+00 -0.00000000000E+00 -0.82770927241E+03  0.82770927241E+03  0.00000000000E+00 0.  1.
        -13    1    1    2    0    0  0.49424454118E+03  0.16563536732E+03 -0.45559424615E+03  0.69229969644E+03  0.10566000000E+00 0.  1.
         13    1    1    2    0    0 -0.19524137771E+03 -0.64218591040E+02 -0.92998183117E+02  0.22559232308E+03  0.10566000000E+00 0. -1.
          4    1    1    2  501    0 -0.29900316347E+03 -0.10141677628E+03  0.16935048509E+03  0.35828458114E+03  0.00000000000E+00 0.  1.
</event>
<event>
 5    1  0.8445827E-005  0.2620972E+03  0.7818608E-02  0.1024970E+00
         -4   -1    0    0    0  501 -0.00000000000E+00  0.00000000000E+00  0.23914146114E+04  0.23914146114E+04  0.00000000000E+00 0. -1.
         21   -1    0    0  501  502  0.00000000000E+00 -0.00000000000E+00 -0.75288246692E+02  0.75288246692E+02  0.00000000000E+00 0. -1.
        -13    1    1    2    0    0  0.19727457157E+03 -0.17666937526E+03  0.78191084298E+03  0.82553855287E+03  0.10566000000E+00 0.  1.
         13    1    1    2    0    0  0.38301519913E+02  0.30768900167E+03  0.73538923536E+03  0.79808324555E+03  0.10566000000E+00 0. -1.
         -4    1    1    2    0  502 -0.23557609148E+03 -0.13101962642E+03  0.79882628634E+03  0.84308105964E+03  0.00000000000E+00 0. -1.
</event>
<event>
 5    1  0.8445827E-005  0.4875259E+03  0.7818608E-02  0.9685453E-01
         -4   -1    0    0    0  501 -0.00000000000E+00  0.00000000000E+00  0.14107163263E+04  0.14107163263E+04  0.00000000000E+00 0. -1.
         21   -1    0    0  501  502  0.00000000000E+00 -0.00000000000E+00 -0.31806984057E+03  0.31806984057E+03  0.00000000000E+00 0. -1.
        -13    1    1    2    0    0 -0.13678772779E+03  0.21767896770E+03  0.77600514257E+02  0.26854583673E+03  0.10566000000E+00 0.  1.
         13    1    1    2    0    0  0.28502975136E+03  0.30589336130E+03  0.74136789971E+03  0.85113987190E+03  0.10566000000E+00 0. -1.
         -4    1    1    2    0  502 -0.14824202357E+03 -0.52357232899E+03  0.27367807172E+03  0.60910045820E+03  0.00000000000E+00 0. -1.
</event>
<event>
 5    1  0.8445827E-005  0.2491495E+03  0.7818608E-02  0.1099966E+00
         21   -1    0    0  501  502  0.00000000000E+00  0.00000000000E+00  0.22929210356E+03  0.22929210356E+03  0.00000000000E+00 0.  1.
          4   -1    0    0  502    0 -0.00000000000E+00 -0.00000000000E+00 -0.13403299891E+04  0.13403299891E+04  0.00000000000E+00 0.  1.
        -13    1    1    2    0    0 -0.11280793474E+03 -0.21989277766E+03  0.13704551913E+03  0.28259502700E+03  0.10566000000E+00 0.  1.
         13    1    1    2    0    0 -0.63734702315E+01 -0.33156531555E+02 -0.16405263209E+03  0.16749105638E+03  0.10566000000E+00 0. -1.
          4    1    1    2  501    0  0.11918140497E+03  0.25304930922E+03 -0.10840307726E+04  0.11195360093E+04  0.00000000000E+00 0.  1.
</event>
<event>
 5    1  0.8445827E-005  0.1261417E+03  0.7818608E-02  0.1127352E+00
          4   -1    0    0  502    0 -0.00000000000E+00  0.00000000000E+00  0.50262791284E+03  0.50262791284E+03  0.00000000000E+00 0.  1.
         21   -1    0    0  501  502  0.00000000000E+00 -0.00000000000E+00 -0.66635467134E+02  0.66635467134E+02  0.00000000000E+00 0. -1.
        -13    1    1    2    0    0 -0.11970915772E+03 -0.68302859859E+02  0.22954736007E+03  0.26774533570E+03  0.10566000000E+00 0.  1.
         13    1    1    2    0    0  0.11515741203E+03 -0.60852369390E+01  0.45158117921E+02  0.12384476748E+03  0.10566000000E+00 0. -1.
          4    1    1    2  501    0  0.45517456967E+01  0.74388096798E+02  0.16128696772E+03  0.17767327680E+03  0.00000000000E+00 0.  1.
</event>
<event>
 5    1  0.8445827E-005  0.2388853E+03  0.7818608E-02  0.1036319E+00
          4   -1    0    0  502    0 -0.00000000000E+00  0.00000000000E+00  0.19315597517E+04  0.19315597517E+04  0.00000000000E+00 0.  1.
         21   -1    0    0  501  502  0.00000000000E+00 -0.00000000000E+00 -0.22259515258E+03  0.22259515258E+03  0.00000000000E+00 0.  1.
        -13    1    1    2    0    0  0.23111220837E+03  0.14974314346E+03  0.12360702590E+04  0.12663749675E+04  0.10566000000E+00 0.  1.
         13    1    1    2    0    0 -0.21509080095E+03 -0.64975135954E+01  0.63522960540E+03  0.67068840237E+03  0.10566000000E+00 0. -1.
          4    1    1    2  501    0 -0.16021407421E+02 -0.14324562986E+03 -0.16233526529E+03  0.21709153444E+03  0.00000000000E+00 0.  1.
</event>
<event>
 5    1  0.8445827E-005  0.1537921E+03  0.7818608E-02  0.1097431E+00
         21   -1    0    0  501  502  0.00000000000E+00  0.00000000000E+00  0.16671035519E+03  0.16671035519E+03  0.00000000000E+00 0.  1.
         -4   -1    0    0    0  501 -0.00000000000E+00 -0.00000000000E+00 -0.40913010848E+03  0.40913010848E+03  0.00000000000E+00 0. -1.
        -13    1    1    2    0    0  0.10132711533E+03  0.12806045711E+03  0.24907051173E+02  0.16518788497E+03  0.10566000000E+00 0.  1.
         13    1    1    2    0    0 -0.93124596630E+02 -0.12023891355E+03 -0.32131384450E+03  0.35548865617E+03  0.10566000000E+00 0. -1.
         -4    1    1    2    0  502 -0.82025187039E+01 -0.78215435570E+01  0.53987040042E+02  0.55163922533E+02  0.00000000000E+00 0. -1.
</event>
<event>
 5    1  0.8445827E-005  0.1803880E+03  0.7818608E-02  0.1074482E+00
          4   -1    0    0  502    0 -0.00000000000E+00  0.00000000000E+00  0.19022965151E+03  0.19022965151E+03  0.00000000000E+00 0.  1.
         21   -1    0    0  501  502  0.00000000000E+00 -0.00000000000E+00 -0.37351017980E+03  0.37351017980E+03  0.00000000000E+00 0. -1.
        -13    1    1    2    0    0  0.20755337324E+03  0.71654412283E+02 -0.10515252730E+03  0.24345394371E+03  0.10566000000E+00 0.  1.
         13    1    1    2    0    0 -0.16733918113E+03  0.42145835291E+02  0.68080660378E+01  0.17269925854E+03  0.10566000000E+00 0. -1.
          4    1    1    2  501    0 -0.40214192115E+02 -0.11380024757E+03 -0.84936067036E+02  0.14758662906E+03  0.00000000000E+00 0.  1.
</event>
<event>
 5    1  0.8445827E-005  0.3473034E+03  0.7818608E-02  0.9982127E-01
         -4   -1    0    0    0  501 -0.00000000000E+00  0.00000000000E+00  0.65267851110E+03  0.65267851110E+03  0.00000000000E+00 0. -1.
         21   -1    0    0  501  502  0.00000000000E+00 -0.00000000000E+00 -0.72124896398E+03  0.72124896398E+03  0.00000000000E+00 0. -1.
        -13    1    1    2    0    0 -0.22201530434E+03  0.13541406784E+03  0.16356516912E+03  0.30721546322E+03  0.10566000000E+00 0.  1.
         13    1    1    2    0    0  0.51773854962E+03 -0.23578924623E+03  0.13501988429E+03  0.58470518615E+03  0.10566000000E+00 0. -1.
         -4    1    1    2    0  502 -0.29572324527E+03  0.10037517839E+03 -0.36715550628E+03  0.48200682570E+03  0.00000000000E+00 0. -1.
</event>
<event>
 5    1  0.8445827E-005  0.9943494E+02  0.7818608E-02  0.1165494E+00
         -4   -1    0    0    0  501 -0.00000000000E+00  0.00000000000E+00  0.13037718986E+03  0.13037718986E+03  0.00000000000E+00 0. -1.
         21   -1    0    0  501  502  0.00000000000E+00 -0.00000000000E+00 -0.16072471101E+03  0.16072471101E+03  0.00000000000E+00 0. -1.
        -13    1    1    2    0    0 -0.97956773924E+02  0.36381128097E+02 -0.51363306078E+02  0.11643588972E+03  0.10566000000E+00 0.  1.
         13    1    1    2    0    0  0.97357177226E+02 -0.14447899094E+02  0.70143900308E+02  0.12086082765E+03  0.10566000000E+00 0. -1.
         -4    1    1    2    0  502  0.59959669740E+00 -0.21933229002E+02 -0.49128115382E+02  0.53805183501E+02  0.00000000000E+00 0. -1.
</event>
<event>
 5    1  0.8445827E-005  0.8137570E+02  0.7818608E-02  0.1213353E+00
          4   -1    0    0  502    0 -0.00000000000E+00  0.00000000000E+00  0.45497712699E+02  0.45497712699E+02  0.00000000000E+00 0.  1.
         21   -1    0    0  501  502  0.00000000000E+00 -0.00000000000E+00 -0.63459263394E+03  0.63459263394E+03  0.00000000000E+00 0.  1.
        -13    1    1    2    0    0  0.31683096672E+02 -0.10173421378E+03 -0.65267541185E+02  0.12495411944E+03  0.10566000000E+00 0.  1.
         13    1    1    2    0    0 -0.54458305951E+02  0.24749433231E+02 -0.61141192408E+02  0.85536530824E+02  0.10566000000E+00 0. -1.
          4    1    1    2  501    0  0.22775209279E+02  0.76984780553E+02 -0.46268618765E+03  0.46959969637E+03  0.00000000000E+00 0.  1.
</event>
<event>
 5    1  0.8445827E-005  0.2827805E+03  0.7818608E-02  0.1014677E+00
          4   -1    0    0  502    0 -0.00000000000E+00  0.00000000000E+00  0.15477511126E+04  0.15477511126E+04  0.00000000000E+00 0.  1.
         21   -1    0    0  501  502  0.00000000000E+00 -0.00000000000E+00 -0.40799881098E+03  0.40799881098E+03  0.00000000000E+00 0.  1.
        -13    1    1    2    0    0  0.14986095421E+03 -0.28815154256E+03  0.60042192342E+03  0.68263908060E+03  0.10566000000E+00 0.  1.
         13    1    1    2    0    0 -0.28095599236E+02  0.26766378456E+03  0.87499770758E+03  0.91545303740E+03  0.10566000000E+00 0. -1.
          4    1    1    2  501    0 -0.12176535498E+03  0.20487758005E+02 -0.33566732936E+03  0.35765780560E+03  0.00000000000E+00 0.  1.
</event>
<event>
 5    1  0.8445827E-005  0.4101275E+03  0.7818608E-02  0.9762329E-01
         21   -1    0    0  501  502  0.00000000000E+00  0.00000000000E+00  0.39988725692E+03  0.39988725692E+03  0.00000000000E+00 0. -1.
         -4   -1    0    0    0  501 -0.00000000000E+00 -0.00000000000E+00 -0.13286912396E+04  0.13286912396E+04  0.00000000000E+00 0. -1.
        -13    1    1    2    0    0 -0.26620087807E+03 -0.19642165581E+03 -0.44340866445E+03  0.55322294712E+03  0.10566000000E+00 0.  1.
         13    1    1    2    0    0 -0.34434079007E+03 -0.56487131990E+02  0.10557719360E+02  0.34910292520E+03  0.10566000000E+00 0. -1.
         -4    1    1    2    0  502  0.61054166813E+03  0.25290878780E+03 -0.49595303759E+03  0.82625262418E+03  0.00000000000E+00 0. -1.
</event>
<event>
 5    1  0.8445827E-005  0.7597337E+03  0.7818608E-02  0.9416830E-01
         21   -1    0    0  501  502  0.00000000000E+00  0.00000000000E+00  0.90099150653E+03  0.90099150653E+03  0.00000000000E+00 0. -1.
         -4   -1    0    0    0  501 -0.00000000000E+00 -0.00000000000E+00 -0.20388899016E+04  0.20388899016E+04  0.00000000000E+00 0. -1.
        -13    1    1    2    0    0  0.15998590274E+03  0.85266492295E+03 -0.13514139265E+04  0.16059117572E+04  0.10566000000E+00 0.  1.
         13    1    1    2    0    0 -0.80669697004E+02 -0.97082905507E+02 -0.36037589968E+03  0.38184223285E+03  0.10566000000E+00 0. -1.
         -4    1    1    2    0  502 -0.79316205737E+02 -0.75558201744E+03  0.57389143113E+03  0.95212741810E+03  0.00000000000E+00 0. -1.
</event>
<event>
 5    1  0.8445827E-005  0.3764444E+03  0.7818608E-02  0.9976662E-01
         21   -1    0    0  501  502  0.00000000000E+00  0.00000000000E+00  0.48872631532E+03  0.48872631532E+03  0.00000000000E+00 0. -1.
         -4   -1    0    0    0  501 -0.00000000000E+00 -0.00000000000E+00 -0.84052308516E+03  0.84052308516E+03  0.00000000000E+00 0. -1.
        -13    1    1    2    0    0 -0.12564053814E+03  0.16566694749E+03 -0.22853992715E+03  0.30896859352E+03  0.10566000000E+00 0.  1.
         13    1    1    2    0    0  0.19927264593E+03  0.22739255874E+03 -0.42340276544E+03  0.52027576931E+03  0.10566000000E+00 0. -1.
         -4    1    1    2    0  502 -0.73632107793E+02 -0.39305950623E+03  0.30014592274E+03  0.50000503765E+03  0.00000000000E+00 0. -1.
</event>
<event>
 5    1  0.8445827E-005  0.4804593E+03  0.7818608E-02  0.9627810E-01
         -4   -1    0    0    0  501 -0.00000000000E+00  0.00000000000E+00  0.30353608405E+03  0.30353608405E+03  0.00000000000E+00 0. -1.
         21   -1    0    0  501  502  0.00000000000E+00 -0.00000000000E+00 -0.16321770575E+04  0.16321770575E+04  0.00000000000E+00 0. -1.
        -13    1    1    2    0    0  0.84067601303E+02 -0.31799830996E+03 -0.47054376027E+03  0.57410950891E+03  0.10566000000E+00 0.  1.
         13    1    1    2    0    0  0.34957401004E+03  0.46566051880E+03 -0.35853632457E+03  0.68380553849E+03  0.10566000000E+00 0. -1.
         -4    1    1    2    0  502 -0.43364161134E+03 -0.14766220884E+03 -0.49956088861E+03  0.67779809415E+03  0.00000000000E+00 0. -1.
</event>
<event>
 5    1  0.8445827E-005  0.1476689E+03  0.7818608E-02  0.1112006E+00
          4   -1    0    0  502    0 -0.00000000000E+00  0.00000000000E+00  0.60063394853E+03  0.60063394853E+03  0.00000000000E+00 0.  1.
         21   -1    0    0  501  502  0.00000000000E+00 -0.00000000000E+00 -0.54839436250E+03  0.54839436250E+03  0.00000000000E+00 0.  1.
        -13    1    1    2    0    0 -0.15431372234E+03  0.10549244559E+03  0.45063519135E+03  0.48786623968E+03  0.10566000000E+00 0.  1.
         13    1    1    2    0    0  0.70852065624E+01 -0.11723477578E+03  0.91883089858E+02  0.14911977123E+03  0.10566000000E+00 0. -1.
          4    1    1    2  501    0  0.14722851578E+03  0.11742330197E+02 -0.49027869516E+03  0.51204230012E+03  0.00000000000E+00 0.  1.
</event>
<event>
 5    1  0.8445827E-005  0.8859181E+02  0.7818608E-02  0.1184949E+00
         21   -1    0    0  501  502  0.00000000000E+00  0.00000000000E+00  0.49895051138E+03  0.49895051138E+03  0.00000000000E+00 0. -1.
         -4   -1    0    0    0  501 -0.00000000000E+00 -0.00000000000E+00 -0.35653663317E+03  0.35653663317E+03  0.00000000000E+00 0. -1.
        -13    1    1    2    0    0 -0.99635626956E+02  0.65428634401E-02  0.16779807336E+03  0.19514984701E+03  0.10566000000E+00 0.  1.
         13    1    1    2    0    0  0.87901099739E+02 -0.79300867954E+01 -0.33701754908E+03  0.34838244670E+03  0.10566000000E+00 0. -1.
         -4    1    1    2    0  502  0.11734527218E+02  0.79235439319E+01  0.31163335394E+03  0.31195485084E+03  0.00000000000E+00 0. -1.
</event>
<event>
 5    1  0.8445827E-005  0.4855039E+03  0.7818608E-02  0.9632753E-01
         21   -1    0    0  501  502  0.00000000000E+00  0.00000000000E+00  0.31687566018E+03  0.31687566018E+03  0.00000000000E+00 0. -1.
         -4   -1    0    0    0  501 -0.00000000000E+00 -0.00000000000E+00 -0.16342864378E+04  0.16342864378E+04  0.00000000000E+00 0. -1.
        -13    1    1    2    0    0 -0.25417727079E+03  0.18309205307E+03 -0.64760745250E+03  0.71939155443E+03  0.10566000000E+00 0.  1.
         13    1    1    2    0    0  0.53870372888E+02  0.36919078513E+03 -0.49298272261E+03  0.61825223724E+03  0.10566000000E+00 0. -1.
         -4    1    1    2    0  502  0.20030689791E+03 -0.55228283820E+03 -0.17682060254E+03  0.61351830633E+03  0.00000000000E+00 0. -1.
</event>
<event>
 5    1  0.8445827E-005  0.9263776E+02  0.7818608E-02  0.1210308E+00
         21   -1    0    0  501  502  0.00000000000E+00  0.00000000000E+00  0.13696831524E+04  0.13696831524E+04  0.00000000000E+00 0.  1.
          4   -1    0    0  502    0 -0.00000000000E+00 -0.00000000000E+00 -0.20149189377E+03  0.20149189377E+03  0.00000000000E+00 0.  1.
        -13    1    1    2    0    0  0.64258940330E+02  0.10346222780E+03 -0.15960674301E+03  0.20076844266E+03  0.10566000000E+00 0.  1.
         13    1    1    2    0    0 -0.41082286042E+02 -0.13989512166E+02  0.42180055107E+01  0.43603479352E+02  0.10566000000E+00 0. -1.
          4    1    1    2  501    0 -0.23176654288E+02 -0.89472715631E+02  0.13235799962E+04  0.13268031242E+04  0.00000000000E+00 0.  1.
</event>
<event>
 5    1  0.8445827E-005  0.4968085E+03  0.7818608E-02  0.9629163E-01
          4   -1    0    0  502    0 -0.00000000000E+00  0.00000000000E+00  0.15637258839E+04  0.15637258839E+04  0.00000000000E+00 0.  1.
         21   -1    0    0  501  502  0.00000000000E+00 -0.00000000000E+00 -0.33711008317E+03  0.33711008317E+03  0.00000000000E+00 0.  1.
        -13    1    1    2    0    0  0.44503718725E+03 -0.15233685935E+03  0.26335371596E+03  0.53909165049E+03  0.10566000000E+00 0.  1.
         13    1    1    2    0    0  0.11300252103E+03  0.27367491423E+03  0.64083879642E+03  0.70593335564E+03  0.10566000000E+00 0. -1.
          4    1    1    2  501    0 -0.55803970829E+03 -0.12133805488E+03  0.32242328831E+03  0.65581096089E+03  0.00000000000E+00 0.  1.
</event>
<event>
 5    1  0.8445827E-005  0.3454202E+03  0.7818608E-02  0.9916294E-01
         21   -1    0    0  501  502  0.00000000000E+00  0.00000000000E+00  0.53174337750E+03  0.53174337750E+03  0.00000000000E+00 0. -1.
         -4   -1    0    0    0  501 -0.00000000000E+00 -0.00000000000E+00 -0.11177383411E+04  0.11177383411E+04  0.00000000000E+00 0. -1.
        -13    1    1    2    0    0 -0.32822858938E+03  0.18089719337E+02 -0.48503234294E+03  0.58593312732E+03  0.10566000000E+00 0.  1.
         13    1    1    2    0    0 -0.92957093350E+01 -0.19895517531E+03 -0.48311074453E+03  0.52255676691E+03  0.10566000000E+00 0. -1.
         -4    1    1    2    0  502  0.33752429872E+03  0.18086545597E+03  0.38214812390E+03  0.54099182433E+03  0.00000000000E+00 0. -1.
</event>
<event>
 5    1  0.8445827E-005  0.4100038E+03  0.7818608E-02  0.1008873E+00
          4   -1    0    0  502    0 -0.00000000000E+00  0.00000000000E+00  0.77772267955E+03  0.77772267955E+03  0.00000000000E+00 0.  1.
         21   -1    0    0  501  502  0.00000000000E+00 -0.00000000000E+00 -0.50372694043E+03  0.50372694043E+03  0.00000000000E+00 0.  1.
        -13    1    1    2    0    0  0.28921010013E+03 -0.27765752415E+03 -0.24106496262E+03  0.46781247322E+03  0.10566000000E+00 0.  1.
         13    1    1    2    0    0 -0.48434379733E+02 -0.10068460678E+03  0.29224645284E+03  0.31287582129E+03  0.10566000000E+00 0. -1.
          4    1    1    2  501    0 -0.24077572040E+03  0.37834213093E+03  0.22281424890E+03  0.50076132547E+03  0.00000000000E+00 0.  1.
</event>
<event>
 5    1  0.8445827E-005  0.2270667E+03  0.7818608E-02  0.1043013E+00
          4   -1    0    0  502    0 -0.00000000000E+00  0.00000000000E+00  0.95310773085E+03  0.95310773085E+03  0.00000000000E+00 0.  1.
         21   -1    0    0  501  502  0.00000000000E+00 -0.00000000000E+00 -0.12867109547E+03  0.12867109547E+03  0.00000000000E+00 0. -1.
        -13    1    1    2    0    0 -0.18346561154E+03 -0.14543047841E+03  0.53988654617E+03  0.58846167978E+03  0.10566000000E+00 0.  1.
         13    1    1    2    0    0  0.13087435493E+03  0.17969806792E+03  0.34221401208E+03  0.40808079300E+03  0.10566000000E+00 0. -1.
          4    1    1    2  501    0  0.52591256616E+02 -0.34267589510E+02 -0.57663922869E+02  0.85236353535E+02  0.00000000000E+00 0.  1.
</event>
<event>
 5    1  0.8445827E-005  0.5072763E+03  0.7818608E-02  0.9724403E-01
          4   -1    0    0  502    0 -0.00000000000E+00  0.00000000000E+00  0.22989619248E+04  0.22989619248E+04  0.00000000000E+00 0.  1.
         21   -1    0    0  501  502  0.00000000000E+00 -0.00000000000E+00 -0.22760905845E+03  0.22760905845E+03  0.00000000000E+00 0.  1.
        -13    1    1    2    0    0 -0.61290086577E+03  0.70403313481E+02  0.55074108673E+03  0.82699447011E+03  0.10566000000E+00 0.  1.
         13    1    1    2    0    0  0.19927354830E+03  0.27519625817E+01  0.10501096860E+04  0.10688535373E+04  0.10566000000E+00 0. -1.
          4    1    1    2  501    0  0.41362731747E+03 -0.73155276062E+02  0.47050209359E+03  0.63072297583E+03  0.00000000000E+00 0.  1.
</event>
<event>
 5    1  0.8445827E-005  0.8472100E+02  0.7818608E-02  0.1214207E+00
          4   -1    0    0  502    0 -0.00000000000E+00  0.00000000000E+00  0.34747772833E+03  0.34747772833E+03  0.00000000000E+00 0.  1.
         21   -1    0    0  501  502  0.00000000000E+00 -0.00000000000E+00 -0.82603432977E+02  0.82603432977E+02  0.00000000000E+00 0.  1.
        -13    1    1    2    0    0  0.35708920299E+02  0.58366269686E+02  0.20178056238E+03  0.21306608117E+03  0.10566000000E+00 0.  1.
         13    1    1    2    0    0  0.45959203257E+02 -0.24347426297E+02  0.10646190327E+03  0.11848710286E+03  0.10566000000E+00 0. -1.
          4    1    1    2  501    0 -0.81668123556E+02 -0.34018843389E+02 -0.43368170304E+02  0.98527977277E+02  0.00000000000E+00 0.  1.
</event>
<event>
 5    1  0.8445827E-005  0.5769509E+03  0.7818608E-02  0.9350744E-01
          4   -1    0    0  502    0 -0.00000000000E+00  0.00000000000E+00  0.25608482818E+04  0.25608482818E+04  0.00000000000E+00 0.  1.
         21   -1    0    0  501  502  0.00000000000E+00 -0.00000000000E+00 -0.43595555670E+03  0.43595555670E+03  0.00000000000E+00 0.  1.
        -13    1    1    2    0    0 -0.62587972432E+02 -0.35028173454E+03  0.16821858857E+04  0.17194080123E+04  0.10566000000E+00 0.  1.
         13    1    1    2    0    0 -0.52089382928E+03  0.94123559568E+01  0.16116167529E+03  0.54533665801E+03  0.10566000000E+00 0. -1.
          4    1    1    2  501    0  0.58348180171E+03  0.34086937858E+03  0.28154516413E+03  0.73205916812E+03  0.00000000000E+00 0.  1.
</event>
<event>
 5    1  0.8445827E-005  0.1497923E+03  0.7818608E-02  0.1101317E+00
          4   -1    0    0  502    0 -0.00000000000E+00  0.00000000000E+00  0.25751352796E+03  0.25751352796E+03  0.00000000000E+00 0.  1.
         21   -1    0    0  501  502  0.00000000000E+00 -0.00000000000E+00 -0.34095026448E+03  0.34095026448E+03  0.00000000000E+00 0. -1.
        -13    1    1    2    0    0  0.14196918344E+03 -0.41849404038E+02  0.20171913178E+03  0.25019440632E+03  0.10566000000E+00 0.  1.
         13    1    1    2    0    0 -0.15865200151E+03  0.50542002008E+02 -0.19613101889E+03  0.25727871907E+03  0.10566000000E+00 0. -1.
          4    1    1    2  501    0  0.16682818070E+02 -0.86925979692E+01 -0.89024849404E+02  0.90990667047E+02  0.00000000000E+00 0.  1.
</event>
<event>
 5    1  0.8445827E-005  0.7982063E+02  0.7818608E-02  0.1227117E+00
          4   -1    0    0  502    0 -0.00000000000E+00  0.00000000000E+00  0.44349819327E+02  0.44349819327E+02  0.00000000000E+00 0.  1.
         21   -1    0    0  501  502  0.00000000000E+00 -0.00000000000E+00 -0.92240839000E+03  0.92240839000E+03  0.00000000000E+00 0.  1.
        -13    1    1    2    0    0  0.54103576713E+02  0.54312672225E+02 -0.59258115177E+02  0.96894781881E+02  0.10566000000E+00 0.  1.
         13    1    1    2    0    0 -0.39087680184E+02  0.25758755752E+02  0.20860105611E+00  0.46812550865E+02  0.10566000000E+00 0. -1.
          4    1    1    2  501    0 -0.15015896529E+02 -0.80071427976E+02 -0.81900905655E+03  0.82305087658E+03  0.00000000000E+00 0.  1.
</event>
<event>
 5    1  0.8445827E-005  0.2774025E+03  0.7818608E-02  0.1021857E+00
         21   -1    0    0  501  502  0.00000000000E+00  0.00000000000E+00  0.30334639492E+03  0.30334639492E+03  0.00000000000E+00 0. -1.
         -4   -1    0    0    0  501 -0.00000000000E+00 -0.00000000000E+00 -0.19370788021E+04  0.19370788021E+04  0.00000000000E+00 0. -1.
        -13    1    1    2    0    0  0.12690687240E+03  0.20217530736E+03 -0.89058314955E+03  0.92201874525E+03  0.10566000000E+00 0.  1.
         13    1    1    2    0    0  0.91242400202E+02 -0.36991897783E+03 -0.91693308415E+03  0.99294084301E+03  0.10566000000E+00 0. -1.
         -4    1    1    2    0  502 -0.21814927260E+03  0.16774367047E+03  0.17378382652E+03  0.32546560875E+03  0.00000000000E+00 0. -1.
</event>
<event>
 5    1  0.8445827E-005  0.1559460E+03  0.7818608E-02  0.1095391E+00
         21   -1    0    0  501  502  0.00000000000E+00  0.00000000000E+00  0.10698315290E+04  0.10698315290E+04  0.00000000000E+00 0. -1.
         -4   -1    0    0    0  501 -0.00000000000E+00 -0.00000000000E+00 -0.45858418344E+02  0.45858418344E+02  0.00000000000E+00 0. -1.
        -13    1    1    2    0    0 -0.70482740806E+01  0.14283201607E+03  0.19121304449E+03  0.23877416638E+03  0.10566000000E+00 0.  1.
         13    1    1    2    0    0 -0.20833394699E+02 -0.20042932876E+03  0.71546432611E+03  0.74330018113E+03  0.10566000000E+00 0. -1.
         -4    1    1    2    0  502  0.27881668780E+02  0.57597312688E+02  0.11729574002E+03  0.13361559980E+03  0.00000000000E+00 0. -1.
</event>
<event>
 5    1  0.8445827E-005  0.1914954E+02  0.7818608E-02  0.1522038E+00
         21   -1    0    0  501  502  0.00000000000E+00  0.00000000000E+00  0.12302529137E+03  0.12302529137E+03  0.00000000000E+00 0.  1.
          4   -1    0    0  502    0 -0.00000000000E+00 -0.00000000000E+00 -0.28437449775E+02  0.28437449775E+02  0.00000000000E+00 0.  1.
        -13    1    1    2    0    0 -0.87275064476E+01  0.14536368176E+02 -0.12126525521E+02  0.20845602745E+02  0.10566000000E+00 0.  1.
         13    1    1    2    0    0  0.63191544038E+01 -0.33478055210E+02  0.15506903002E+02  0.37432433767E+02  0.10566000000E+00 0. -1.
          4    1    1    2  501    0  0.24083520438E+01  0.18941687034E+02  0.91207464110E+02  0.93184704628E+02  0.00000000000E+00 0.  1.
</event>
<event>
 5    1  0.8445827E-005  0.7751130E+03  0.7818608E-02  0.9020604E-01
          4   -1    0    0  502    0 -0.00000000000E+00  0.00000000000E+00  0.11996162781E+04  0.11996162781E+04  0.00000000000E+00 0.  1.
         21   -1    0    0  501  502  0.00000000000E+00 -0.00000000000E+00 -0.10126497564E+04  0.10126497564E+04  0.00000000000E+00 0. -1.
        -13    1    1    2    0    0 -0.67274078251E+02 -0.86415951496E+03 -0.36771351807E+03  0.94154697782E+03  0.10566000000E+00 0.  1.
         13    1    1    2    0    0  0.35090417002E+03  0.67736170006E+03  0.53260175630E+03  0.93038553903E+03  0.10566000000E+00 0. -1.
          4    1    1    2  501    0 -0.28363009177E+03  0.18679781490E+03  0.22078283422E+02  0.34033351761E+03  0.00000000000E+00 0.  1.
</event>
<event>
 5    1  0.8445827E-005  0.4858286E+03  0.7818608E-02  0.9818819E-01
          4   -1    0    0  502    0 -0.00000000000E+00  0.00000000000E+00  0.71781040692E+03  0.71781040692E+03  0.00000000000E+00 0.  1.
         21   -1    0    0  501  502  0.00000000000E+00 -0.00000000000E+00 -0.48191644184E+03  0.48191644184E+03  0.00000000000E+00 0.  1.
        -13    1    1    2    0    0  0.12261474500E+03  0.53119227709E+03 -0.83439342184E+02  0.55150860911E+03  0.10566000000E+00 0.  1.
         13    1    1    2    0    0  0.19147095323E+02 -0.16293415495E+03  0.54034490395E+02  0.17272488941E+03  0.10566000000E+00 0. -1.
          4    1    1    2  501    0 -0.14176184033E+03 -0.36825812214E+03  0.26529881687E+03  0.47549335025E+03  0.00000000000E+00 0.  1.
</event>
<event>
 5    1  0.8445827E-005  0.3177143E+03  0.7818608E-02  0.1000250E+00
          4   -1    0    0  502    0 -0.00000000000E+00  0.00000000000E+00  0.11036503601E+04  0.11036503601E+04  0.00000000000E+00 0.  1.
         21   -1    0    0  501  502  0.00000000000E+00 -0.00000000000E+00 -0.13389076010E+04  0.13389076010E+04  0.00000000000E+00 0.  1.
        -13    1    1    2    0    0 -0.47832027316E+03 -0.32734222639E+03 -0.11334098712E+04  0.12730126332E+04  0.10566000000E+00 0.  1.
         13    1    1    2    0    0  0.26852206159E+03  0.15815391951E+03  0.83706165187E+03  0.89319033806E+03  0.10566000000E+00 0. -1.
          4    1    1    2  501    0  0.20979821158E+03  0.16918830687E+03  0.61090978391E+02  0.27635498983E+03  0.00000000000E+00 0.  1.
</event>
<event>
 5    1  0.8445827E-005  0.4574225E+03  0.7818608E-02  0.9804086E-01
         21   -1    0    0  501  502  0.00000000000E+00  0.00000000000E+00  0.40850268654E+03  0.40850268654E+03  0.00000000000E+00 0.  1.
          4   -1    0    0  502    0 -0.00000000000E+00 -0.00000000000E+00 -0.17623703596E+04  0.17623703596E+04  0.00000000000E+00 0.  1.
        -13    1    1    2    0    0  0.66683316035E+02  0.51058036560E+03  0.14594940597E+03  0.53520109739E+03  0.10566000000E+00 0.  1.
         13    1    1    2    0    0 -0.93556073029E+02 -0.18428392052E+03 -0.10983738153E+04  0.11176485814E+04  0.10566000000E+00 0. -1.
          4    1    1    2  501    0  0.26872756994E+02 -0.32629644508E+03 -0.40144326368E+03  0.51802336733E+03  0.00000000000E+00 0.  1.
</event>
<event>
 5    1  0.8445827E-005  0.5914022E+03  0.7818608E-02  0.9511156E-01
         21   -1    0    0  501  502  0.00000000000E+00  0.00000000000E+00  0.66898748572E+03  0.66898748572E+03  0.00000000000E+00 0.  1.
          4   -1    0    0  502    0 -0.00000000000E+00 -0.00000000000E+00 -0.50335464045E+04  0.50335464045E+04  0.00000000000E+00 0.  1.
        -13    1    1    2    0    0  0.34074241114E+03  0.13566495293E+03  0.94922332013E+02  0.37884116788E+03  0.10566000000E+00 0.  1.
         13    1    1    2    0    0  0.27644924581E+03 -0.83424736541E+03 -0.42864235310E+04  0.43755936226E+04  0.10566000000E+00 0. -1.
          4    1    1    2  501    0 -0.61719165695E+03  0.69858241249E+03 -0.17305771978E+03  0.94809909968E+03  0.00000000000E+00 0.  1.
</event>
<event>
 5    1  0.8445827E-005  0.4637001E+03  0.7818608E-02  0.9561292E-01
         21   -1    0    0  501  502  0.00000000000E+00  0.00000000000E+00  0.34679456590E+03  0.34679456590E+03  0.00000000000E+00 0.  1.
          4   -1    0    0  502    0 -0.00000000000E+00 -0.00000000000E+00 -0.19183766168E+04  0.19183766168E+04  0.00000000000E+00 0.  1.
        -13    1    1    2    0    0  0.28743319846E+03 -0.59927451344E+03 -0.20786830755E+03  0.69638856286E+03  0.10566000000E+00 0.  1.
         13    1    1    2    0    0  0.60323338273E+01  0.43245799986E+03 -0.85656105102E+03  0.95955883404E+03  0.10566000000E+00 0. -1.
          4    1    1    2  501    0 -0.29346553229E+03  0.16681651358E+03 -0.50715269230E+03  0.60922378578E+03  0.00000000000E+00 0.  1.
</event>
<event>
 5    1  0.8445827E-005  0.4472100E+03  0.7818608E-02  0.1017520E+00
         21   -1    0    0  501  502  0.00000000000E+00  0.00000000000E+00  0.18812882400E+04  0.18812882400E+04  0.00000000000E+00 0. -1.
         -4   -1    0    0    0  501 -0.00000000000E+00 -0.00000000000E+00 -0.17057255909E+03  0.17057255909E+03  0.00000000000E+00 0. -1.
        -13    1    1    2    0    0  0.32565314347E+02  0.56625883905E+02  0.26898501602E+01  0.65377648203E+02  0.10566000000E+00 0.  1.
         13    1    1    2    0    0  0.22846872759E+03 -0.39422430605E+03  0.13647615376E+04  0.14388136880E+04  0.10566000000E+00 0. -1.
         -4    1    1    2    0  502 -0.26103404194E+03  0.33759842215E+03  0.34326429317E+03  0.54766946296E+03  0.00000000000E+00 0. -1.
</event>
<event>
 5    1  0.8445827E-005  0.4900807E+03  0.7818608E-02  0.9669855E-01
         -4   -1    0    0    0  501 -0.00000000000E+00  0.00000000000E+00  0.36408376106E+03  0.36408376106E+03  0.00000000000E+00 0. -1.
         21   -1    0    0  501  502  0.00000000000E+00 -0.00000000000E+00 -0.11776764261E+04  0.11776764261E+04  0.00000000000E+00 0. -1.
        -13    1    1    2    0    0  0.18303895890E+03 -0.19477917814E+03 -0.91103111261E+02  0.28238621913E+03  0.10566000000E+00 0.  1.
         13    1    1    2    0    0 -0.12210226452E+03  0.56776075623E+03 -0.65515848598E+03  0.87549636905E+03  0.10566000000E+00 0. -1.
         -4    1    1    2    0  502 -0.60936694377E+02 -0.37298157810E+03 -0.67331067822E+02  0.38387759900E+03  0.00000000000E+00 0. -1.
</event>
<event>
 5    1  0.8445827E-005  0.5350505E+03  0.7818608E-02  0.9404289E-01
          4   -1    0    0  502    0 -0.00000000000E+00  0.00000000000E+00  0.36906175327E+04  0.36906175327E+04  0.00000000000E+00 0.  1.
         21   -1    0    0  501  502  0.00000000000E+00 -0.00000000000E+00 -0.24372809660E+03  0.24372809660E+03  0.00000000000E+00 0. -1.
        -13    1    1    2    0    0  0.33713429804E+03 -0.18744733468E+03  0.15688704793E+03  0.41642477732E+03  0.10566000000E+00 0.  1.
         13    1    1    2    0    0 -0.28715156547E+03  0.61564243970E+03  0.11561218370E+04  0.13409285395E+04  0.10566000000E+00 0. -1.
          4    1    1    2  501    0 -0.49982732576E+02 -0.42819510502E+03  0.21338805513E+04  0.21769923125E+04  0.00000000000E+00 0.  1.
</event>
<event>
 5    1  0.8445827E-005  0.4965949E+03  0.7818608E-02  0.9610236E-01
         21   -1    0    0  501  502  0.00000000000E+00  0.00000000000E+00  0.39540684956E+03  0.39540684956E+03  0.00000000000E+00 0.  1.
          4   -1    0    0  502    0 -0.00000000000E+00 -0.00000000000E+00 -0.11822742483E+04  0.11822742483E+04  0.00000000000E+00 0.  1.
        -13    1    1    2    0    0  0.12277410559E+03 -0.47278537037E+03 -0.26051859438E+03  0.55359681775E+03  0.10566000000E+00 0.  1.
         13    1    1    2    0    0 -0.31245447053E+03 -0.53657854216E+02 -0.15859695815E+03  0.35448549727E+03  0.10566000000E+00 0. -1.
          4    1    1    2  501    0  0.18968036495E+03  0.52644322459E+03 -0.36775184618E+03  0.66959878281E+03  0.00000000000E+00 0.  1.
</event>
<event>
 5    1  0.8445827E-005  0.1337976E+03  0.7818608E-02  0.1144327E+00
         21   -1    0    0  501  502  0.00000000000E+00  0.00000000000E+00  0.11227424720E+03  0.11227424720E+03  0.00000000000E+00 0.  1.
         -4   -1    0    0    0  501 -0.00000000000E+00 -0.00000000000E+00 -0.63809576346E+03  0.63809576346E+03  0.00000000000E+00 0. -1.
        -13    1    1    2    0    0 -0.47738864527E+02 -0.49353261494E+02  0.60106561100E+02  0.91255429743E+02  0.10566000000E+00 0.  1.
         13    1    1    2    0    0 -0.19992644873E+02 -0.87641734834E+02 -0.43548355623E+03  0.44466472588E+03  0.10566000000E+00 0. -1.
         -4    1    1    2    0  502  0.67731509400E+02  0.13699499633E+03 -0.15044452113E+03  0.21444985503E+03  0.00000000000E+00 0. -1.
</event>
<event>
 5    1  0.8445827E-005  0.4491819E+03  0.7818608E-02  0.9665134E-01
          4   -1    0    0  502    0 -0.00000000000E+00  0.00000000000E+00  0.22597212618E+04  0.22597212618E+04  0.00000000000E+00 0.  1.
         21   -1    0    0  501  502  0.00000000000E+00 -0.00000000000E+00 -0.23466723667E+03  0.23466723667E+03  0.00000000000E+00 0.  1.
        -13    1    1    2    0    0 -0.17244240954E+03  0.13304405229E+03  0.10016790010E+04  0.10250843559E+04  0.10566000000E+00 0.  1.
         13    1    1    2    0    0 -0.35256022234E+03  0.16409640252E+02  0.80939718881E+03  0.88300158952E+03  0.10566000000E+00 0. -1.
          4    1    1    2  501    0  0.52500263188E+03 -0.14945369254E+03  0.21397783525E+03  0.58630255301E+03  0.00000000000E+00 0.  1.
</event>
<event>
 5    1  0.8445827E-005  0.6636349E+03  0.7818608E-02  0.9177468E-01
         21   -1    0    0  501  502  0.00000000000E+00  0.00000000000E+00  0.19087556099E+03  0.19087556099E+03  0.00000000000E+00 0. -1.
         -4   -1    0    0    0  501 -0.00000000000E+00 -0.00000000000E+00 -0.37319012425E+04  0.37319012425E+04  0.00000000000E+00 0. -1.
        -13    1    1    2    0    0  0.51603162336E+03  0.20609902811E+03 -0.12061326768E+04  0.13279764648E+04  0.10566000000E+00 0.  1.
         13    1    1    2    0    0 -0.72544354590E+03 -0.29972705849E+03 -0.21826243101E+04  0.23194726853E+04  0.10566000000E+00 0. -1.
         -4    1    1    2    0  502  0.20941192254E+03  0.93628030389E+02 -0.15226869465E+03  0.27532765343E+03  0.00000000000E+00 0. -1.
</event>
<event>
 5    1  0.8445827E-005  0.5025582E+03  0.7818608E-02  0.9571941E-01
          4   -1    0    0  502    0 -0.00000000000E+00  0.00000000000E+00  0.22131334324E+04  0.22131334324E+04  0.00000000000E+00 0.  1.
         21   -1    0    0  501  502  0.00000000000E+00 -0.00000000000E+00 -0.23785971071E+03  0.23785971071E+03  0.00000000000E+00 0.  1.
        -13    1    1    2    0    0 -0.10864598581E+03 -0.64113936540E+03  0.64022151848E+03  0.91254985617E+03  0.10566000000E+00 0.  1.
         13    1    1    2    0    0  0.23818316337E+03  0.25728214499E+03  0.73626628034E+03  0.81548351802E+03  0.10566000000E+00 0. -1.
          4    1    1    2  501    0 -0.12953717756E+03  0.38385722041E+03  0.59878592283E+03  0.72295976887E+03  0.00000000000E+00 0.  1.
</event>
<event>
 5    1  0.8445827E-005  0.3297847E+02  0.7818608E-02  0.1387462E+00
         21   -1    0    0  501  502  0.00000000000E+00  0.00000000000E+00  0.31244778650E+03  0.31244778650E+03  0.00000000000E+00 0. -1.
          4   -1    0    0  502    0 -0.00000000000E+00 -0.00000000000E+00 -0.23945608706E+02  0.23945608706E+02  0.00000000000E+00 0.  1.
        -13    1    1    2    0    0 -0.21665369812E+02  0.55310564814E+02  0.22601176621E+02  0.63556834233E+02  0.10566000000E+00 0.  1.
         13    1    1    2    0    0  0.17139644423E+02 -0.24966273358E+02  0.14204623583E+03  0.14523851587E+03  0.10566000000E+00 0. -1.
          4    1    1    2  501    0  0.45257253891E+01 -0.30344291456E+02  0.12385476534E+03  0.12759804510E+03  0.00000000000E+00 0.  1.
</event>
<event>
 5    1  0.8445827E-005  0.3974321E+03  0.7818608E-02  0.9736492E-01
          4   -1    0    0  502    0 -0.00000000000E+00  0.00000000000E+00  0.11694065365E+04  0.11694065365E+04  0.00000000000E+00 0.  1.
         21   -1    0    0  501  502  0.00000000000E+00 -0.00000000000E+00 -0.73153594642E+03  0.73153594642E+03  0.00000000000E+00 0. -1.
        -13    1    1    2    0    0  0.14905613506E+03 -0.36147628853E+03  0.97375567669E+03  0.10493250057E+04  0.10566000000E+00 0.  1.
         13    1    1    2    0    0 -0.24683454728E+03  0.39355474805E+03 -0.20989922441E+03  0.50977478264E+03  0.10566000000E+00 0. -1.
          4    1    1    2  501    0  0.97778412217E+02 -0.32078459521E+02 -0.32598586221E+03  0.34184269455E+03  0.00000000000E+00 0.  1.
</event>
<event>
 5    1  0.8445827E-005  0.4079318E+02  0.7818608E-02  0.1334599E+00
         21   -1    0    0  501  502  0.00000000000E+00  0.00000000000E+00  0.81259383066E+02  0.81259383066E+02  0.00000000000E+00 0.  1.
          4   -1    0    0  502    0 -0.00000000000E+00 -0.00000000000E+00 -0.13828755429E+03  0.13828755429E+03  0.00000000000E+00 0.  1.
        -13    1    1    2    0    0  0.29227817212E+02  0.30107000575E+02 -0.11359867954E+03  0.12110065210E+03  0.10566000000E+00 0.  1.
         13    1    1    2    0    0 -0.34002972751E+02 -0.15683945436E+02 -0.24264323779E+01  0.37524485852E+02  0.10566000000E+00 0. -1.
          4    1    1    2  501    0  0.47751555389E+01 -0.14423055139E+02  0.58996940698E+02  0.60921799396E+02  0.00000000000E+00 0.  1.
</event>
<event>
 5    1  0.8445827E-005  0.4980152E+03  0.7818608E-02  0.9880763E-01
          4   -1    0    0  502    0 -0.00000000000E+00  0.00000000000E+00  0.13630184486E+04  0.13630184486E+04  0.00000000000E+00 0.  1.
         21   -1    0    0  501  502  0.00000000000E+00 -0.00000000000E+00 -0.25766107996E+03  0.25766107996E+03  0.00000000000E+00 0.  1.
        -13    1    1    2    0    0 -0.37503203130E+03  0.36057623605E+03  0.52331206667E+03  0.73791583314E+03  0.10566000000E+00 0.  1.
         13    1    1    2    0    0 -0.40088834966E+02 -0.11684919078E+03 -0.49388471768E+01  0.12363353692E+03  0.10566000000E+00 0. -1.
          4    1    1    2  501    0  0.41512086627E+03 -0.24372704527E+03  0.58698414912E+03  0.75913015849E+03  0.00000000000E+00 0.  1.
</event>
<event>
 5    1  0.8445827E-005  0.4877202E+03  0.7818608E-02  0.9810540E-01
         21   -1    0    0  501  502  0.00000000000E+00  0.00000000000E+00  0.77395636267E+03  0.77395636267E+03  0.00000000000E+00 0. -1.
         -4   -1    0    0    0  501 -0.00000000000E+00 -0.00000000000E+00 -0.44913785864E+03  0.44913785864E+03  0.00000000000E+00 0. -1.
        -13    1    1    2    0    0  0.15940765784E+02  0.16602504894E+03  0.59760979429E+02  0.17717169841E+03  0.10566000000E+00 0.  1.
         13    1    1    2    0    0 -0.24471976197E+03 -0.52787414616E+03  0.12152934345E+03  0.59439739953E+03  0.10566000000E+00 0. -1.
         -4    1    1    2    0  502  0.22877899619E+03  0.36184909722E+03  0.14352818115E+03  0.45152512338E+03  0.00000000000E+00 0. -1.
</event>
<event>
 5    1  0.8445827E-005  0.3722717E+03  0.7818608E-02  0.9812729E-01
         21   -1    0    0  501  502  0.00000000000E+00  0.00000000000E+00  0.50833523629E+03  0.50833523629E+03  0.00000000000E+00 0.  1.
          4   -1    0    0  502    0 -0.00000000000E+00 -0.00000000000E+00 -0.20123860781E+04  0.20123860781E+04  0.00000000000E+00 0.  1.
        -13    1    1    2    0    0 -0.37610127964E+02 -0.63403466561E+03  0.15272538511E+03  0.65325303929E+03  0.10566000000E+00 0.  1.
         13    1    1    2    0    0  0.89525505885E+02  0.34758358660E+03 -0.14886091570E+04  0.15312695385E+04  0.10566000000E+00 0. -1.
          4    1    1    2  501    0 -0.51915377921E+02  0.28645107901E+03 -0.16816706992E+03  0.33619873667E+03  0.00000000000E+00 0.  1.
</event>
<event>
 5    1  0.8445827E-005  0.3133767E+03  0.7818608E-02  0.1028116E+00
         -4   -1    0    0    0  501 -0.00000000000E+00  0.00000000000E+00  0.11895638576E+04  0.11895638576E+04  0.00000000000E+00 0. -1.
         21   -1    0    0  501  502  0.00000000000E+00 -0.00000000000E+00 -0.28613359511E+03  0.28613359511E+03  0.00000000000E+00 0. -1.
        -13    1    1    2    0    0  0.92914649590E+02  0.99579091186E+02  0.64391135966E+03  0.65815725915E+03  0.10566000000E+00 0.  1.
         13    1    1    2    0    0 -0.31502511467E+03  0.84140972678E+02 -0.11427647206E+03  0.34551360232E+03  0.10566000000E+00 0. -1.
         -4    1    1    2    0  502  0.22211046508E+03 -0.18372006386E+03  0.37379537490E+03  0.47202659126E+03  0.00000000000E+00 0. -1.
</event>
<event>
 5    1  0.8445827E-005  0.2384212E+03  0.7818608E-02  0.1036574E+00
         -4   -1    0    0    0  501 -0.00000000000E+00  0.00000000000E+00  0.15596972892E+04  0.15596972892E+04  0.00000000000E+00 0. -1.
         21   -1    0    0  501  502  0.00000000000E+00 -0.00000000000E+00 -0.14324319877E+03  0.14324319877E+03  0.00000000000E+00 0. -1.
        -13    1    1    2    0    0 -0.22145617614E+03  0.30400065873E+02  0.15280961194E+02  0.22405472745E+03  0.10566000000E+00 0.  1.
         13    1    1    2    0    0  0.23330642214E+03 -0.56077477715E+02  0.14230459066E+04  0.14431341703E+04  0.10566000000E+00 0. -1.
         -4    1    1    2    0  502 -0.11850245997E+02  0.25677411842E+02 -0.21872777379E+02  0.35751590165E+02  0.00000000000E+00 0. -1.
</event>
<event>
 5    1  0.8445827E-005  0.6741224E+03  0.7818608E-02  0.9161386E-01
         21   -1    0    0  501  502  0.00000000000E+00  0.00000000000E+00  0.17901616563E+04  0.17901616563E+04  0.00000000000E+00 0. -1.
          4   -1    0    0  502    0 -0.00000000000E+00 -0.00000000000E+00 -0.32369073968E+03  0.32369073968E+03  0.00000000000E+00 0.  1.
        -13    1    1    2    0    0 -0.65597631967E+03  0.17574721970E+03  0.11606357174E+04  0.13447182964E+04  0.10566000000E+00 0.  1.
         13    1    1    2    0    0  0.64591904720E+03 -0.18613911996E+03  0.25943346401E+03  0.72053099928E+03  0.10566000000E+00 0. -1.
          4    1    1    2  501    0  0.10057272465E+02  0.10391900257E+02  0.46401735294E+02  0.48603100299E+02  0.00000000000E+00 0.  1.
</event>
<event>
 5    1  0.8445827E-005  0.3801069E+03  0.7818608E-02  0.9788323E-01
         -4   -1    0    0    0  501 -0.00000000000E+00  0.00000000000E+00  0.11361927332E+04  0.11361927332E+04  0.00000000000E+00 0. -1.
         21   -1    0    0  501  502  0.00000000000E+00 -0.00000000000E+00 -0.25629975907E+03  0.25629975907E+03  0.00000000000E+00 0.  1.
        -13    1    1    2    0    0 -0.40037703025E+03 -0.36569754791E+02  0.53932914077E+03  0.67269238628E+03  0.10566000000E+00 0.  1.
         13    1    1    2    0    0  0.35940925508E+03  0.20137518824E+02  0.46483537263E+03  0.58792216076E+03  0.10566000000E+00 0. -1.
         -4    1    1    2    0  502  0.40967775166E+02  0.16432235967E+02 -0.12427153924E+03  0.13187794526E+03  0.00000000000E+00 0. -1.
</event>
<event>
 5    1  0.8445827E-005  0.4773620E+02  0.7818608E-02  0.1301290E+00
          4   -1    0    0  502    0 -0.00000000000E+00  0.00000000000E+00  0.24332111408E+03  0.24332111408E+03  0.00000000000E+00 0.  1.
         21   -1    0    0  501  502  0.00000000000E+00 -0.00000000000E+00 -0.31415532072E+02  0.31415532072E+02  0.00000000000E+00 0. -1.
        -13    1    1    2    0    0 -0.34598597331E+02 -0.35199635722E+02  0.21558259243E+03  0.22116044542E+03  0.10566000000E+00 0.  1.
         13    1    1    2    0    0  0.25851344623E+02  0.28207599134E+02  0.60573364113E+01  0.38738393825E+02  0.10566000000E+00 0. -1.
          4    1    1    2  501    0  0.87472527076E+01  0.69920365886E+01 -0.97343468369E+01  0.14837806911E+02  0.00000000000E+00 0.  1.
</event>
<event>
 5    1  0.8445827E-005  0.5233753E+03  0.7818608E-02  0.9428159E-01
         21   -1    0    0  501  502  0.00000000000E+00  0.00000000000E+00  0.68226006684E+03  0.68226006684E+03  0.00000000000E+00 0. -1.
         -4   -1    0    0    0  501 -0.00000000000E+00 -0.00000000000E+00 -0.10169375410E+04  0.10169375410E+04  0.00000000000E+00 0. -1.
        -13    1    1    2    0    0 -0.36819763091E+03 -0.31169380061E+03 -0.36320977551E+03  0.60385749390E+03  0.10566000000E+00 0.  1.
         13    1    1    2    0    0  0.43600439902E+03  0.55581888939E+03  0.25942047718E+03  0.75255130650E+03  0.10566000000E+00 0. -1.
         -4    1    1    2    0  502 -0.67806768118E+02 -0.24412508878E+03 -0.23088817583E+03  0.34278880745E+03  0.00000000000E+00 0. -1.
</event>
<event>
 5    1  0.8445827E-005  0.4304357E+03  0.7818608E-02  0.9645051E-01
         -4   -1    0    0    0  501 -0.00000000000E+00  0.00000000000E+00  0.20272499826E+04  0.20272499826E+04  0.00000000000E+00 0. -1.
         21   -1    0    0  501  502  0.00000000000E+00 -0.00000000000E+00 -0.37305186674E+03  0.37305186674E+03  0.00000000000E+00 0. -1.
        -13    1    1    2    0    0 -0.21389154354E+03 -0.46613452756E+03  0.28112378537E+03  0.58486031156E+03  0.10566000000E+00 0.  1.
         13    1    1    2    0    0  0.31922029270E+03  0.27586082366E+03  0.15036863277E+04  0.15617533008E+04  0.10566000000E+00 0. -1.
         -4    1    1    2    0  502 -0.10532874917E+03  0.19027370390E+03 -0.13061199717E+03  0.25368823701E+03  0.00000000000E+00 0. -1.
</event>
<event>
 5    1  0.8445827E-005  0.5050439E+03  0.7818608E-02  0.9601139E-01
         21   -1    0    0  501  502  0.00000000000E+00  0.00000000000E+00  0.16052922777E+03  0.16052922777E+03  0.00000000000E+00 0.  1.
         -4   -1    0    0    0  501 -0.00000000000E+00 -0.00000000000E+00 -0.32663379528E+04  0.32663379528E+04  0.00000000000E+00 0. -1.
        -13    1    1    2    0    0  0.19128315873E+03 -0.24557638589E+03 -0.12686100123E+04  0.13062420842E+04  0.10566000000E+00 0.  1.
         13    1    1    2    0    0  0.37627669816E+03  0.29313212288E+03 -0.10017004704E+04  0.11094658348E+04  0.10566000000E+00 0. -1.
         -4    1    1    2    0  502 -0.56755985689E+03 -0.47555736990E+02 -0.83549824233E+03  0.10111592615E+04  0.00000000000E+00 0. -1.
</event>
<event>
 5    1  0.8445827E-005  0.3233166E+02  0.7818608E-02  0.1387109E+00
         21   -1    0    0  501  502  0.00000000000E+00  0.00000000000E+00  0.28844588066E+02  0.28844588066E+02  0.00000000000E+00 0.  1.
          4   -1    0    0  502    0 -0.00000000000E+00 -0.00000000000E+00 -0.19410245609E+03  0.19410245609E+03  0.00000000000E+00 0.  1.
        -13    1    1    2    0    0 -0.42100758538E+02 -0.14833290517E+02 -0.63294010101E+00  0.44642044692E+02  0.10566000000E+00 0.  1.
         13    1    1    2    0    0  0.14236243836E+02  0.28925786876E+02 -0.11696610162E+03  0.12132786934E+03  0.10566000000E+00 0. -1.
          4    1    1    2  501    0  0.27864514702E+02 -0.14092496358E+02 -0.47658826299E+02  0.56977130126E+02  0.00000000000E+00 0.  1.
</event>
<event>
 5    1  0.8445827E-005  0.2676116E+03  0.7818608E-02  0.1021650E+00
         -4   -1    0    0    0  501 -0.00000000000E+00  0.00000000000E+00  0.22015500171E+04  0.22015500171E+04  0.00000000000E+00 0. -1.
         21   -1    0    0  501  502  0.00000000000E+00 -0.00000000000E+00 -0.18761498162E+03  0.18761498162E+03  0.00000000000E+00 0. -1.
        -13    1    1    2    0    0 -0.26334295723E+03  0.10654477725E+03  0.76610150773E+03  0.81707578228E+03  0.10566000000E+00 0.  1.
         13    1    1    2    0    0  0.20375632144E+03 -0.16747122116E+03  0.13853904156E+04  0.14102729747E+04  0.10566000000E+00 0. -1.
         -4    1    1    2    0  502  0.59586635791E+02  0.60926443911E+02 -0.13755688777E+03  0.16181624178E+03  0.00000000000E+00 0. -1.
</event>
<event>
 5    1  0.8445827E-005  0.4868816E+03  0.7818608E-02  0.9927974E-01
         21   -1    0    0  501  502  0.00000000000E+00  0.00000000000E+00  0.16551320042E+03  0.16551320042E+03  0.00000000000E+00 0. -1.
          4   -1    0    0  502    0 -0.00000000000E+00 -0.00000000000E+00 -0.19104804829E+04  0.19104804829E+04  0.00000000000E+00 0.  1.
        -13    1    1    2    0    0  0.37394044154E+03  0.35780211711E+03 -0.10207702729E+04  0.11444761990E+04  0.10566000000E+00 0.  1.
         13    1    1    2    0    0  0.27066072474E+02 -0.10961307366E+03 -0.11563728031E+03  0.16161556224E+03  0.10566000000E+00 0. -1.
          4    1    1    2  501    0 -0.40100651401E+03 -0.24818904344E+03 -0.60855972928E+03  0.76990192211E+03  0.00000000000E+00 0.  1.
</event>
<event>
 5    1  0.8445827E-005  0.1982222E+03  0.7818608E-02  0.1061361E+00
         -4   -1    0    0    0  501 -0.00000000000E+00  0.00000000000E+00  0.17589153196E+03  0.17589153196E+03  0.00000000000E+00 0. -1.
         21   -1    0    0  501  502  0.00000000000E+00 -0.00000000000E+00 -0.10778670053E+04  0.10778670053E+04  0.00000000000E+00 0. -1.
        -13    1    1    2    0    0  0.12620866344E+03  0.16798262213E+03 -0.47721155131E+02  0.21546254402E+03  0.10566000000E+00 0.  1.
         13    1    1    2    0    0 -0.14442938332E+03 -0.12521009327E+03 -0.85752249354E+01  0.19133990663E+03  0.10566000000E+00 0. -1.
         -4    1    1    2    0  502  0.18220719873E+02 -0.42772528856E+02 -0.84567909325E+03  0.84695608659E+03  0.00000000000E+00 0. -1.
</event>
<event>
 5    1  0.8445827E-005  0.3251344E+03  0.7818608E-02  0.9974390E-01
         21   -1    0    0  501  502  0.00000000000E+00  0.00000000000E+00  0.10585997204E+03  0.10585997204E+03  0.00000000000E+00 0.  1.
          4   -1    0    0  502    0 -0.00000000000E+00 -0.00000000000E+00 -0.28154918771E+04  0.28154918771E+04  0.00000000000E+00 0.  1.
        -13    1    1    2    0    0  0.30135402154E+03 -0.13280141705E+03 -0.17910234810E+04  0.18210479355E+04  0.10566000000E+00 0.  1.
         13    1    1    2    0    0 -0.28951364792E+03  0.13193691443E+03 -0.98383776026E+03  0.10340030229E+04  0.10566000000E+00 0. -1.
          4    1    1    2  501    0 -0.11840373617E+02  0.86450261360E+00  0.65229336202E+02  0.66300890745E+02  0.00000000000E+00 0.  1.
</event>
<event>
 5    1  0.8445827E-005  0.3706494E+03  0.7818608E-02  0.9817862E-01
         21   -1    0    0  501  502  0.00000000000E+00  0.00000000000E+00  0.28760992435E+03  0.28760992435E+03  0.00000000000E+00 0. -1.
         -4   -1    0    0    0  501 -0.00000000000E+00 -0.00000000000E+00 -0.19206011853E+04  0.19206011853E+04  0.00000000000E+00 0. -1.
        -13    1    1    2    0    0 -0.19383970442E+02  0.33158864131E+03 -0.81688945304E+03  0.88183624047E+03  0.10566000000E+00 0.  1.
         13    1    1    2    0    0  0.33300798043E+03 -0.39631970146E+03 -0.85936550175E+03  0.10032311287E+04  0.10566000000E+00 0. -1.
         -4    1    1    2    0  502 -0.31362400999E+03  0.64731060152E+02  0.43263693886E+02  0.32314374046E+03  0.00000000000E+00 0. -1.
</event>
<event>
 5    1  0.8445827E-005  0.5274457E+03  0.7818608E-02  0.9454668E-01
         21   -1    0    0  501  502  0.00000000000E+00  0.00000000000E+00  0.37553466428E+03  0.37553466428E+03  0.00000000000E+00 0.  1.
          4   -1    0    0  502    0 -0.00000000000E+00 -0.00000000000E+00 -0.37161508341E+04  0.37161508341E+04  0.00000000000E+00 0.  1.
        -13    1    1    2    0    0 -0.16281496305E+03  0.20289046112E+03 -0.35788753225E+03  0.44244406235E+03  0.10566000000E+00 0.  1.
         13    1    1    2    0    0 -0.42609345288E+03  0.36713071637E+03 -0.27361462474E+04  0.27933558477E+04  0.10566000000E+00 0. -1.
          4    1    1    2  501    0  0.58890841593E+03 -0.57002117749E+03 -0.24658239013E+03  0.85588558831E+03  0.00000000000E+00 0.  1.
</event>
<event>
 5    1  0.8445827E-005  0.1834939E+03  0.7818608E-02  0.1072081E+00
          4   -1    0    0  502    0 -0.00000000000E+00  0.00000000000E+00  0.41529142625E+03  0.41529142625E+03  0.00000000000E+00 0.  1.
         21   -1    0    0  501  502  0.00000000000E+00 -0.00000000000E+00 -0.15712176872E+03  0.15712176872E+03  0.00000000000E+00 0.  1.
        -13    1    1    2    0    0 -0.12039894660E+03 -0.20317275980E+03  0.17404112648E+03  0.29336905348E+03  0.10566000000E+00 0.  1.
         13    1    1    2    0    0  0.96009465903E+02  0.11575282771E+03  0.10805821577E+03  0.18518402692E+03  0.10566000000E+00 0. -1.
          4    1    1    2  501    0  0.24389480699E+02  0.87419932087E+02 -0.23929684731E+02  0.93860114565E+02  0.00000000000E+00 0.  1.
</event>
<event>
 5    1  0.8445827E-005  0.3775215E+03  0.7818608E-02  0.9814592E-01
         21   -1    0    0  501  502  0.00000000000E+00  0.00000000000E+00  0.36292257256E+03  0.36292257256E+03  0.00000000000E+00 0. -1.
         -4   -1    0    0    0  501 -0.00000000000E+00 -0.00000000000E+00 -0.14621983104E+04  0.14621983104E+04  0.00000000000E+00 0. -1.
        -13    1    1    2    0    0  0.35466540215E+03 -0.49869087765E+01 -0.48954101952E+03  0.60453522453E+03  0.10566000000E+00 0.  1.
         13    1    1    2    0    0  0.45354510541E+02  0.36290199916E+03  0.51037932159E+02  0.36926924364E+03  0.10566000000E+00 0. -1.
         -4    1    1    2    0  502 -0.40001991269E+03 -0.35791509038E+03 -0.66077265048E+03  0.85131641479E+03  0.00000000000E+00 0. -1.
</event>
<event>
 5    1  0.8445827E-005  0.2364318E+03  0.7818608E-02  0.1037674E+00
          4   -1    0    0  502    0 -0.00000000000E+00  0.00000000000E+00  0.14692811256E+04  0.14692811256E+04  0.00000000000E+00 0.  1.
         21   -1    0    0  501  502  0.00000000000E+00 -0.00000000000E+00 -0.57361729989E+02  0.57361729989E+02  0.00000000000E+00 0. -1.
        -13    1    1    2    0    0 -0.11860974012E+03  0.20524522817E+03  0.10810840923E+04  0.11067685846E+04  0.10566000000E+00 0.  1.
         13    1    1    2    0    0  0.10045733918E+03 -0.21264045141E+03  0.32103802338E+03  0.39796113150E+03  0.10566000000E+00 0. -1.
          4    1    1    2  501    0  0.18152400937E+02  0.73952232344E+01  0.97972799304E+01  0.21913139449E+02  0.00000000000E+00 0.  1.
</event>
<event>
 5    1  0.8445827E-005  0.1327686E+03  0.7818608E-02  0.1119469E+00
         21   -1    0    0  501  502  0.00000000000E+00  0.00000000000E+00  0.10140384621E+04  0.10140384621E+04  0.00000000000E+00 0.  1.
         -4   -1    0    0    0  501 -0.00000000000E+00 -0.00000000000E+00 -0.16804943017E+03  0.16804943017E+03  0.00000000000E+00 0. -1.
        -13    1    1    2    0    0 -0.10283063027E+03 -0.64213450184E+02  0.42591245099E+03  0.44283059151E+03  0.10566000000E+00 0.  1.
         13    1    1    2    0    0  0.11428201647E+03  0.69028034418E+02 -0.13158473754E+03  0.18745613658E+03  0.10566000000E+00 0. -1.
         -4    1    1    2    0  502 -0.11451386208E+02 -0.48145842337E+01  0.55166131850E+03  0.55180116419E+03  0.00000000000E+00 0. -1.
</event>
<event>
 5    1  0.8445827E-005  0.3432711E+03  0.7818608E-02  0.1021997E+00
         -4   -1    0    0    0  501 -0.00000000000E+00  0.00000000000E+00  0.39749141471E+03  0.39749141471E+03  0.00000000000E+00 0. -1.
         21   -1    0    0  501  502  0.00000000000E+00 -0.00000000000E+00 -0.54969074771E+03  0.54969074771E+03  0.00000000000E+00 0. -1.
        -13    1    1    2    0    0 -0.10239823263E+03  0.72425300958E+02  0.13853658440E+03  0.18687754987E+03  0.10566000000E+00 0.  1.
         13    1    1    2    0    0 -0.82337815183E+02 -0.35068188764E+03 -0.20897099486E+03  0.41644470220E+03  0.10566000000E+00 0. -1.
         -4    1    1    2    0  502  0.18473604781E+03  0.27825658669E+03 -0.81764922539E+02  0.34385991036E+03  0.00000000000E+00 0. -1.
</event>
<event>
 5    1  0.8445827E-005  0.3441467E+03  0.7818608E-02  0.9999420E-01
         21   -1    0    0  501  502  0.00000000000E+00  0.00000000000E+00  0.67238591367E+03  0.67238591367E+03  0.00000000000E+00 0. -1.
         -4   -1    0    0    0  501 -0.00000000000E+00 -0.00000000000E+00 -0.10753759777E+04  0.10753759777E+04  0.00000000000E+00 0. -1.
        -13    1    1    2    0    0 -0.85718755227E+02 -0.23752737288E+03 -0.61708871315E+03  0.66675741385E+03  0.10566000000E+00 0.  1.
         13    1    1    2    0    0  0.41886730177E+03  0.20691204435E+03 -0.23342427326E+03  0.52225406949E+03  0.10566000000E+00 0. -1.
         -4    1    1    2    0  502 -0.33314854655E+03  0.30615328531E+02  0.44752292238E+03  0.55875040802E+03  0.00000000000E+00 0. -1.
</event>
<event>
 5    1  0.8445827E-005  0.2862811E+03  0.7818608E-02  0.1027441E+00
         21   -1    0    0  501  502  0.00000000000E+00  0.00000000000E+00  0.20514580439E+03  0.20514580439E+03  0.00000000000E+00 0.  1.
          4   -1    0    0  502    0 -0.00000000000E+00 -0.00000000000E+00 -0.17893990951E+04  0.17893990951E+04  0.00000000000E+00 0.  1.
        -13    1    1    2    0    0 -0.30499670909E+03  0.19569326630E+03 -0.14503126792E+04  0.14948999048E+04  0.10566000000E+00 0.  1.
         13    1    1    2    0    0  0.22541353318E+02 -0.18102517271E+03 -0.11612577199E+03  0.21624854184E+03  0.10566000000E+00 0. -1.
          4    1    1    2  501    0  0.28245535577E+03 -0.14668093591E+02 -0.17814839588E+02  0.28339645284E+03  0.00000000000E+00 0.  1.
</event>
<event>
 5    1  0.8445827E-005  0.4031914E+02  0.7818608E-02  0.1337144E+00
          4   -1    0    0  502    0 -0.00000000000E+00  0.00000000000E+00  0.21816941156E+02  0.21816941156E+02  0.00000000000E+00 0.  1.
         21   -1    0    0  501  502  0.00000000000E+00 -0.00000000000E+00 -0.17056391545E+03  0.17056391545E+03  0.00000000000E+00 0. -1.
        -13    1    1    2    0    0  0.36630077876E+02 -0.88146041033E+01 -0.13632388762E+02  0.40066357934E+02  0.10566000000E+00 0.  1.
         13    1    1    2    0    0 -0.45008838221E+02  0.25247848385E+02 -0.93542233226E+02  0.10683356180E+03  0.10566000000E+00 0. -1.
          4    1    1    2  501    0  0.83787603444E+01 -0.16433244281E+02 -0.41572352309E+02  0.45480936875E+02  0.00000000000E+00 0.  1.
</event>
<event>
 5    1  0.8445827E-005  0.7356351E+03  0.7818608E-02  0.9072828E-01
         21   -1    0    0  501  502  0.00000000000E+00  0.00000000000E+00  0.90368329297E+03  0.90368329297E+03  0.00000000000E+00 0.  1.
          4   -1    0    0  502    0 -0.00000000000E+00 -0.00000000000E+00 -0.13807057641E+04  0.13807057641E+04  0.00000000000E+00 0.  1.
        -13    1    1    2    0    0  0.60408482819E+03  0.35892687842E+03 -0.23459240133E+03  0.74079726621E+03  0.10566000000E+00 0.  1.
         13    1    1    2    0    0 -0.48495722368E+03 -0.60904911410E+03 -0.67466432963E+03  0.10301923612E+04  0.10566000000E+00 0. -1.
          4    1    1    2  501    0 -0.11912760451E+03  0.25012223568E+03  0.43223425988E+03  0.51339942964E+03  0.00000000000E+00 0.  1.
</event>
<event>
 5    1  0.8445827E-005  0.3043417E+03  0.7818608E-02  0.1071576E+00
          4   -1    0    0  502    0 -0.00000000000E+00  0.00000000000E+00  0.20409118657E+04  0.20409118657E+04  0.00000000000E+00 0.  1.
         21   -1    0    0  501  502  0.00000000000E+00 -0.00000000000E+00 -0.77253942766E+02  0.77253942766E+02  0.00000000000E+00 0.  1.
        -13    1    1    2    0    0 -0.93113926737E+02  0.29728250973E+03  0.15024783358E+04  0.15344341807E+04  0.10566000000E+00 0.  1.
         13    1    1    2    0    0  0.40792314968E+02  0.80200475902E+00  0.12777347453E+02  0.42754273986E+02  0.10566000000E+00 0. -1.
          4    1    1    2  501    0  0.52321611768E+02 -0.29808451449E+03  0.44840223965E+03  0.54097735383E+03  0.00000000000E+00 0.  1.
</event>
<event>
 5    1  0.8445827E-005  0.2565677E+03  0.7818608E-02  0.1027044E+00
         21   -1    0    0  501  502  0.00000000000E+00  0.00000000000E+00  0.17418346857E+03  0.17418346857E+03  0.00000000000E+00 0.  1.
          4   -1    0    0  502    0 -0.00000000000E+00 -0.00000000000E+00 -0.27247035237E+04  0.27247035237E+04  0.00000000000E+00 0.  1.
        -13    1    1    2    0    0 -0.24302120048E+03 -0.31629364293E+03 -0.15168330088E+04  0.15684015303E+04  0.10566000000E+00 0.  1.
         13    1    1    2    0    0  0.12282451178E+03  0.16374453054E+03 -0.11048460577E+04  0.11236471663E+04  0.10566000000E+00 0. -1.
          4    1    1    2  501    0  0.12019668870E+03  0.15254911239E+03  0.71159011354E+02  0.20683829569E+03  0.00000000000E+00 0.  1.
</event>
<event>
 5    1  0.8445827E-005  0.5555351E+03  0.7818608E-02  0.9363906E-01
         21   -1    0    0  501  502  0.00000000000E+00  0.00000000000E+00  0.17440601545E+03  0.17440601545E+03  0.00000000000E+00 0. -1.
         -4   -1    0    0    0  501 -0.00000000000E+00 -0.00000000000E+00 -0.30902243440E+04  0.30902243440E+04  0.00000000000E+00 0. -1.
        -13    1    1    2    0    0  0.36448402528E+03  0.11862737046E+03 -0.33051771684E+03  0.50612550817E+03  0.10566000000E+00 0.  1.
         13    1    1    2    0    0 -0.64948916528E+03 -0.11642217957E+03 -0.20264624525E+04  0.21311828599E+04  0.10566000000E+00 0. -1.
         -4    1    1    2    0  502  0.28500514000E+03 -0.22051908837E+01 -0.55883815918E+03  0.62732199136E+03  0.00000000000E+00 0. -1.
</event>
<event>
 5    1  0.8445827E-005  0.4748862E+03  0.7818608E-02  0.9692102E-01
         21   -1    0    0  501  502  0.00000000000E+00  0.00000000000E+00  0.47452432933E+03  0.47452432933E+03  0.00000000000E+00 0. -1.
         -4   -1    0    0    0  501 -0.00000000000E+00 -0.00000000000E+00 -0.92557529448E+03  0.92557529448E+03  0.00000000000E+00 0. -1.
        -13    1    1    2    0    0  0.58616845022E+02  0.26539156879E+03 -0.14460828345E+03  0.30786390842E+03  0.10566000000E+00 0.  1.
         13    1    1    2    0    0 -0.50459741628E+03 -0.27444094065E+03 -0.29567331821E+03  0.64603336190E+03  0.10566000000E+00 0. -1.
         -4    1    1    2    0  502  0.44598057126E+03  0.90493718624E+01 -0.10769363492E+02  0.44620235349E+03  0.00000000000E+00 0. -1.
</event>
<event>
 5    1  0.8445827E-005  0.6097361E+02  0.7818608E-02  0.1252612E+00
         21   -1    0    0  501  502  0.00000000000E+00  0.00000000000E+00  0.14018974701E+03  0.14018974701E+03  0.00000000000E+00 0. -1.
          4   -1    0    0  502    0 -0.00000000000E+00 -0.00000000000E+00 -0.98303689486E+02  0.98303689486E+02  0.00000000000E+00 0.  1.
        -13    1    1    2    0    0  0.10049677195E+02 -0.59348282688E+02 -0.75476464009E+02  0.96539745458E+02  0.10566000000E+00 0.  1.
         13    1    1    2    0    0 -0.16676748821E+02  0.67004920747E+02  0.95373364005E+02  0.11774490682E+03  0.10566000000E+00 0. -1.
          4    1    1    2  501    0  0.66270716260E+01 -0.76566380585E+01  0.21989157533E+02  0.24208784226E+02  0.00000000000E+00 0.  1.
</event>
<event>
 5    1  0.8445827E-005  0.3906158E+03  0.7818608E-02  0.1001157E+00
         21   -1    0    0  501  502  0.00000000000E+00  0.00000000000E+00  0.16528742300E+04  0.16528742300E+04  0.00000000000E+00 0.  1.
          4   -1    0    0  502    0 -0.00000000000E+00 -0.00000000000E+00 -0.24659222151E+03  0.24659222151E+03  0.00000000000E+00 0.  1.
        -13    1    1    2    0    0 -0.49144610950E+03  0.90840651824E+02  0.34208441449E+03  0.60563442800E+03  0.10566000000E+00 0.  1.
         13    1    1    2    0    0  0.15544439203E+03  0.58136953044E+02 -0.20917849232E+01  0.16597364565E+03  0.10566000000E+00 0. -1.
          4    1    1    2  501    0  0.33600171747E+03 -0.14897760487E+03  0.10662893789E+04  0.11278583778E+04  0.00000000000E+00 0.  1.
</event>
<event>
 5    1  0.8445827E-005  0.4495050E+03  0.7818608E-02  0.1000354E+00
         -4   -1    0    0    0  501 -0.00000000000E+00  0.00000000000E+00  0.28617481835E+03  0.28617481835E+03  0.00000000000E+00 0. -1.
         21   -1    0    0  501  502  0.00000000000E+00 -0.00000000000E+00 -0.11475870718E+04  0.11475870718E+04  0.00000000000E+00 0. -1.
        -13    1    1    2    0    0 -0.93136346367E+02 -0.61855562263E+02 -0.79954788584E+00  0.11180849716E+03  0.10566000000E+00 0.  1.
         13    1    1    2    0    0  0.50915623697E+03 -0.35084921857E+02 -0.22883524138E+03  0.55931798134E+03  0.10566000000E+00 0. -1.
         -4    1    1    2    0  502 -0.41601989061E+03  0.96940484120E+02 -0.63177746414E+03  0.76263541160E+03  0.00000000000E+00 0. -1.
</event>
<event>
 5    1  0.8445827E-005  0.5024452E+03  0.7818608E-02  0.9695812E-01
         -4   -1    0    0    0  501 -0.00000000000E+00  0.00000000000E+00  0.65214634776E+03  0.65214634776E+03  0.00000000000E+00 0. -1.
         21   -1    0    0  501  502  0.00000000000E+00 -0.00000000000E+00 -0.65653287286E+03  0.65653287286E+03  0.00000000000E+00 0. -1.
        -13    1    1    2    0    0 -0.20148274412E+03  0.10352822171E+03  0.13855750900E+03  0.26554017273E+03  0.10566000000E+00 0.  1.
         13    1    1    2    0    0  0.10200864955E+03  0.45476110102E+03 -0.55496469702E+02  0.46935412313E+03  0.10566000000E+00 0. -1.
         -4    1    1    2    0  502  0.99474094571E+02 -0.55828932273E+03 -0.87447564401E+02  0.57378492476E+03  0.00000000000E+00 0. -1.
</event>
<event>
 5    1  0.8445827E-005  0.4187218E+03  0.7818608E-02  0.9676481E-01
         -4   -1    0    0    0  501 -0.00000000000E+00  0.00000000000E+00  0.40245523614E+03  0.40245523614E+03  0.00000000000E+00 0. -1.
         21   -1    0    0  501  502  0.00000000000E+00 -0.00000000000E+00 -0.19147684761E+04  0.19147684761E+04  0.00000000000E+00 0. -1.
        -13    1    1    2    0    0 -0.35501491327E+03 -0.47760426596E+03 -0.55003514331E+03  0.81035800333E+03  0.10566000000E+00 0.  1.
         13    1    1    2    0    0  0.37897334647E+03  0.11819290777E+03  0.79248420201E+02  0.40480944165E+03  0.10566000000E+00 0. -1.
         -4    1    1    2    0  502 -0.23958433193E+02  0.35941135819E+03 -0.10415265169E+04  0.11020562673E+04  0.00000000000E+00 0. -1.
</event>
<event>
 5    1  0.8445827E-005  0.1030112E+03  0.7818608E-02  0.1159667E+00
         21   -1    0    0  501  502  0.00000000000E+00  0.00000000000E+00  0.12176602785E+03  0.12176602785E+03  0.00000000000E+00 0.  1.
          4   -1    0    0  502    0 -0.00000000000E+00 -0.00000000000E+00 -0.35694925437E+03  0.35694925437E+03  0.00000000000E+00 0.  1.
        -13    1    1    2    0    0  0.44846686742E+02  0.87473510708E+02 -0.23709015048E+03  0.25666045860E+03  0.10566000000E+00 0.  1.
         13    1    1    2    0    0 -0.41089747236E+02 -0.11233324206E+03 -0.74973904317E+02  0.14116735491E+03  0.10566000000E+00 0. -1.
          4    1    1    2  501    0 -0.37569395054E+01  0.24859731355E+02  0.76880828276E+02  0.80887468707E+02  0.00000000000E+00 0.  1.
</event>
<event>
 5    1  0.8445827E-005  0.8296652E+02  0.7818608E-02  0.1196299E+00
         -4   -1    0    0    0  501 -0.00000000000E+00  0.00000000000E+00  0.69443735055E+02  0.69443735055E+02  0.00000000000E+00 0. -1.
         21   -1    0    0  501  502  0.00000000000E+00 -0.00000000000E+00 -0.18345200019E+03  0.18345200019E+03  0.00000000000E+00 0.  1.
        -13    1    1    2    0    0  0.64042242420E+02 -0.47864235347E+02 -0.28656736867E+02  0.84932994598E+02  0.10566000000E+00 0.  1.
         13    1    1    2    0    0 -0.75712296858E+02  0.40338907346E+02 -0.44770250069E+01  0.85904797645E+02  0.10566000000E+00 0. -1.
         -4    1    1    2    0  502  0.11670054438E+02  0.75253280005E+01 -0.80874503261E+02  0.82057943003E+02  0.00000000000E+00 0. -1.
</event>
<event>
 5    1  0.8445827E-005  0.4774432E+03  0.7818608E-02  0.1009719E+00
         21   -1    0    0  501  502  0.00000000000E+00  0.00000000000E+00  0.76036239429E+03  0.76036239429E+03  0.00000000000E+00 0. -1.
         -4   -1    0    0    0  501 -0.00000000000E+00 -0.00000000000E+00 -0.40822142020E+03  0.40822142020E+03  0.00000000000E+00 0. -1.
        -13    1    1    2    0    0 -0.87015134198E+00  0.68850156496E+02  0.66766923786E+01  0.69178686010E+02  0.10566000000E+00 0.  1.
         13    1    1    2    0    0  0.42562219878E+03  0.16935561716E+03 -0.64798319091E+02  0.46263853544E+03  0.10566000000E+00 0. -1.
         -4    1    1    2    0  502 -0.42475204743E+03 -0.23820577365E+03  0.41026260080E+03  0.63676659304E+03  0.00000000000E+00 0. -1.
</event>
<event>
 5    1  0.8445827E-005  0.5021968E+03  0.7818608E-02  0.9622856E-01
         21   -1    0    0  501  502  0.00000000000E+00  0.00000000000E+00  0.28569259463E+03  0.28569259463E+03  0.00000000000E+00 0. -1.
         -4   -1    0    0    0  501 -0.00000000000E+00 -0.00000000000E+00 -0.22095425506E+04  0.22095425506E+04  0.00000000000E+00 0. -1.
        -13    1    1    2    0    0 -0.22725332772E+03  0.18514615696E+03 -0.11428956577E+04  0.11798871429E+04  0.10566000000E+00 0.  1.
         13    1    1    2    0    0  0.42744131953E+03  0.29860174910E+03 -0.49431355612E+03  0.71848102907E+03  0.10566000000E+00 0. -1.
         -4    1    1    2    0  502 -0.20018799181E+03 -0.48374790607E+03 -0.28664074210E+03  0.59686697322E+03  0.00000000000E+00 0. -1.
</event>
<event>
 5    1  0.8445827E-005  0.4396036E+03  0.7818608E-02  0.9621185E-01
         -4   -1    0    0    0  501 -0.00000000000E+00  0.00000000000E+00  0.16822587331E+04  0.16822587331E+04  0.00000000000E+00 0. -1.
         21   -1    0    0  501  502  0.00000000000E+00 -0.00000000000E+00 -0.45044650927E+03  0.45044650927E+03  0.00000000000E+00 0. -1.
        -13    1    1    2    0    0 -0.17744837423E+03  0.34925125179E+03  0.92613998844E+03  0.10055842340E+04  0.10566000000E+00 0.  1.
         13    1    1    2    0    0  0.37272829936E+03 -0.50062953734E+03  0.51038160111E+03  0.80625412168E+03  0.10566000000E+00 0. -1.
         -4    1    1    2    0  502 -0.19527992513E+03  0.15137828554E+03 -0.20470936577E+03  0.32086688662E+03  0.00000000000E+00 0. -1.
</event>
<event>
 5    1  0.8445827E-005  0.2268337E+03  0.7818608E-02  0.1043150E+00
          4   -1    0    0  502    0 -0.00000000000E+00  0.00000000000E+00  0.51890555999E+03  0.51890555999E+03  0.00000000000E+00 0.  1.
         21   -1    0    0  501  502  0.00000000000E+00 -0.00000000000E+00 -0.11325673713E+03  0.11325673713E+03  0.00000000000E+00 0. -1.
        -13    1    1    2    0    0 -0.19279813053E+03  0.12094983172E+03  0.16021028551E+03  0.27832953073E+03  0.10566000000E+00 0.  1.
         13    1    1    2    0    0  0.20361191997E+03 -0.99868131648E+02  0.23857598769E+03  0.32916556736E+03  0.10566000000E+00 0. -1.
          4    1    1    2  501    0 -0.10813789441E+02 -0.21081700072E+02  0.68625496633E+01  0.24667199028E+02  0.00000000000E+00 0.  1.
</event>
<event>
 5    1  0.8445827E-005  0.1072627E+03  0.7818608E-02  0.1153068E+00
          4   -1    0    0  502    0 -0.00000000000E+00  0.00000000000E+00  0.29766622986E+03  0.29766622986E+03  0.00000000000E+00 0.  1.
         21   -1    0    0  501  502  0.00000000000E+00 -0.00000000000E+00 -0.18061946668E+03  0.18061946668E+03  0.00000000000E+00 0. -1.
        -13    1    1    2    0    0  0.85051193377E+02  0.60828786413E+02  0.23990050051E+03  0.26169850604E+03  0.10566000000E+00 0.  1.
         13    1    1    2    0    0 -0.11135042049E+03 -0.70556302363E+02 -0.54387271555E+02  0.14260117257E+03  0.10566000000E+00 0. -1.
          4    1    1    2  501    0  0.26299227117E+02  0.97275159507E+01 -0.68466465779E+02  0.73986017934E+02  0.00000000000E+00 0.  1.
</event>
<event>
 5    1  0.8445827E-005  0.2689478E+03  0.7818608E-02  0.1021016E+00
         21   -1    0    0  501  502  0.00000000000E+00  0.00000000000E+00  0.43206034753E+03  0.43206034753E+03  0.00000000000E+00 0.  1.
          4   -1    0    0  502    0 -0.00000000000E+00 -0.00000000000E+00 -0.16714719083E+04  0.16714719083E+04  0.00000000000E+00 0.  1.
        -13    1    1    2    0    0  0.35773923571E+03  0.89154904663E+02 -0.55857538411E+03  0.66927754235E+03  0.10566000000E+00 0.  1.
         13    1    1    2    0    0 -0.24506976995E+03  0.35290415807E+02 -0.10233165202E+04  0.10528443937E+04  0.10566000000E+00 0. -1.
          4    1    1    2  501    0 -0.11266946576E+03 -0.12444532047E+03  0.34248034357E+03  0.38141031978E+03  0.00000000000E+00 0.  1.
</event>
<event>
 5    1  0.8445827E-005  0.5029158E+03  0.7818608E-02  0.9708520E-01
         -4   -1    0    0    0  501 -0.00000000000E+00  0.00000000000E+00  0.86813589330E+03  0.86813589330E+03  0.00000000000E+00 0. -1.
         21   -1    0    0  501  502  0.00000000000E+00 -0.00000000000E+00 -0.50464446550E+03  0.50464446550E+03  0.00000000000E+00 0. -1.
        -13    1    1    2    0    0 -0.21358761124E+03 -0.32951194458E+02  0.26105926709E+03  0.33890618317E+03  0.10566000000E+00 0.  1.
         13    1    1    2    0    0 -0.28109263006E+03  0.33649187019E+03  0.11526062570E+03  0.45334850654E+03  0.10566000000E+00 0. -1.
         -4    1    1    2    0  502  0.49468024130E+03 -0.30354067574E+03 -0.12828464990E+02  0.58052566909E+03  0.00000000000E+00 0. -1.
</event>
<event>
 5    1  0.8445827E-005  0.3606411E+03  0.7818608E-02  0.1024802E+00
          4   -1    0    0  502    0 -0.00000000000E+00  0.00000000000E+00  0.18822390000E+04  0.18822390000E+04  0.00000000000E+00 0.  1.
         21   -1    0    0  501  502  0.00000000000E+00 -0.00000000000E+00 -0.17006584912E+03  0.17006584912E+03  0.00000000000E+00 0.  1.
        -13    1    1    2    0    0  0.14336328838E+03 -0.33788896239E+03  0.11846608382E+04  0.12402190517E+04  0.10566000000E+00 0.  1.
         13    1    1    2    0    0 -0.96873909814E+02 -0.20717708352E+02  0.42476524640E+03  0.43616430798E+03  0.10566000000E+00 0. -1.
          4    1    1    2  501    0 -0.46489378567E+02  0.35860667074E+03  0.10274706625E+03  0.37592148947E+03  0.00000000000E+00 0.  1.
</event>
<event>
 5    1  0.8445827E-005  0.3479017E+03  0.7818608E-02  0.9892907E-01
         21   -1    0    0  501  502  0.00000000000E+00  0.00000000000E+00  0.16903501208E+03  0.16903501208E+03  0.00000000000E+00 0. -1.
         -4   -1    0    0    0  501 -0.00000000000E+00 -0.00000000000E+00 -0.19838174689E+04  0.19838174689E+04  0.00000000000E+00 0. -1.
        -13    1    1    2    0    0  0.19502905215E+03  0.28427324823E+03 -0.55307883783E+03  0.65172373201E+03  0.10566000000E+00 0.  1.
         13    1    1    2    0    0 -0.17195453442E+03 -0.30453783465E+03 -0.13568249736E+04  0.14011729640E+04  0.10566000000E+00 0. -1.
         -4    1    1    2    0  502 -0.23074517728E+02  0.20264586426E+02  0.95121354701E+02  0.99955784983E+02  0.00000000000E+00 0. -1.
</event>
<event>
 5    1  0.8445827E-005  0.2701594E+03  0.7818608E-02  0.1020445E+00
         21   -1    0    0  501  502  0.00000000000E+00  0.00000000000E+00  0.35301851313E+02  0.35301851313E+02  0.00000000000E+00 0.  1.
         -4   -1    0    0    0  501 -0.00000000000E+00 -0.00000000000E+00 -0.24552230038E+04  0.24552230038E+04  0.00000000000E+00 0. -1.
        -13    1    1    2    0    0 -0.13024601342E+03 -0.22114489526E+03 -0.80995655868E+03  0.84964623627E+03  0.10566000000E+00 0.  1.
         13    1    1    2    0    0  0.12685845218E+03  0.24826854418E+03 -0.15513544549E+04  0.15762077886E+04  0.10566000000E+00 0. -1.
         -4    1    1    2    0  502  0.33875612377E+01 -0.27123648920E+02 -0.58610138946E+02  0.64670830281E+02  0.00000000000E+00 0. -1.
</event>
<event>
 5    1  0.8445827E-005  0.3150770E+03  0.7818608E-02  0.1013489E+00
         21   -1    0    0  501  502  0.00000000000E+00  0.00000000000E+00  0.15373790894E+03  0.15373790894E+03  0.00000000000E+00 0.  1.
          4   -1    0    0  502    0 -0.00000000000E+00 -0.00000000000E+00 -0.14286739851E+04  0.14286739851E+04  0.00000000000E+00 0.  1.
        -13    1    1    2    0    0  0.34299356483E+03  0.15142283841E+03 -0.20978891935E+03  0.42963340577E+03  0.10566000000E+00 0.  1.
         13    1    1    2    0    0 -0.20960239821E+03  0.33896138176E+02 -0.49575674540E+03  0.53931148262E+03  0.10566000000E+00 0. -1.
          4    1    1    2  501    0 -0.13339116662E+03 -0.18531897658E+03 -0.56939041137E+03  0.61346700561E+03  0.00000000000E+00 0.  1.
</event>
<event>
 5    1  0.8445827E-005  0.2229174E+03  0.7818608E-02  0.1045467E+00
          4   -1    0    0  502    0 -0.00000000000E+00  0.00000000000E+00  0.10114540779E+04  0.10114540779E+04  0.00000000000E+00 0.  1.
         21   -1    0    0  501  502  0.00000000000E+00 -0.00000000000E+00 -0.51825827321E+03  0.51825827321E+03  0.00000000000E+00 0.  1.
        -13    1    1    2    0    0  0.77216866053E+02  0.10325993879E+03 -0.46162147236E+03  0.47929057395E+03  0.10566000000E+00 0.  1.
         13    1    1    2    0    0 -0.23063878888E+03  0.28636803691E+02  0.44761002582E+03  0.50435014012E+03  0.10566000000E+00 0. -1.
          4    1    1    2  501    0  0.15342192282E+03 -0.13189674248E+03  0.50720725127E+03  0.54607163708E+03  0.00000000000E+00 0.  1.
</event>
<event>
 5    1  0.8445827E-005  0.2664889E+03  0.7818608E-02  0.1022185E+00
         21   -1    0    0  501  502  0.00000000000E+00  0.00000000000E+00  0.48848026264E+02  0.48848026264E+02  0.00000000000E+00 0.  1.
         -4   -1    0    0    0  501 -0.00000000000E+00 -0.00000000000E+00 -0.15990101489E+04  0.15990101489E+04  0.00000000000E+00 0. -1.
        -13    1    1    2    0    0 -0.25647100237E+03  0.81141364181E+02 -0.63633290156E+03  0.69085517209E+03  0.10566000000E+00 0.  1.
         13    1    1    2    0    0  0.25529225804E+03 -0.70386354818E+02 -0.90526680138E+03  0.94320536937E+03  0.10566000000E+00 0. -1.
         -4    1    1    2    0  502  0.11787443315E+01 -0.10755009363E+02 -0.85624196796E+01  0.13797633687E+02  0.00000000000E+00 0. -1.
</event>
<event>
 5    1  0.8445827E-005  0.4770210E+02  0.7818608E-02  0.1301438E+00
         -4   -1    0    0    0  501 -0.00000000000E+00  0.00000000000E+00  0.56330720661E+02  0.56330720661E+02  0.00000000000E+00 0. -1.
         21   -1    0    0  501  502  0.00000000000E+00 -0.00000000000E+00 -0.33396790767E+03  0.33396790767E+03  0.00000000000E+00 0. -1.
        -13    1    1    2    0    0 -0.33877732195E+02 -0.18210851646E+01 -0.77707477863E+02  0.84790803569E+02  0.10566000000E+00 0.  1.
         13    1    1    2    0    0  0.46762216299E+02 -0.18116356175E+02  0.40159941253E+02  0.64247484618E+02  0.10566000000E+00 0. -1.
         -4    1    1    2    0  502 -0.12884484104E+02  0.19937441339E+02 -0.24008965040E+03  0.24126034015E+03  0.00000000000E+00 0. -1.
</event>
<event>
 5    1  0.8445827E-005  0.6319923E+02  0.7818608E-02  0.1317882E+00
         -4   -1    0    0    0  501 -0.00000000000E+00  0.00000000000E+00  0.13563116283E+02  0.13563116283E+02  0.00000000000E+00 0. -1.
         21   -1    0    0  501  502  0.00000000000E+00 -0.00000000000E+00 -0.46406410233E+03  0.46406410233E+03  0.00000000000E+00 0. -1.
        -13    1    1    2    0    0 -0.53253195838E+01  0.14002131656E+02 -0.59101332106E+02  0.60970462852E+02  0.10566000000E+00 0.  1.
         13    1    1    2    0    0  0.64151103164E+02  0.88110848691E+01 -0.10477556664E+03  0.12317032834E+03  0.10566000000E+00 0. -1.
         -4    1    1    2    0  502 -0.58825783580E+02 -0.22813216525E+02 -0.28662408730E+03  0.29348642742E+03  0.00000000000E+00 0. -1.
</event>
<event>
 5    1  0.8445827E-005  0.7248618E+03  0.7818608E-02  0.9087672E-01
         21   -1    0    0  501  502  0.00000000000E+00  0.00000000000E+00  0.11296451562E+04  0.11296451562E+04  0.00000000000E+00 0.  1.
          4   -1    0    0  502    0 -0.00000000000E+00 -0.00000000000E+00 -0.14478174175E+04  0.14478174175E+04  0.00000000000E+00 0.  1.
        -13    1    1    2    0    0 -0.73943263049E+03 -0.91284464964E+02  0.21593350094E+03  0.77570661759E+03  0.10566000000E+00 0.  1.
         13    1    1    2    0    0  0.65566224319E+03 -0.36461616359E+03 -0.92810035605E+03  0.11934019465E+04  0.10566000000E+00 0. -1.
          4    1    1    2  501    0  0.83770387300E+02  0.45590062855E+03  0.39399459383E+03  0.60835400950E+03  0.00000000000E+00 0.  1.
</event>
<event>
 5    1  0.8445827E-005  0.1976575E+03  0.7818608E-02  0.1061754E+00
         21   -1    0    0  501  502  0.00000000000E+00  0.00000000000E+00  0.94879751562E+03  0.94879751562E+03  0.00000000000E+00 0. -1.
         -4   -1    0    0    0  501 -0.00000000000E+00 -0.00000000000E+00 -0.10402877335E+03  0.10402877335E+03  0.00000000000E+00 0. -1.
        -13    1    1    2    0    0  0.17229823235E+02  0.19283048177E+03  0.19900736687E+03  0.27764078364E+03  0.10566000000E+00 0.  1.
         13    1    1    2    0    0 -0.77281857185E+01 -0.20025220376E+03  0.90661940007E+02  0.21995515110E+03  0.10566000000E+00 0. -1.
         -4    1    1    2    0  502 -0.95016375163E+01  0.74217219827E+01  0.55509943540E+03  0.55523035423E+03  0.00000000000E+00 0. -1.
</event>
<event>
 5    1  0.8445827E-005  0.2527032E+03  0.7818608E-02  0.1061386E+00
          4   -1    0    0  502    0 -0.00000000000E+00  0.00000000000E+00  0.81305276151E+03  0.81305276151E+03  0.00000000000E+00 0.  1.
         21   -1    0    0  501  502  0.00000000000E+00 -0.00000000000E+00 -0.37087431162E+03  0.37087431162E+03  0.00000000000E+00 0.  1.
        -13    1    1    2    0    0 -0.19903847032E+03 -0.21023831398E+03  0.68128922073E+03  0.74025095392E+03  0.10566000000E+00 0.  1.
         13    1    1    2    0    0 -0.22806300036E+02  0.92841538748E+02  0.20195497502E+01  0.95623053620E+02  0.10566000000E+00 0. -1.
          4    1    1    2  501    0  0.22184477035E+03  0.11739677523E+03 -0.24113032058E+03  0.34805306560E+03  0.00000000000E+00 0.  1.
</event>
<event>
 5    1  0.8445827E-005  0.2816931E+03  0.7818608E-02  0.1015162E+00
         21   -1    0    0  501  502  0.00000000000E+00  0.00000000000E+00  0.27717658838E+03  0.27717658838E+03  0.00000000000E+00 0.  1.
         -4   -1    0    0    0  501 -0.00000000000E+00 -0.00000000000E+00 -0.41978421113E+03  0.41978421113E+03  0.00000000000E+00 0. -1.
        -13    1    1    2    0    0  0.25430798071E+03  0.10694401820E+03 -0.20486628392E+02  0.27663926907E+03  0.10566000000E+00 0.  1.
         13    1    1    2    0    0 -0.25355726443E+03 -0.13111759340E+03 -0.19356690905E+03  0.34489312705E+03  0.10566000000E+00 0. -1.
         -4    1    1    2    0  502 -0.75071627732E+00  0.24173575202E+02  0.71445914689E+02  0.75428403395E+02  0.00000000000E+00 0. -1.
</event>
<event>
 5    1  0.8445827E-005  0.3721204E+03  0.7818608E-02  0.9813207E-01
         -4   -1    0    0    0  501 -0.00000000000E+00  0.00000000000E+00  0.25587408222E+04  0.25587408222E+04  0.00000000000E+00 0. -1.
         21   -1    0    0  501  502  0.00000000000E+00 -0.00000000000E+00 -0.26818145811E+03  0.26818145811E+03  0.00000000000E+00 0. -1.
        -13    1    1    2    0    0 -0.36190418291E+03  0.20094735568E+03  0.13274445311E+04  0.13904903710E+04  0.10566000000E+00 0.  1.
         13    1    1    2    0    0  0.37898156890E+03  0.15467691851E+03  0.99801009302E+03  0.10786918631E+04  0.10566000000E+00 0. -1.
         -4    1    1    2    0  502 -0.17077385995E+02 -0.35562427419E+03 -0.34895260024E+02  0.35774004623E+03  0.00000000000E+00 0. -1.
</event>
<event>
 5    1  0.8445827E-005  0.3947144E+03  0.7818608E-02  0.1002173E+00
         -4   -1    0    0    0  501 -0.00000000000E+00  0.00000000000E+00  0.26470318363E+04  0.26470318363E+04  0.00000000000E+00 0. -1.
         21   -1    0    0  501  502  0.00000000000E+00 -0.00000000000E+00 -0.14824691080E+03  0.14824691080E+03  0.00000000000E+00 0. -1.
        -13    1    1    2    0    0 -0.53839349564E+02  0.14598407807E+03  0.84357641625E+03  0.85780604325E+03  0.10566000000E+00 0.  1.
         13    1    1    2    0    0 -0.16669998479E+03 -0.45162940339E+03  0.14047202405E+04  0.14849232197E+04  0.10566000000E+00 0. -1.
         -4    1    1    2    0  502  0.22053933435E+03  0.30564532532E+03  0.25048826869E+03  0.45254948419E+03  0.00000000000E+00 0. -1.
</event>
<event>
 5    1  0.8445827E-005  0.4470506E+03  0.7818608E-02  0.1004786E+00
         -4   -1    0    0    0  501 -0.00000000000E+00  0.00000000000E+00  0.65263351336E+03  0.65263351336E+03  0.00000000000E+00 0. -1.
         21   -1    0    0  501  502  0.00000000000E+00 -0.00000000000E+00 -0.48168333687E+03  0.48168333687E+03  0.00000000000E+00 0. -1.
        -13    1    1    2    0    0 -0.32097431787E+02 -0.92983216564E+02  0.76570590883E+02  0.12465628842E+03  0.10566000000E+00 0.  1.
         13    1    1    2    0    0 -0.15038047611E+03  0.47930345511E+03  0.24204603793E+03  0.55761311438E+03  0.10566000000E+00 0. -1.
         -4    1    1    2    0  502  0.18247790790E+03 -0.38632023855E+03 -0.14766645233E+03  0.45204744743E+03  0.00000000000E+00 0. -1.
</event>
<event>
 5    1  0.8445827E-005  0.2248496E+03  0.7818608E-02  0.1044318E+00
         21   -1    0    0  501  502  0.00000000000E+00  0.00000000000E+00  0.55264230676E+02  0.55264230676E+02  0.00000000000E+00 0.  1.
          4   -1    0    0  502    0 -0.00000000000E+00 -0.00000000000E+00 -0.12414264208E+04  0.12414264208E+04  0.00000000000E+00 0.  1.
        -13    1    1    2    0    0  0.24441926860E+03  0.91069407229E+01 -0.53752106389E+03  0.59055280925E+03  0.10566000000E+00 0.  1.
         13    1    1    2    0    0 -0.21121109023E+03  0.22985089589E+02 -0.60994411045E+03  0.64588719449E+03  0.10566000000E+00 0. -1.
          4    1    1    2  501    0 -0.33208178373E+02 -0.32092030312E+02 -0.38697015786E+02  0.60250647724E+02  0.00000000000E+00 0.  1.
</event>
<event>
 5    1  0.8445827E-005  0.3809463E+03  0.7818608E-02  0.9968494E-01
          4   -1    0    0  502    0 -0.00000000000E+00  0.00000000000E+00  0.29509897535E+04  0.29509897535E+04  0.00000000000E+00 0.  1.
         21   -1    0    0  501  502  0.00000000000E+00 -0.00000000000E+00 -0.94182227757E+02  0.94182227757E+02  0.00000000000E+00 0.  1.
        -13    1    1    2    0    0  0.37948283994E+03 -0.90820668717E+02  0.14903382296E+04  0.15405725135E+04  0.10566000000E+00 0.  1.
         13    1    1    2    0    0 -0.25433516228E+01  0.20609526935E+03  0.70578889433E+03  0.73526845656E+03  0.10566000000E+00 0. -1.
          4    1    1    2  501    0 -0.37693948831E+03 -0.11527460064E+03  0.66068040179E+03  0.76933101115E+03  0.00000000000E+00 0.  1.
</event>
<event>
 5    1  0.8445827E-005  0.4720217E+03  0.7818608E-02  0.9623850E-01
         21   -1    0    0  501  502  0.00000000000E+00  0.00000000000E+00  0.21864324367E+03  0.21864324367E+03  0.00000000000E+00 0. -1.
          4   -1    0    0  502    0 -0.00000000000E+00 -0.00000000000E+00 -0.23870602981E+04  0.23870602981E+04  0.00000000000E+00 0.  1.
        -13    1    1    2    0    0 -0.52333493946E+03  0.36507656877E+03 -0.12254531340E+04  0.13816279364E+04  0.10566000000E+00 0.  1.
         13    1    1    2    0    0  0.11629429212E+03 -0.33199330590E+03 -0.29971261354E+03  0.46213805233E+03  0.10566000000E+00 0. -1.
          4    1    1    2  501    0  0.40704064734E+03 -0.33083262870E+02 -0.64325130689E+03  0.76193755301E+03  0.00000000000E+00 0.  1.
</event>
<event>
 5    1  0.8445827E-005  0.2523225E+02  0.7818608E-02  0.1498338E+00
         21   -1    0    0  501  502  0.00000000000E+00  0.00000000000E+00  0.24587673197E+03  0.24587673197E+03  0.00000000000E+00 0. -1.
          4   -1    0    0  502    0 -0.00000000000E+00 -0.00000000000E+00 -0.19894092901E+02  0.19894092901E+02  0.00000000000E+00 0.  1.
        -13    1    1    2    0    0  0.73650415290E+01 -0.14326763499E+02 -0.61651974473E+01  0.17248791630E+02  0.10566000000E+00 0.  1.
         13    1    1    2    0    0 -0.44233855542E+02  0.16717133742E+02  0.90187144207E+02  0.10183235577E+03  0.10566000000E+00 0. -1.
          4    1    1    2  501    0  0.36868814013E+02 -0.23903702427E+01  0.14196069231E+03  0.14668967748E+03  0.00000000000E+00 0.  1.
</event>
<event>
 5    1  0.8445827E-005  0.5080844E+03  0.7818608E-02  0.9500572E-01
          4   -1    0    0  502    0 -0.00000000000E+00  0.00000000000E+00  0.45421795437E+03  0.45421795437E+03  0.00000000000E+00 0.  1.
         21   -1    0    0  501  502  0.00000000000E+00 -0.00000000000E+00 -0.16265039543E+04  0.16265039543E+04  0.00000000000E+00 0.  1.
        -13    1    1    2    0    0  0.16997966934E+03 -0.38873360502E+02  0.18973951263E+03  0.25769229706E+03  0.10566000000E+00 0.  1.
         13    1    1    2    0    0  0.41372178674E+03  0.35735106639E+03 -0.62761360759E+03  0.83232466807E+03  0.10566000000E+00 0. -1.
          4    1    1    2  501    0 -0.58370145609E+03 -0.31847770589E+03 -0.73441190495E+03  0.99070494352E+03  0.00000000000E+00 0.  1.
</event>
<event>
 5    1  0.8445827E-005  0.1303400E+03  0.7818608E-02  0.1122299E+00
         -4   -1    0    0    0  501 -0.00000000000E+00  0.00000000000E+00  0.86035645186E+03  0.86035645186E+03  0.00000000000E+00 0. -1.
         21   -1    0    0  501  502  0.00000000000E+00 -0.00000000000E+00 -0.53085160429E+02  0.53085160429E+02  0.00000000000E+00 0.  1.
        -13    1    1    2    0    0  0.11886832872E+03 -0.71368988444E+02  0.98061788823E+02  0.16982148767E+03  0.10566000000E+00 0.  1.
         13    1    1    2    0    0 -0.10333318430E+03  0.77388764975E+02  0.71455438229E+03  0.72612309172E+03  0.10566000000E+00 0. -1.
         -4    1    1    2    0  502 -0.15535144413E+02 -0.60197765309E+01 -0.53448796794E+01  0.17497032897E+02  0.00000000000E+00 0. -1.
</event>
<event>
 5    1  0.8445827E-005  0.7785108E+02  0.7818608E-02  0.1207515E+00
          4   -1    0    0  502    0 -0.00000000000E+00  0.00000000000E+00  0.21742576754E+03  0.21742576754E+03  0.00000000000E+00 0.  1.
         21   -1    0    0  501  502  0.00000000000E+00 -0.00000000000E+00 -0.53525132884E+02  0.53525132884E+02  0.00000000000E+00 0.  1.
        -13    1    1    2    0    0 -0.77349760329E+02  0.29667834096E+02  0.11518800354E+03  0.14188535205E+03  0.10566000000E+00 0.  1.
         13    1    1    2    0    0  0.68217311309E+02 -0.23942189520E+02  0.72847335647E+02  0.10263320845E+03  0.10566000000E+00 0. -1.
          4    1    1    2  501    0  0.91324490195E+01 -0.57256445756E+01 -0.24134704534E+02  0.26432339924E+02  0.00000000000E+00 0.  1.
</event>
<event>
 5    1  0.8445827E-005  0.2359871E+03  0.7818608E-02  0.1037922E+00
         21   -1    0    0  501  502  0.00000000000E+00  0.00000000000E+00  0.55213185301E+02  0.55213185301E+02  0.00000000000E+00 0.  1.
         -4   -1    0    0    0  501 -0.00000000000E+00 -0.00000000000E+00 -0.14962428651E+04  0.14962428651E+04  0.00000000000E+00 0. -1.
        -13    1    1    2    0    0 -0.21982516746E+03  0.60698695178E+02 -0.54495916704E+03  0.59075201290E+03  0.10566000000E+00 0.  1.
         13    1    1    2    0    0  0.23748800181E+03 -0.45465334306E+02 -0.90422355928E+03  0.93599567518E+03  0.10566000000E+00 0. -1.
         -4    1    1    2    0  502 -0.17662834356E+02 -0.15233360871E+02  0.81530465238E+01  0.24708362320E+02  0.00000000000E+00 0. -1.
</event>
<event>
 5    1  0.8445827E-005  0.1364512E+03  0.7818608E-02  0.1115300E+00
         21   -1    0    0  501  502  0.00000000000E+00  0.00000000000E+00  0.97176624322E+03  0.97176624322E+03  0.00000000000E+00 0. -1.
         -4   -1    0    0    0  501 -0.00000000000E+00 -0.00000000000E+00 -0.30448542895E+03  0.30448542895E+03  0.00000000000E+00 0. -1.
        -13    1    1    2    0    0  0.89923598647E+02  0.58334920540E+02  0.18358597195E+03  0.21258653958E+03  0.10566000000E+00 0.  1.
         13    1    1    2    0    0 -0.13091609789E+03 -0.47143461737E+02 -0.27266255983E+03  0.30611503290E+03  0.10566000000E+00 0. -1.
         -4    1    1    2    0  502  0.40992499242E+02 -0.11191458803E+02  0.75635740215E+03  0.75755009968E+03  0.00000000000E+00 0. -1.
</event>
<event>
 5    1  0.8445827E-005  0.4184959E+03  0.7818608E-02  0.9677098E-01
         21   -1    0    0  501  502  0.00000000000E+00  0.00000000000E+00  0.17561735521E+03  0.17561735521E+03  0.00000000000E+00 0.  1.
          4   -1    0    0  502    0 -0.00000000000E+00 -0.00000000000E+00 -0.47382287325E+04  0.47382287325E+04  0.00000000000E+00 0.  1.
        -13    1    1    2    0    0 -0.35451630069E+03  0.80025741599E+02 -0.21750788433E+04  0.22052333012E+04  0.10566000000E+00 0.  1.
         13    1    1    2    0    0  0.50638872314E+03 -0.96688234483E+02 -0.24779960986E+04  0.25310556749E+04  0.10566000000E+00 0. -1.
          4    1    1    2  501    0 -0.15187242245E+03  0.16662492885E+02  0.90463564628E+02  0.17755711164E+03  0.00000000000E+00 0.  1.
</event>
<event>
 5    1  0.8445827E-005  0.4381720E+03  0.7818608E-02  0.9624871E-01
          4   -1    0    0  502    0 -0.00000000000E+00  0.00000000000E+00  0.27817663279E+04  0.27817663279E+04  0.00000000000E+00 0.  1.
         21   -1    0    0  501  502  0.00000000000E+00 -0.00000000000E+00 -0.20906715627E+03  0.20906715627E+03  0.00000000000E+00 0.  1.
        -13    1    1    2    0    0  0.54552041081E+03  0.16221695865E+03  0.13258213165E+04  0.14428128897E+04  0.10566000000E+00 0.  1.
         13    1    1    2    0    0 -0.24783780873E+03 -0.30801387783E+03  0.11289960555E+04  0.11962141250E+04  0.10566000000E+00 0. -1.
          4    1    1    2  501    0 -0.29768260208E+03  0.14579691918E+03  0.11788179956E+03  0.35180646937E+03  0.00000000000E+00 0.  1.
</event>
<event>
 5    1  0.8445827E-005  0.4832222E+03  0.7818608E-02  0.9747940E-01
         21   -1    0    0  501  502  0.00000000000E+00  0.00000000000E+00  0.13436139669E+03  0.13436139669E+03  0.00000000000E+00 0.  1.
          4   -1    0    0  502    0 -0.00000000000E+00 -0.00000000000E+00 -0.32496787523E+04  0.32496787523E+04  0.00000000000E+00 0.  1.
        -13    1    1    2    0    0 -0.30010135341E+03  0.46265089973E+03 -0.18428553654E+04  0.19235962638E+04  0.10566000000E+00 0.  1.
         13    1    1    2    0    0 -0.72625991512E+02 -0.19974564750E+03 -0.18719253373E+03  0.28322061046E+03  0.10566000000E+00 0. -1.
          4    1    1    2  501    0  0.37272734492E+03 -0.26290525223E+03 -0.10852694564E+04  0.11772232747E+04  0.00000000000E+00 0.  1.
</event>
<event>
 5    1  0.8445827E-005  0.6095949E+03  0.7818608E-02  0.9410944E-01
         21   -1    0    0  501  502  0.00000000000E+00  0.00000000000E+00  0.51016714400E+03  0.51016714400E+03  0.00000000000E+00 0. -1.
         -4   -1    0    0    0  501 -0.00000000000E+00 -0.00000000000E+00 -0.29447594736E+04  0.29447594736E+04  0.00000000000E+00 0. -1.
        -13    1    1    2    0    0  0.24314225874E+02 -0.80073162987E+03 -0.18655954419E+04  0.20303223115E+04  0.10566000000E+00 0.  1.
         13    1    1    2    0    0  0.45174575055E+03  0.15557644625E+03 -0.77128701877E+02  0.48397014535E+03  0.10566000000E+00 0. -1.
         -4    1    1    2    0  502 -0.47605997643E+03  0.64515518362E+03 -0.49186818580E+03  0.94063416071E+03  0.00000000000E+00 0. -1.
</event>
<event>
 5    1  0.8445827E-005  0.2809777E+03  0.7818608E-02  0.1041412E+00
         21   -1    0    0  501  502  0.00000000000E+00  0.00000000000E+00  0.60643517219E+03  0.60643517219E+03  0.00000000000E+00 0. -1.
         -4   -1    0    0    0  501 -0.00000000000E+00 -0.00000000000E+00 -0.21873418124E+03  0.21873418124E+03  0.00000000000E+00 0. -1.
        -13    1    1    2    0    0 -0.11377786157E+03  0.53598301065E+02 -0.86742223049E+01  0.12606915942E+03  0.10566000000E+00 0.  1.
         13    1    1    2    0    0  0.31054629239E+03  0.94705931047E+02  0.26955118368E+03  0.42197874932E+03  0.10566000000E+00 0. -1.
         -4    1    1    2    0  502 -0.19676843082E+03 -0.14830423211E+03  0.12682402957E+03  0.27712144469E+03  0.00000000000E+00 0. -1.
</event>
<event>
 5    1  0.8445827E-005  0.2555400E+03  0.7818608E-02  0.1082462E+00
         21   -1    0    0  501  502  0.00000000000E+00  0.00000000000E+00  0.63252432349E+03  0.63252432349E+03  0.00000000000E+00 0.  1.
          4   -1    0    0  502    0 -0.00000000000E+00 -0.00000000000E+00 -0.50370668834E+03  0.50370668834E+03  0.00000000000E+00 0.  1.
        -13    1    1    2    0    0  0.21856032435E+03 -0.16756139870E+03 -0.33306782441E+03  0.43218008346E+03  0.10566000000E+00 0.  1.
         13    1    1    2    0    0 -0.46610260288E+02 -0.19883484133E+02 -0.86100625905E+02  0.99905947024E+02  0.10566000000E+00 0. -1.
          4    1    1    2  501    0 -0.17195006406E+03  0.18744488284E+03  0.54798608547E+03  0.60414498136E+03  0.00000000000E+00 0.  1.
</event>
<event>
 5    1  0.8445827E-005  0.1879852E+03  0.7818608E-02  0.1068700E+00
         21   -1    0    0  501  502  0.00000000000E+00  0.00000000000E+00  0.10667270166E+03  0.10667270166E+03  0.00000000000E+00 0. -1.
          4   -1    0    0  502    0 -0.00000000000E+00 -0.00000000000E+00 -0.44196500564E+03  0.44196500564E+03  0.00000000000E+00 0.  1.
        -13    1    1    2    0    0 -0.18533279547E+03  0.19265078871E+01 -0.20501356440E+03  0.27637389396E+03  0.10566000000E+00 0.  1.
         13    1    1    2    0    0  0.19125543812E+03  0.15205597366E+02 -0.15142142324E+03  0.24441422091E+03  0.10566000000E+00 0. -1.
          4    1    1    2  501    0 -0.59226426466E+01 -0.17132105253E+02  0.21142683662E+02  0.27849592434E+02  0.00000000000E+00 0.  1.
</event>
<event>
 5    1  0.8445827E-005  0.4930040E+03  0.7818608E-02  0.9593045E-01
          4   -1    0    0  502    0 -0.00000000000E+00  0.00000000000E+00  0.33710932032E+04  0.33710932032E+04  0.00000000000E+00 0.  1.
         21   -1    0    0  501  502  0.00000000000E+00 -0.00000000000E+00 -0.19112146987E+03  0.19112146987E+03  0.00000000000E+00 0. -1.
        -13    1    1    2    0    0 -0.61225713318E+02  0.61614051111E+03  0.17962423179E+04  0.18999642610E+04  0.10566000000E+00 0.  1.
         13    1    1    2    0    0 -0.21561461583E+03 -0.26859582102E+03  0.20095189157E+03  0.39876691377E+03  0.10566000000E+00 0. -1.
          4    1    1    2  501    0  0.27684032915E+03 -0.34754469008E+03  0.11827775239E+04  0.12634834983E+04  0.00000000000E+00 0.  1.
</event>
<event>
 5    1  0.8445827E-005  0.4951329E+03  0.7818608E-02  0.9681068E-01
         21   -1    0    0  501  502  0.00000000000E+00  0.00000000000E+00  0.29574252313E+03  0.29574252313E+03  0.00000000000E+00 0.  1.
          4   -1    0    0  502    0 -0.00000000000E+00 -0.00000000000E+00 -0.14883678130E+04  0.14883678130E+04  0.00000000000E+00 0.  1.
        -13    1    1    2    0    0 -0.32992452491E+03  0.23063087797E+03 -0.50198485097E+03  0.64345131578E+03  0.10566000000E+00 0.  1.
         13    1    1    2    0    0 -0.88016289577E+02  0.23315136942E+03 -0.66641338941E+02  0.25796803583E+03  0.10566000000E+00 0. -1.
          4    1    1    2  501    0  0.41794081448E+03 -0.46378224739E+03 -0.62399909999E+03  0.88269098454E+03  0.00000000000E+00 0.  1.
</event>
<event>
 5    1  0.8445827E-005  0.2445268E+02  0.7818608E-02  0.1455940E+00
         21   -1    0    0  501  502  0.00000000000E+00  0.00000000000E+00  0.12925621855E+03  0.12925621855E+03  0.00000000000E+00 0.  1.
         -4   -1    0    0    0  501 -0.00000000000E+00 -0.00000000000E+00 -0.10421428152E+03  0.10421428152E+03  0.00000000000E+00 0. -1.
        -13    1    1    2    0    0  0.40804941053E+02 -0.11213253279E+02  0.92282802331E+02  0.10152293846E+03  0.10566000000E+00 0.  1.
         13    1    1    2    0    0 -0.23352114143E+02  0.62520191335E+01 -0.95418607759E+02  0.98433382797E+02  0.10566000000E+00 0. -1.
         -4    1    1    2    0  502 -0.17452826910E+02  0.49612341451E+01  0.28177742463E+02  0.33514178816E+02  0.00000000000E+00 0. -1.
</event>
<event>
 5    1  0.8445827E-005  0.3849680E+03  0.7818608E-02  0.1007522E+00
         21   -1    0    0  501  502  0.00000000000E+00  0.00000000000E+00  0.10784713916E+04  0.10784713916E+04  0.00000000000E+00 0. -1.
         -4   -1    0    0    0  501 -0.00000000000E+00 -0.00000000000E+00 -0.30309024074E+03  0.30309024074E+03  0.00000000000E+00 0. -1.
        -13    1    1    2    0    0 -0.55268472876E+02  0.12970132157E+03  0.26366994852E+02  0.14343035416E+03  0.10566000000E+00 0.  1.
         13    1    1    2    0    0 -0.33792491187E+03  0.13835628697E+03  0.65960256561E+03  0.75393054317E+03  0.10566000000E+00 0. -1.
         -4    1    1    2    0  502  0.39319338475E+03 -0.26805760855E+03  0.89411590422E+02  0.48420073504E+03  0.00000000000E+00 0. -1.
</event>
<event>
 5    1  0.8445827E-005  0.5774029E+03  0.7818608E-02  0.9322765E-01
         -4   -1    0    0    0  501 -0.00000000000E+00  0.00000000000E+00  0.28572521791E+04  0.28572521791E+04  0.00000000000E+00 0. -1.
         21   -1    0    0  501  502  0.00000000000E+00 -0.00000000000E+00 -0.40238549616E+03  0.40238549616E+03  0.00000000000E+00 0. -1.
        -13    1    1    2    0    0 -0.11243634194E+03 -0.52783269999E+03  0.19621848804E+04  0.20350476177E+04  0.10566000000E+00 0.  1.
         13    1    1    2    0    0  0.18181070268E+03  0.78615855705E+03  0.51327091340E+03  0.95631974263E+03  0.10566000000E+00 0. -1.
         -4    1    1    2    0  502 -0.69374360747E+02 -0.25832585706E+03 -0.20589110933E+02  0.26827031488E+03  0.00000000000E+00 0. -1.
</event>
<event>
 5    1  0.8815276E-005  0.4953970E+03  0.7818608E-02  0.1035132E+00
          4   -1    0    0  502    0 -0.00000000000E+00  0.00000000000E+00  0.18952018167E+04  0.18952018167E+04  0.00000000000E+00 0.  1.
         21   -1    0    0  501  502  0.00000000000E+00 -0.00000000000E+00 -0.13826349224E+03  0.13826349224E+03  0.00000000000E+00 0.  1.
        -13    1    1    2    0    0  0.48288538773E+03  0.17954635046E+00  0.83757389742E+03  0.96680317269E+03  0.10566000000E+00 0.  1.
         13    1    1    2    0    0  0.24946836556E+02 -0.12208844140E+02  0.89104765654E+02  0.93333118215E+02  0.10566000000E+00 0. -1.
          4    1    1    2  501    0 -0.50783222428E+03  0.12029297790E+02  0.83025966134E+03  0.97332901800E+03  0.00000000000E+00 0.  1.
</event>
<event>
 5    1  0.8445827E-005  0.3676481E+03  0.7818608E-02  0.9944703E-01
         21   -1    0    0  501  502  0.00000000000E+00  0.00000000000E+00  0.16197581517E+03  0.16197581517E+03  0.00000000000E+00 0.  1.
          4   -1    0    0  502    0 -0.00000000000E+00 -0.00000000000E+00 -0.27927153106E+04  0.27927153106E+04  0.00000000000E+00 0.  1.
        -13    1    1    2    0    0 -0.44346331630E+03 -0.35901460697E+03 -0.14932345717E+04  0.15985307937E+04  0.10566000000E+00 0.  1.
         13    1    1    2    0    0  0.16037958892E+03  0.18924531035E+03 -0.93848618272E+03  0.97071711963E+03  0.10566000000E+00 0. -1.
          4    1    1    2  501    0  0.28308372738E+03  0.16976929662E+03 -0.19901874100E+03  0.38544321249E+03  0.00000000000E+00 0.  1.
</event>
<event>
 5    1  0.8445827E-005  0.4352968E+03  0.7818608E-02  0.9741394E-01
         21   -1    0    0  501  502  0.00000000000E+00  0.00000000000E+00  0.27707395155E+03  0.27707395155E+03  0.00000000000E+00 0.  1.
          4   -1    0    0  502    0 -0.00000000000E+00 -0.00000000000E+00 -0.19617785416E+04  0.19617785416E+04  0.00000000000E+00 0.  1.
        -13    1    1    2    0    0  0.37672380043E+03 -0.22965776014E+03 -0.12102711784E+03  0.45750528196E+03  0.10566000000E+00 0.  1.
         13    1    1    2    0    0  0.11043376844E+03  0.27613310702E+03 -0.95560337868E+03  0.10008111403E+04  0.10566000000E+00 0. -1.
          4    1    1    2  501    0 -0.48715756887E+03 -0.46475346880E+02 -0.60807409349E+03  0.78053607088E+03  0.00000000000E+00 0.  1.
</event>
<event>
 5    1  0.8445827E-005  0.6174614E+02  0.7818608E-02  0.1250207E+00
         21   -1    0    0  501  502  0.00000000000E+00  0.00000000000E+00  0.56631941658E+03  0.56631941658E+03  0.00000000000E+00 0.  1.
          4   -1    0    0  502    0 -0.00000000000E+00 -0.00000000000E+00 -0.18723055874E+03  0.18723055874E+03  0.00000000000E+00 0.  1.
        -13    1    1    2    0    0  0.46399737338E+02  0.40190921064E+02 -0.17365749801E+03  0.18418790281E+03  0.10566000000E+00 0.  1.
         13    1    1    2    0    0 -0.38941627295E+02 -0.73305017339E+02  0.22430019596E+03  0.23916660506E+03  0.10566000000E+00 0. -1.
          4    1    1    2  501    0 -0.74581100433E+01  0.33114096275E+02  0.32844615989E+03  0.33019546745E+03  0.00000000000E+00 0.  1.
</event>
<event>
 5    1  0.8445827E-005  0.4544539E+03  0.7818608E-02  0.9962029E-01
          4   -1    0    0  502    0 -0.00000000000E+00  0.00000000000E+00  0.14203148360E+04  0.14203148360E+04  0.00000000000E+00 0.  1.
         21   -1    0    0  501  502  0.00000000000E+00 -0.00000000000E+00 -0.20912896421E+03  0.20912896421E+03  0.00000000000E+00 0.  1.
        -13    1    1    2    0    0  0.58734308966E+01  0.38456380351E+03  0.68860168164E+03  0.78873069122E+03  0.10566000000E+00 0.  1.
         13    1    1    2    0    0 -0.60016272376E+02  0.10853089991E+03  0.23914029409E+03  0.26938634080E+03  0.10566000000E+00 0. -1.
          4    1    1    2  501    0  0.54142841480E+02 -0.49309470342E+03  0.28344389605E+03  0.57132676817E+03  0.00000000000E+00 0.  1.
</event>
<event>
 5    1  0.8445827E-005  0.4370602E+03  0.7818608E-02  0.9627744E-01
         -4   -1    0    0    0  501 -0.00000000000E+00  0.00000000000E+00  0.39075460194E+03  0.39075460194E+03  0.00000000000E+00 0. -1.
         21   -1    0    0  501  502  0.00000000000E+00 -0.00000000000E+00 -0.24480303967E+04  0.24480303967E+04  0.00000000000E+00 0.  1.
        -13    1    1    2    0    0 -0.15372630642E+03 -0.39156859092E+03  0.86241620043E+02  0.42941281638E+03  0.10566000000E+00 0.  1.
         13    1    1    2    0    0 -0.18288580678E+03  0.62914496003E+03 -0.10159961845E+04  0.12089329416E+04  0.10566000000E+00 0. -1.
         -4    1    1    2    0  502  0.33661211320E+03 -0.23757636911E+03 -0.11275212303E+04  0.12004392407E+04  0.00000000000E+00 0. -1.
</event>
<event>
 5    1  0.8445827E-005  0.4144022E+03  0.7818608E-02  0.9840622E-01
         21   -1    0    0  501  502  0.00000000000E+00  0.00000000000E+00  0.25337575010E+03  0.25337575010E+03  0.00000000000E+00 0. -1.
         -4   -1    0    0    0  501 -0.00000000000E+00 -0.00000000000E+00 -0.15929896424E+04  0.15929896424E+04  0.00000000000E+00 0. -1.
        -13    1    1    2    0    0  0.13860234631E+03 -0.20262425046E+03 -0.32022131303E+03  0.40349584602E+03  0.10566000000E+00 0.  1.
         13    1    1    2    0    0 -0.51657975828E+03  0.91858613608E+02 -0.88097481434E+03  0.10253825073E+04  0.10566000000E+00 0. -1.
         -4    1    1    2    0  502  0.37797741197E+03  0.11076563686E+03 -0.13841776496E+03  0.41748703923E+03  0.00000000000E+00 0. -1.
</event>
<event>
 5    1  0.8445827E-005  0.1790958E+03  0.7818608E-02  0.1075496E+00
         21   -1    0    0  501  502  0.00000000000E+00  0.00000000000E+00  0.32794340384E+03  0.32794340384E+03  0.00000000000E+00 0.  1.
         -4   -1    0    0    0  501 -0.00000000000E+00 -0.00000000000E+00 -0.22700102370E+03  0.22700102370E+03  0.00000000000E+00 0. -1.
        -13    1    1    2    0    0 -0.35970024846E+02  0.20963999119E+03  0.11127045002E+03  0.24004977152E+03  0.10566000000E+00 0.  1.
         13    1    1    2    0    0 -0.61557033070E+01 -0.17086050773E+03 -0.10760688799E+03  0.20201598771E+03  0.10566000000E+00 0. -1.
         -4    1    1    2    0  502  0.42125728153E+02 -0.38779483459E+02  0.97278818101E+02  0.11287866832E+03  0.00000000000E+00 0. -1.
</event>
<event>
 5    1  0.8445827E-005  0.2865255E+03  0.7818608E-02  0.1013028E+00
          4   -1    0    0  502    0 -0.00000000000E+00  0.00000000000E+00  0.30674094295E+03  0.30674094295E+03  0.00000000000E+00 0.  1.
         21   -1    0    0  501  502  0.00000000000E+00 -0.00000000000E+00 -0.75667949735E+03  0.75667949735E+03  0.00000000000E+00 0. -1.
        -13    1    1    2    0    0  0.26961334919E+03  0.10375356874E+03  0.12658344772E+03  0.31540377532E+03  0.10566000000E+00 0.  1.
         13    1    1    2    0    0 -0.25726416095E+03 -0.11296397432E+03 -0.14492920754E+03  0.31614900659E+03  0.10566000000E+00 0. -1.
          4    1    1    2  501    0 -0.12349188236E+02  0.92104055880E+01 -0.43159279459E+03  0.43186765839E+03  0.00000000000E+00 0.  1.
</event>
