<event>
 6    2  0.2345636E-005  0.1036315E+04  0.7818608E-02  0.9915135E-01
         21   -1    0    0  501  502  0.00000000000E+00  0.00000000000E+00  0.11149520727E+04  0.11149520727E+04  0.00000000000E+00 0. -1.
         -4   -1    0    0    0  501 -0.00000000000E+00 -0.00000000000E+00 -0.31060438617E+03  0.31060438617E+03  0.00000000000E+00 0. -1.
   -9000010    2    1    2    0  502 -0.74801694770E+02  0.84519998005E+02  0.61482729366E+03  0.12049733360E+04  0.10301500939E+04 0.  0.
         13    1    3    3    0    0  0.34190376185E+03  0.13725068891E+03 -0.94737444754E+02  0.38040915942E+03  0.10566000000E+00 0. -1.
         -4    1    3    3    0  502 -0.41670545662E+03 -0.52730690906E+02  0.70956473841E+03  0.82456417660E+03  0.00000000000E+00 0. -1.
        -13    1    1    2    0    0  0.74801694770E+02 -0.84519998005E+02  0.18952039290E+03  0.22058312286E+03  0.10566000000E+00 0.  1.
<mgrwt>
<rscale>  1 0.59533366E+03</rscale>
<asrwt>0</asrwt>
<pdfrwt beam="1">  1       21 0.17153109E+00 0.10363147E+04</pdfrwt>
<pdfrwt beam="2">  1       -4 0.47785291E-01 0.10363147E+04</pdfrwt>
<totfact> 0.31201518E+01</totfact>
</mgrwt>
</event>
<event>
 6    2  0.2345636E-005  0.1107994E+04  0.7818608E-02  0.9423391E-01
         21   -1    0    0  501  502  0.00000000000E+00  0.00000000000E+00  0.60172631416E+03  0.60172631416E+03  0.00000000000E+00 0.  1.
         -4   -1    0    0    0  501 -0.00000000000E+00 -0.00000000000E+00 -0.11226296582E+04  0.11226296582E+04  0.00000000000E+00 0. -1.
   -9000010    2    1    2    0  502 -0.43737194376E+03 -0.21217054364E+03 -0.16127013109E+03  0.11196687674E+04  0.99566035212E+03 0.  0.
         13    1    3    3    0    0  0.14160816726E+03  0.28091979665E+03  0.74820411222E+02  0.32336807245E+03  0.10566000000E+00 0. -1.
         -4    1    3    3    0  502 -0.57898011102E+03 -0.49309034028E+03 -0.23609054231E+03  0.79630069497E+03  0.00000000000E+00 0. -1.
        -13    1    1    2    0    0  0.43737194376E+03  0.21217054364E+03 -0.35963321291E+03  0.60468720490E+03  0.10566000000E+00 0.  1.
<mgrwt>
<rscale>  1 0.90175460E+03</rscale>
<asrwt>0</asrwt>
<pdfrwt beam="1">  1       21 0.92573280E-01 0.11079937E+04</pdfrwt>
<pdfrwt beam="2">  1       -4 0.17271225E+00 0.11079937E+04</pdfrwt>
<totfact> 0.73575169E+00</totfact>
</mgrwt>
</event>
<event>
 6    2  0.2345636E-005  0.1234947E+04  0.7818608E-02  0.9223393E-01
         -4   -1    0    0    0  501 -0.00000000000E+00  0.00000000000E+00  0.74043930209E+03  0.74043930209E+03  0.00000000000E+00 0. -1.
         21   -1    0    0  501  502  0.00000000000E+00 -0.00000000000E+00 -0.13374857674E+04  0.13374857674E+04  0.00000000000E+00 0.  1.
   -9000010    2    1    2    0  502 -0.72639322698E+03  0.73737602085E+01 -0.54431733518E+03  0.13495832096E+04  0.99869514155E+03 0.  0.
         13    1    3    3    0    0 -0.22608621953E+03 -0.40899150536E+03  0.47667845226E+02  0.46974595768E+03  0.10566000000E+00 0. -1.
         -4    1    3    3    0  502 -0.50030700745E+03  0.41636526557E+03 -0.59198518040E+03  0.87983725194E+03  0.00000000000E+00 0. -1.
        -13    1    1    2    0    0  0.72639322698E+03 -0.73737602085E+01 -0.52729130152E+02  0.72834185989E+03  0.10566000000E+00 0.  1.
<mgrwt>
<rscale>  1 0.10815204E+04</rscale>
<asrwt>0</asrwt>
<pdfrwt beam="2">  1       21 0.20576704E+00 0.12349468E+04</pdfrwt>
<pdfrwt beam="1">  1       -4 0.11391374E+00 0.12349468E+04</pdfrwt>
<totfact> 0.24081549E+00</totfact>
</mgrwt>
</event>
<event>
 6    2  0.2345636E-005  0.1142216E+04  0.7818608E-02  0.9614447E-01
         -4   -1    0    0    0  501 -0.00000000000E+00  0.00000000000E+00  0.16490081963E+04  0.16490081963E+04  0.00000000000E+00 0. -1.
         21   -1    0    0  501  502  0.00000000000E+00 -0.00000000000E+00 -0.29770598771E+03  0.29770598771E+03  0.00000000000E+00 0. -1.
   -9000010    2    1    2    0  502 -0.70535918494E+02  0.21681280837E+03  0.95211358007E+03  0.14870026636E+04  0.11192289947E+04 0.  0.
         13    1    3    3    0    0 -0.90035780962E+02  0.75059546372E+02 -0.25015090366E+03  0.27625325902E+03  0.10566000000E+00 0. -1.
         -4    1    3    3    0  502  0.19499862468E+02  0.14175326200E+03  0.12022644837E+04  0.12107494046E+04  0.00000000000E+00 0. -1.
        -13    1    1    2    0    0  0.70535918494E+02 -0.21681280837E+03  0.39918862849E+03  0.45971152036E+03  0.10566000000E+00 0.  1.
<mgrwt>
<rscale>  1 0.76347335E+03</rscale>
<asrwt>0</asrwt>
<pdfrwt beam="2">  1       21 0.45800922E-01 0.11422157E+04</pdfrwt>
<pdfrwt beam="1">  1       -4 0.25369356E+00 0.11422157E+04</pdfrwt>
<totfact> 0.10721324E+01</totfact>
</mgrwt>
</event>
<event>
 6    2  0.2345636E-005  0.1017797E+04  0.7818608E-02  0.9783087E-01
         21   -1    0    0  501  502  0.00000000000E+00  0.00000000000E+00  0.79107162090E+03  0.79107162090E+03  0.00000000000E+00 0. -1.
         -4   -1    0    0    0  501 -0.00000000000E+00 -0.00000000000E+00 -0.49778308062E+03  0.49778308062E+03  0.00000000000E+00 0. -1.
   -9000010    2    1    2    0  502 -0.87018882720E+02 -0.16100912056E+03  0.37988702898E+03  0.10863811668E+04  0.10012061036E+04 0.  0.
         13    1    3    3    0    0  0.23359486080E+03 -0.37184201054E+03 -0.12091631853E+03  0.45547097278E+03  0.10566000000E+00 0. -1.
         -4    1    3    3    0  502 -0.32061374352E+03  0.21083288998E+03  0.50080334751E+03  0.63091019401E+03  0.00000000000E+00 0. -1.
        -13    1    1    2    0    0  0.87018882720E+02  0.16100912056E+03 -0.86598488701E+02  0.20247353472E+03  0.10566000000E+00 0.  1.
<mgrwt>
<rscale>  1 0.66278129E+03</rscale>
<asrwt>0</asrwt>
<pdfrwt beam="1">  1       21 0.12170333E+00 0.10177966E+04</pdfrwt>
<pdfrwt beam="2">  1       -4 0.76582012E-01 0.10177966E+04</pdfrwt>
<totfact> 0.28787149E+01</totfact>
</mgrwt>
</event>
<event>
 6    2  0.2345636E-005  0.9999667E+03  0.7818608E-02  0.1000496E+00
         21   -1    0    0  501  502  0.00000000000E+00  0.00000000000E+00  0.15301190225E+04  0.15301190225E+04  0.00000000000E+00 0. -1.
         -4   -1    0    0    0  501 -0.00000000000E+00 -0.00000000000E+00 -0.23084847164E+03  0.23084847164E+03  0.00000000000E+00 0. -1.
   -9000010    2    1    2    0  502  0.46114374625E+02 -0.82409824381E+02  0.13278864191E+04  0.16622923008E+04  0.99549758252E+03 0.  0.
         13    1    3    3    0    0 -0.33615881257E+03  0.30584682291E+03  0.57456077251E+03  0.73257430942E+03  0.10566000000E+00 0. -1.
         -4    1    3    3    0  502  0.38227318719E+03 -0.38825664729E+03  0.75332564655E+03  0.92971799142E+03  0.00000000000E+00 0. -1.
        -13    1    1    2    0    0 -0.46114374625E+02  0.82409824381E+02 -0.28615868178E+02  0.98675193322E+02  0.10566000000E+00 0.  1.
<mgrwt>
<rscale>  1 0.55433478E+03</rscale>
<asrwt>0</asrwt>
<pdfrwt beam="1">  1       21 0.23540292E+00 0.99996668E+03</pdfrwt>
<pdfrwt beam="2">  1       -4 0.35515150E-01 0.99996668E+03</pdfrwt>
<totfact> 0.20952614E+01</totfact>
</mgrwt>
</event>
<event>
 6    2  0.2345636E-005  0.1127975E+04  0.7818608E-02  0.9388157E-01
         21   -1    0    0  501  502  0.00000000000E+00  0.00000000000E+00  0.83428269499E+03  0.83428269499E+03  0.00000000000E+00 0.  1.
         -4   -1    0    0    0  501 -0.00000000000E+00 -0.00000000000E+00 -0.82516991847E+03  0.82516991847E+03  0.00000000000E+00 0. -1.
   -9000010    2    1    2    0  502 -0.41504020398E+03  0.31741996811E+03 -0.73894529534E+02  0.11303930411E+04  0.99965705060E+03 0.  0.
         13    1    3    3    0    0  0.19839963083E+03  0.35297645871E+03  0.20700833771E+03  0.45476065898E+03  0.10566000000E+00 0. -1.
         -4    1    3    3    0  502 -0.61343983481E+03 -0.35556490596E+02 -0.28090286724E+03  0.67563238212E+03  0.00000000000E+00 0. -1.
        -13    1    1    2    0    0  0.41504020398E+03 -0.31741996811E+03  0.83007306052E+02  0.52905957235E+03  0.10566000000E+00 0.  1.
<mgrwt>
<rscale>  1 0.93056731E+03</rscale>
<asrwt>0</asrwt>
<pdfrwt beam="1">  1       21 0.12835118E+00 0.11279752E+04</pdfrwt>
<pdfrwt beam="2">  1       -4 0.12694922E+00 0.11279752E+04</pdfrwt>
<totfact> 0.73230984E+00</totfact>
</mgrwt>
</event>
<event>
 6    2  0.3502875E-005  0.7946816E+03  0.7818608E-02  0.9931297E-01
         -4   -1    0    0    0  501 -0.00000000000E+00  0.00000000000E+00  0.81123500306E+03  0.81123500306E+03  0.00000000000E+00 0. -1.
         21   -1    0    0  501  502  0.00000000000E+00 -0.00000000000E+00 -0.35563270464E+03  0.35563270464E+03  0.00000000000E+00 0. -1.
   -9000010    2    1    2    0  502  0.22580825171E+03 -0.74172122971E+02  0.20336082633E+03  0.82028922919E+03  0.75830595637E+03 0.  0.
         13    1    3    3    0    0  0.46364517399E+02 -0.29341489199E+03  0.38309509600E+03  0.48477193717E+03  0.10566000000E+00 0. -1.
         -4    1    3    3    0  502  0.17944373431E+03  0.21924276902E+03 -0.17973426967E+03  0.33551729202E+03  0.00000000000E+00 0. -1.
        -13    1    1    2    0    0 -0.22580825171E+03  0.74172122971E+02  0.25224147208E+03  0.34657847851E+03  0.10566000000E+00 0.  1.
<mgrwt>
<rscale>  1 0.58768168E+03</rscale>
<asrwt>0</asrwt>
<pdfrwt beam="2">  1       21 0.54712724E-01 0.79468157E+03</pdfrwt>
<pdfrwt beam="1">  1       -4 0.12480538E+00 0.79468157E+03</pdfrwt>
<totfact> 0.60671829E+01</totfact>
</mgrwt>
</event>
<event>
 6    2  0.2345636E-005  0.1003123E+04  0.7818608E-02  0.9896246E-01
         21   -1    0    0  501  502  0.00000000000E+00  0.00000000000E+00  0.41988985077E+03  0.41988985077E+03  0.00000000000E+00 0. -1.
         -4   -1    0    0    0  501 -0.00000000000E+00 -0.00000000000E+00 -0.92496492146E+03  0.92496492146E+03  0.00000000000E+00 0. -1.
   -9000010    2    1    2    0  502 -0.13223063605E+03  0.71670829526E+00 -0.21477568776E+03  0.10258575972E+04  0.99436902552E+03 0.  0.
         13    1    3    3    0    0  0.39500677204E+03 -0.16276367800E+03 -0.20477256192E+03  0.47376595289E+03  0.10566000000E+00 0. -1.
         -4    1    3    3    0  502 -0.52723740809E+03  0.16348038629E+03 -0.10003125837E+02  0.55209164432E+03  0.00000000000E+00 0. -1.
        -13    1    1    2    0    0  0.13223063605E+03 -0.71670829526E+00 -0.29029938293E+03  0.31899717503E+03  0.10566000000E+00 0.  1.
<mgrwt>
<rscale>  1 0.60443584E+03</rscale>
<asrwt>0</asrwt>
<pdfrwt beam="1">  1       21 0.64598440E-01 0.10031227E+04</pdfrwt>
<pdfrwt beam="2">  1       -4 0.14230229E+00 0.10031227E+04</pdfrwt>
<totfact> 0.29331109E+01</totfact>
</mgrwt>
</event>
<event>
 6    2  0.2345636E-005  0.1003230E+04  0.7818608E-02  0.1000475E+00
         -4   -1    0    0    0  501 -0.00000000000E+00  0.00000000000E+00  0.66145536229E+03  0.66145536229E+03  0.00000000000E+00 0. -1.
         21   -1    0    0  501  502  0.00000000000E+00 -0.00000000000E+00 -0.57222992961E+03  0.57222992961E+03  0.00000000000E+00 0. -1.
   -9000010    2    1    2    0  502  0.51024100675E+02  0.78442646522E+02 -0.11425828135E+03  0.10097157835E+04  0.99885649670E+03 0.  0.
         13    1    3    3    0    0 -0.12599076255E+03  0.48693333018E+02  0.42259136110E+03  0.44365322333E+03  0.10566000000E+00 0. -1.
         -4    1    3    3    0  502  0.17701486323E+03  0.29749313504E+02 -0.53684964245E+03  0.56606256020E+03  0.00000000000E+00 0. -1.
        -13    1    1    2    0    0 -0.51024100675E+02 -0.78442646522E+02  0.20348371402E+03  0.22396950837E+03  0.10566000000E+00 0.  1.
<mgrwt>
<rscale>  1 0.55442544E+03</rscale>
<asrwt>0</asrwt>
<pdfrwt beam="2">  1       21 0.88035375E-01 0.10032303E+04</pdfrwt>
<pdfrwt beam="1">  1       -4 0.10176236E+00 0.10032303E+04</pdfrwt>
<totfact> 0.33247085E+01</totfact>
</mgrwt>
</event>
<event>
 6    2  0.2345636E-005  0.1220867E+04  0.7818608E-02  0.9258985E-01
         21   -1    0    0  501  502  0.00000000000E+00  0.00000000000E+00  0.28195932874E+04  0.28195932874E+04  0.00000000000E+00 0.  1.
         -4   -1    0    0    0  501 -0.00000000000E+00 -0.00000000000E+00 -0.31450824821E+03  0.31450824821E+03  0.00000000000E+00 0. -1.
   -9000010    2    1    2    0  502  0.56836510123E+03  0.33363177102E+03  0.15347710655E+04  0.19611316871E+04  0.10276994812E+04 0.  0.
         13    1    3    3    0    0 -0.82229378784E+02 -0.70290237886E+02 -0.10537638301E+03  0.15101848078E+03  0.10566000000E+00 0. -1.
         -4    1    3    3    0  502  0.65059448001E+03  0.40392200890E+03  0.16401474485E+04  0.18101132063E+04  0.00000000000E+00 0. -1.
        -13    1    1    2    0    0 -0.56836510123E+03 -0.33363177102E+03  0.97031397370E+03  0.11729698486E+04  0.10566000000E+00 0.  1.
<mgrwt>
<rscale>  1 0.10464803E+04</rscale>
<asrwt>0</asrwt>
<pdfrwt beam="1">  1       21 0.43378357E+00 0.12208666E+04</pdfrwt>
<pdfrwt beam="2">  1       -4 0.48385886E-01 0.12208666E+04</pdfrwt>
<totfact> 0.57527499E-01</totfact>
</mgrwt>
</event>
<event>
 6    2  0.2345636E-005  0.1034831E+04  0.7818608E-02  0.9634881E-01
         -4   -1    0    0    0  501 -0.00000000000E+00  0.00000000000E+00  0.28632685979E+04  0.28632685979E+04  0.00000000000E+00 0. -1.
         21   -1    0    0  501  502  0.00000000000E+00 -0.00000000000E+00 -0.21830053677E+03  0.21830053677E+03  0.00000000000E+00 0. -1.
   -9000010    2    1    2    0  502  0.27500975590E+03 -0.78433421075E+02  0.10996075824E+04  0.15099708439E+04  0.99453152118E+03 0.  0.
         13    1    3    3    0    0  0.26717592983E+00 -0.13586218871E+03 -0.16548712508E+03  0.21411353398E+03  0.10566000000E+00 0. -1.
         -4    1    3    3    0  502  0.27474257997E+03  0.57428767631E+02  0.12650947075E+04  0.12958573099E+04  0.00000000000E+00 0. -1.
        -13    1    1    2    0    0 -0.27500975590E+03  0.78433421075E+02  0.15453604787E+04  0.15715982908E+04  0.10566000000E+00 0.  1.
<mgrwt>
<rscale>  1 0.75029905E+03</rscale>
<asrwt>0</asrwt>
<pdfrwt beam="2">  1       21 0.33584700E-01 0.10348310E+04</pdfrwt>
<pdfrwt beam="1">  1       -4 0.44050284E+00 0.10348310E+04</pdfrwt>
<totfact> 0.12352879E+00</totfact>
</mgrwt>
</event>
<event>
 6    2  0.2345636E-005  0.1033335E+04  0.7818608E-02  0.9642307E-01
         21   -1    0    0  501  502  0.00000000000E+00  0.00000000000E+00  0.89718761507E+03  0.89718761507E+03  0.00000000000E+00 0. -1.
         -4   -1    0    0    0  501 -0.00000000000E+00 -0.00000000000E+00 -0.51870656959E+03  0.51870656959E+03  0.00000000000E+00 0. -1.
   -9000010    2    1    2    0  502  0.23338309553E+03  0.15481802560E+03  0.44965000136E+03  0.11269282320E+04  0.99465864803E+03 0.  0.
         13    1    3    3    0    0  0.55490799585E+03  0.32189371645E+02  0.53596558534E+03  0.77215164271E+03  0.10566000000E+00 0. -1.
         -4    1    3    3    0  502 -0.32152490032E+03  0.12262865395E+03 -0.86315583977E+02  0.35477658933E+03  0.00000000000E+00 0. -1.
        -13    1    1    2    0    0 -0.23338309553E+03 -0.15481802560E+03 -0.71168955889E+02  0.28896595262E+03  0.10566000000E+00 0.  1.
<mgrwt>
<rscale>  1 0.74558237E+03</rscale>
<asrwt>0</asrwt>
<pdfrwt beam="1">  1       21 0.13802886E+00 0.10333354E+04</pdfrwt>
<pdfrwt beam="2">  1       -4 0.79801011E-01 0.10333354E+04</pdfrwt>
<totfact> 0.18722464E+01</totfact>
</mgrwt>
</event>
<event>
 6    2  0.2345636E-005  0.1118648E+04  0.7818608E-02  0.9503750E-01
         21   -1    0    0  501  502  0.00000000000E+00  0.00000000000E+00  0.82668206104E+03  0.82668206104E+03  0.00000000000E+00 0. -1.
         -4   -1    0    0    0  501 -0.00000000000E+00 -0.00000000000E+00 -0.90316452630E+03  0.90316452630E+03  0.00000000000E+00 0. -1.
   -9000010    2    1    2    0  502  0.35202018292E+03  0.51696363188E+02  0.35216787682E+03  0.11727722206E+04  0.10605572803E+04 0.  0.
         13    1    3    3    0    0  0.60501503927E+03 -0.41036351935E+02 -0.13021984349E+03  0.62022931141E+03  0.10566000000E+00 0. -1.
         -4    1    3    3    0  502 -0.25299485635E+03  0.92732715123E+02  0.48238772031E+03  0.55254290919E+03  0.00000000000E+00 0. -1.
        -13    1    1    2    0    0 -0.35202018292E+03 -0.51696363188E+02 -0.42865034208E+03  0.55707436674E+03  0.10566000000E+00 0.  1.
<mgrwt>
<rscale>  1 0.84007916E+03</rscale>
<asrwt>0</asrwt>
<pdfrwt beam="1">  1       21 0.12718186E+00 0.11186476E+04</pdfrwt>
<pdfrwt beam="2">  1       -4 0.13894839E+00 0.11186476E+04</pdfrwt>
<totfact> 0.59443671E+00</totfact>
</mgrwt>
</event>
<event>
 6    2  0.2345636E-005  0.1007609E+04  0.7818608E-02  0.9891821E-01
         21   -1    0    0  501  502  0.00000000000E+00  0.00000000000E+00  0.21248077448E+03  0.21248077448E+03  0.00000000000E+00 0. -1.
         -4   -1    0    0    0  501 -0.00000000000E+00 -0.00000000000E+00 -0.16368367230E+04  0.16368367230E+04  0.00000000000E+00 0. -1.
   -9000010    2    1    2    0  502  0.75763621158E+02  0.10851500455E+03 -0.13820727338E+04  0.17103804113E+04  0.99887961104E+03 0.  0.
         13    1    3    3    0    0 -0.34422638733E+03 -0.85283563765E+02 -0.11284516050E+04  0.11828643743E+04  0.10566000000E+00 0. -1.
         -4    1    3    3    0  502  0.41999000849E+03  0.19379856832E+03 -0.25362112878E+03  0.52751603699E+03  0.00000000000E+00 0. -1.
        -13    1    1    2    0    0 -0.75763621158E+02 -0.10851500455E+03 -0.42283214716E+02  0.13893708618E+03  0.10566000000E+00 0.  1.
<mgrwt>
<rscale>  1 0.60659298E+03</rscale>
<asrwt>0</asrwt>
<pdfrwt beam="1">  1       21 0.32689349E-01 0.10076091E+04</pdfrwt>
<pdfrwt beam="2">  1       -4 0.25182104E+00 0.10076091E+04</pdfrwt>
<totfact> 0.22583516E+01</totfact>
</mgrwt>
</event>
<event>
 6    2  0.2345636E-005  0.1057182E+04  0.7818608E-02  0.9717592E-01
         -4   -1    0    0    0  501 -0.00000000000E+00  0.00000000000E+00  0.94950820138E+03  0.94950820138E+03  0.00000000000E+00 0. -1.
         21   -1    0    0  501  502  0.00000000000E+00 -0.00000000000E+00 -0.49072757962E+03  0.49072757962E+03  0.00000000000E+00 0. -1.
   -9000010    2    1    2    0  502 -0.18884150652E+03 -0.74386830885E+02  0.14577609065E+03  0.10671857001E+04  0.10375163299E+04 0.  0.
         13    1    3    3    0    0 -0.16327745297E+03 -0.23415098198E+03  0.55666466402E+03  0.62558913701E+03  0.10566000000E+00 0. -1.
         -4    1    3    3    0  502 -0.25564053549E+02  0.15976415110E+03 -0.41088857338E+03  0.44159656310E+03  0.00000000000E+00 0. -1.
        -13    1    1    2    0    0  0.18884150652E+03  0.74386830885E+02  0.31300453111E+03  0.37305008089E+03  0.10566000000E+00 0.  1.
<mgrwt>
<rscale>  1 0.69978944E+03</rscale>
<asrwt>0</asrwt>
<pdfrwt beam="2">  1       21 0.75496551E-01 0.10571824E+04</pdfrwt>
<pdfrwt beam="1">  1       -4 0.14607819E+00 0.10571824E+04</pdfrwt>
<totfact> 0.19044006E+01</totfact>
</mgrwt>
</event>
<event>
 6    2  0.2345636E-005  0.1137639E+04  0.7818608E-02  0.9400174E-01
         -4   -1    0    0    0  501 -0.00000000000E+00  0.00000000000E+00  0.30459865991E+03  0.30459865991E+03  0.00000000000E+00 0. -1.
         21   -1    0    0  501  502  0.00000000000E+00 -0.00000000000E+00 -0.23541272502E+04  0.23541272502E+04  0.00000000000E+00 0. -1.
   -9000010    2    1    2    0  502 -0.43284925289E+03  0.22505639253E+03 -0.17467261223E+04  0.20845323876E+04  0.10277228580E+04 0.  0.
         13    1    3    3    0    0 -0.22618168495E+03  0.60433557245E+03 -0.69920757689E+03  0.95145724312E+03  0.10566000000E+00 0. -1.
         -4    1    3    3    0  502 -0.20666756794E+03 -0.37927917992E+03 -0.10475185454E+04  0.11330751445E+04  0.00000000000E+00 0. -1.
        -13    1    1    2    0    0  0.43284925289E+03 -0.22505639253E+03 -0.30280246794E+03  0.57419352252E+03  0.10566000000E+00 0.  1.
<mgrwt>
<rscale>  1 0.92061400E+03</rscale>
<asrwt>0</asrwt>
<pdfrwt beam="2">  1       21 0.36217342E+00 0.11376393E+04</pdfrwt>
<pdfrwt beam="1">  1       -4 0.46861332E-01 0.11376393E+04</pdfrwt>
<totfact> 0.18496720E+00</totfact>
</mgrwt>
</event>
<event>
 6    2  0.2345636E-005  0.1046116E+04  0.7818608E-02  0.9731150E-01
         -4   -1    0    0    0  501 -0.00000000000E+00  0.00000000000E+00  0.13102564457E+04  0.13102564457E+04  0.00000000000E+00 0. -1.
         21   -1    0    0  501  502  0.00000000000E+00 -0.00000000000E+00 -0.36118005323E+03  0.36118005323E+03  0.00000000000E+00 0. -1.
   -9000010    2    1    2    0  502 -0.53943301354E+02  0.19280561172E+03  0.45965187671E+03  0.11426451871E+04  0.10267785994E+04 0.  0.
         13    1    3    3    0    0  0.10491906788E+03 -0.40925143347E+03  0.20997908159E+03  0.47179017844E+03  0.10566000000E+00 0. -1.
         -4    1    3    3    0  502 -0.15886236923E+03  0.60205704519E+03  0.24967279512E+03  0.67085500866E+03  0.00000000000E+00 0. -1.
        -13    1    1    2    0    0  0.53943301354E+02 -0.19280561172E+03  0.48942451580E+03  0.52879131187E+03  0.10566000000E+00 0.  1.
<mgrwt>
<rscale>  1 0.69192026E+03</rscale>
<asrwt>0</asrwt>
<pdfrwt beam="2">  1       21 0.55566163E-01 0.10461158E+04</pdfrwt>
<pdfrwt beam="1">  1       -4 0.20157791E+00 0.10461158E+04</pdfrwt>
<totfact> 0.15263096E+01</totfact>
</mgrwt>
</event>
<event>
 6    2  0.2345636E-005  0.1073371E+04  0.7818608E-02  0.9579412E-01
         -4   -1    0    0    0  501 -0.00000000000E+00  0.00000000000E+00  0.87218955714E+03  0.87218955714E+03  0.00000000000E+00 0. -1.
         21   -1    0    0  501  502  0.00000000000E+00 -0.00000000000E+00 -0.72989081114E+03  0.72989081114E+03  0.00000000000E+00 0. -1.
   -9000010    2    1    2    0  502  0.27321629668E+02  0.30858771212E+03 -0.25010735086E+03  0.11021249667E+04  0.10276930027E+04 0.  0.
         13    1    3    3    0    0 -0.24106922524E+03  0.27258342238E+03  0.31126329974E+03  0.47885378399E+03  0.10566000000E+00 0. -1.
         -4    1    3    3    0  502  0.26839085491E+03  0.36004289733E+02 -0.56137065060E+03  0.62327118274E+03  0.00000000000E+00 0. -1.
        -13    1    1    2    0    0 -0.27321629668E+02 -0.30858771212E+03  0.39240609686E+03  0.49995540154E+03  0.10566000000E+00 0.  1.
<mgrwt>
<rscale>  1 0.78673960E+03</rscale>
<asrwt>0</asrwt>
<pdfrwt beam="2">  1       21 0.11229089E+00 0.10733712E+04</pdfrwt>
<pdfrwt beam="1">  1       -4 0.13418301E+00 0.10733712E+04</pdfrwt>
<totfact> 0.90434508E+00</totfact>
</mgrwt>
</event>
<event>
 6    2  0.2345636E-005  0.1045344E+04  0.7818608E-02  0.9770790E-01
         -4   -1    0    0    0  501 -0.00000000000E+00  0.00000000000E+00  0.57792855181E+03  0.57792855181E+03  0.00000000000E+00 0. -1.
         21   -1    0    0  501  502  0.00000000000E+00 -0.00000000000E+00 -0.70755931301E+03  0.70755931301E+03  0.00000000000E+00 0. -1.
   -9000010    2    1    2    0  502 -0.64868733267E+00 -0.17592366726E+03 -0.24684118091E+03  0.10740928527E+04  0.10304345346E+04 0.  0.
         13    1    3    3    0    0 -0.40028483852E+02  0.36582111192E+03  0.15410281493E+03  0.39896748512E+03  0.10566000000E+00 0. -1.
         -4    1    3    3    0  502  0.39379796519E+02 -0.54174477918E+03 -0.40094399584E+03  0.67512536758E+03  0.00000000000E+00 0. -1.
        -13    1    1    2    0    0  0.64868733267E+00  0.17592366726E+03  0.11721041970E+03  0.21139501212E+03  0.10566000000E+00 0.  1.
<mgrwt>
<rscale>  1 0.66953975E+03</rscale>
<asrwt>0</asrwt>
<pdfrwt beam="2">  1       21 0.10885528E+00 0.10453444E+04</pdfrwt>
<pdfrwt beam="1">  1       -4 0.88912085E-01 0.10453444E+04</pdfrwt>
<totfact> 0.27062471E+01</totfact>
</mgrwt>
</event>
<event>
 6    2  0.2345636E-005  0.1350706E+04  0.7818608E-02  0.9090054E-01
         21   -1    0    0  501  502  0.00000000000E+00  0.00000000000E+00  0.18654648501E+04  0.18654648501E+04  0.00000000000E+00 0.  1.
         -4   -1    0    0    0  501 -0.00000000000E+00 -0.00000000000E+00 -0.70484122826E+03  0.70484122826E+03  0.00000000000E+00 0. -1.
   -9000010    2    1    2    0  502  0.87346830277E+03 -0.28251184787E+03  0.87305111098E+03  0.16082989161E+04  0.99078117709E+03 0.  0.
         13    1    3    3    0    0  0.10607199557E+04 -0.74339844693E+02  0.75671711894E+03  0.13050954165E+04  0.10566000000E+00 0. -1.
         -4    1    3    3    0  502 -0.18725165293E+03 -0.20817200318E+03  0.11633399204E+03  0.30320349954E+03  0.00000000000E+00 0. -1.
        -13    1    1    2    0    0 -0.87346830277E+03  0.28251184787E+03  0.28757251085E+03  0.96200716229E+03  0.10566000000E+00 0.  1.
<mgrwt>
<rscale>  1 0.12264042E+04</rscale>
<asrwt>0</asrwt>
<pdfrwt beam="1">  1       21 0.28699459E+00 0.13507062E+04</pdfrwt>
<pdfrwt beam="2">  1       -4 0.10843711E+00 0.13507062E+04</pdfrwt>
<totfact> 0.79669490E-01</totfact>
</mgrwt>
</event>
<event>
 6    2  0.2345636E-005  0.1059151E+04  0.7818608E-02  0.9553373E-01
         21   -1    0    0  501  502  0.00000000000E+00  0.00000000000E+00  0.10159869154E+04  0.10159869154E+04  0.00000000000E+00 0. -1.
         -4   -1    0    0    0  501 -0.00000000000E+00 -0.00000000000E+00 -0.49069793264E+03  0.49069793264E+03  0.00000000000E+00 0. -1.
   -9000010    2    1    2    0  502  0.45763085275E+02 -0.34976353469E+03  0.38158687711E+03  0.11257923481E+04  0.99868467304E+03 0.  0.
         13    1    3    3    0    0 -0.14647479955E+03  0.31346690767E+03  0.20634122885E+02  0.34661527274E+03  0.10566000000E+00 0. -1.
         -4    1    3    3    0  502  0.19223788483E+03 -0.66323044236E+03  0.36095275423E+03  0.77917707539E+03  0.00000000000E+00 0. -1.
        -13    1    1    2    0    0 -0.45763085275E+02  0.34976353469E+03  0.14370210569E+03  0.38089249995E+03  0.10566000000E+00 0.  1.
<mgrwt>
<rscale>  1 0.80460632E+03</rscale>
<asrwt>0</asrwt>
<pdfrwt beam="1">  1       21 0.15630568E+00 0.10591505E+04</pdfrwt>
<pdfrwt beam="2">  1       -4 0.75491990E-01 0.10591505E+04</pdfrwt>
<totfact> 0.15015562E+01</totfact>
</mgrwt>
</event>
<event>
 6    2  0.2345636E-005  0.1015757E+04  0.7818608E-02  0.1011787E+00
         -4   -1    0    0    0  501 -0.00000000000E+00  0.00000000000E+00  0.10463595085E+04  0.10463595085E+04  0.00000000000E+00 0. -1.
         21   -1    0    0  501  502  0.00000000000E+00 -0.00000000000E+00 -0.29692246999E+03  0.29692246999E+03  0.00000000000E+00 0. -1.
   -9000010    2    1    2    0  502 -0.12949849444E+02  0.62062389360E+02  0.59704761631E+03  0.11782305140E+04  0.10137760350E+04 0.  0.
         13    1    3    3    0    0 -0.21471940515E+03 -0.40365668891E+03  0.46856461630E+03  0.65467240378E+03  0.10566000000E+00 0. -1.
         -4    1    3    3    0  502  0.20176955570E+03  0.46571907827E+03  0.12848300001E+03  0.52355811021E+03  0.00000000000E+00 0. -1.
        -13    1    1    2    0    0  0.12949849444E+02 -0.62062389360E+02  0.15238942223E+03  0.16505146454E+03  0.10566000000E+00 0.  1.
<mgrwt>
<rscale>  1 0.50770687E+03</rscale>
<asrwt>0</asrwt>
<pdfrwt beam="2">  1       21 0.45680381E-01 0.10157565E+04</pdfrwt>
<pdfrwt beam="1">  1       -4 0.16097838E+00 0.10157565E+04</pdfrwt>
<totfact> 0.44919796E+01</totfact>
</mgrwt>
</event>
<event>
 6    2  0.2345636E-005  0.1049321E+04  0.7818608E-02  0.9549894E-01
         -4   -1    0    0    0  501 -0.00000000000E+00  0.00000000000E+00  0.74915066094E+03  0.74915066094E+03  0.00000000000E+00 0. -1.
         21   -1    0    0  501  502  0.00000000000E+00 -0.00000000000E+00 -0.78736090254E+03  0.78736090254E+03  0.00000000000E+00 0. -1.
   -9000010    2    1    2    0  502 -0.11370013213E+02 -0.36696914281E+03 -0.29318860573E+03  0.10895108853E+04  0.98299480245E+03 0.  0.
         13    1    3    3    0    0 -0.26277509994E+03 -0.42799459051E+03  0.19359913173E+03  0.53824785891E+03  0.10566000000E+00 0. -1.
         -4    1    3    3    0  502  0.25140508673E+03  0.61025447696E+02 -0.48678773746E+03  0.55126302637E+03  0.00000000000E+00 0. -1.
        -13    1    1    2    0    0  0.11370013213E+02  0.36696914281E+03  0.25497836413E+03  0.44700067820E+03  0.10566000000E+00 0.  1.
<mgrwt>
<rscale>  1 0.80703196E+03</rscale>
<asrwt>0</asrwt>
<pdfrwt beam="2">  1       21 0.12113245E+00 0.10493209E+04</pdfrwt>
<pdfrwt beam="1">  1       -4 0.11525395E+00 0.10493209E+04</pdfrwt>
<totfact> 0.10980854E+01</totfact>
</mgrwt>
</event>
<event>
 6    2  0.2345636E-005  0.9992395E+03  0.7818608E-02  0.1016177E+00
         21   -1    0    0  501  502  0.00000000000E+00  0.00000000000E+00  0.67168928308E+03  0.67168928308E+03  0.00000000000E+00 0. -1.
         -4   -1    0    0    0  501 -0.00000000000E+00 -0.00000000000E+00 -0.44449391674E+03  0.44449391674E+03  0.00000000000E+00 0. -1.
   -9000010    2    1    2    0  502  0.42790741468E+02 -0.39469405040E+02  0.27985106062E+03  0.10376878828E+04  0.99754230210E+03 0.  0.
         13    1    3    3    0    0 -0.26503007010E+03 -0.20199296189E+03 -0.24098665491E+03  0.41123797699E+03  0.10566000000E+00 0. -1.
         -4    1    3    3    0  502  0.30782081157E+03  0.16252355685E+03  0.52083771553E+03  0.62644990581E+03  0.00000000000E+00 0. -1.
        -13    1    1    2    0    0 -0.42790741468E+02  0.39469405040E+02 -0.52655694282E+02  0.78495317019E+02  0.10566000000E+00 0.  1.
<mgrwt>
<rscale>  1 0.49091852E+03</rscale>
<asrwt>0</asrwt>
<pdfrwt beam="1">  1       21 0.10333681E+00 0.99923947E+03</pdfrwt>
<pdfrwt beam="2">  1       -4 0.68383680E-01 0.99923947E+03</pdfrwt>
<totfact> 0.56468129E+01</totfact>
</mgrwt>
</event>
<event>
 6    2  0.2345636E-005  0.7638635E+03  0.7818608E-02  0.1020452E+00
         -4   -1    0    0    0  501 -0.00000000000E+00  0.00000000000E+00  0.69901496732E+03  0.69901496732E+03  0.00000000000E+00 0. -1.
         21   -1    0    0  501  502  0.00000000000E+00 -0.00000000000E+00 -0.39682761568E+03  0.39682761568E+03  0.00000000000E+00 0. -1.
   -9000010    2    1    2    0  502 -0.59664775116E+02  0.97663425733E+02 -0.93793662079E+01  0.76392111495E+03  0.75524133046E+03 0.  0.
         13    1    3    3    0    0  0.12200918182E+03  0.22491397747E+03 -0.30258445453E+03  0.39626998498E+03  0.10566000000E+00 0. -1.
         -4    1    3    3    0  502 -0.18167395694E+03 -0.12725055173E+03  0.29320508832E+03  0.36765112997E+03  0.00000000000E+00 0. -1.
        -13    1    1    2    0    0  0.59664775116E+02 -0.97663425733E+02  0.31156671786E+03  0.33192146805E+03  0.10566000000E+00 0.  1.
<mgrwt>
<rscale>  1 0.47523961E+03</rscale>
<asrwt>0</asrwt>
<pdfrwt beam="2">  1       21 0.61050402E-01 0.76386353E+03</pdfrwt>
<pdfrwt beam="1">  1       -4 0.10754076E+00 0.76386353E+03</pdfrwt>
<totfact> 0.69144223E+01</totfact>
</mgrwt>
</event>
<event>
 6    2  0.2345636E-005  0.9835359E+03  0.7818608E-02  0.1016476E+00
         -4   -1    0    0    0  501 -0.00000000000E+00  0.00000000000E+00  0.10127320353E+04  0.10127320353E+04  0.00000000000E+00 0. -1.
         21   -1    0    0  501  502  0.00000000000E+00 -0.00000000000E+00 -0.35036407769E+03  0.35036407769E+03  0.00000000000E+00 0. -1.
   -9000010    2    1    2    0  502  0.45721197243E+01  0.60320029919E+02  0.34850261959E+03  0.10434543262E+04  0.98167379752E+03 0.  0.
         13    1    3    3    0    0 -0.57854123514E+02 -0.11470074411E+03 -0.32252766341E+03  0.34717065708E+03  0.10566000000E+00 0. -1.
         -4    1    3    3    0  502  0.62426243238E+02  0.17502077402E+03  0.67103028301E+03  0.69628366913E+03  0.00000000000E+00 0. -1.
        -13    1    1    2    0    0 -0.45721197243E+01 -0.60320029919E+02  0.31386533800E+03  0.31964178677E+03  0.10566000000E+00 0.  1.
<mgrwt>
<rscale>  1 0.48980049E+03</rscale>
<asrwt>0</asrwt>
<pdfrwt beam="2">  1       21 0.53902166E-01 0.98353589E+03</pdfrwt>
<pdfrwt beam="1">  1       -4 0.15580493E+00 0.98353589E+03</pdfrwt>
<totfact> 0.34460019E+01</totfact>
</mgrwt>
</event>
<event>
 6    2  0.2345636E-005  0.1031155E+04  0.7818608E-02  0.9709421E-01
         21   -1    0    0  501  502  0.00000000000E+00  0.00000000000E+00  0.11891651845E+04  0.11891651845E+04  0.00000000000E+00 0. -1.
         -4   -1    0    0    0  501 -0.00000000000E+00 -0.00000000000E+00 -0.63943203651E+03  0.63943203651E+03  0.00000000000E+00 0. -1.
   -9000010    2    1    2    0  502 -0.80406582035E+02  0.20991031206E+03  0.92887059819E+03  0.13878333671E+04  0.10063564523E+04 0.  0.
         13    1    3    3    0    0 -0.30536578889E+03 -0.31622966662E+03  0.27317627111E+03  0.51756618257E+03  0.10566000000E+00 0. -1.
         -4    1    3    3    0  502  0.22495920686E+03  0.52613997867E+03  0.65569432708E+03  0.87026718453E+03  0.00000000000E+00 0. -1.
        -13    1    1    2    0    0  0.80406582035E+02 -0.20991031206E+03 -0.37913745024E+03  0.44076385387E+03  0.10566000000E+00 0.  1.
<mgrwt>
<rscale>  1 0.70458607E+03</rscale>
<asrwt>0</asrwt>
<pdfrwt beam="1">  1       21 0.18294849E+00 0.10311551E+04</pdfrwt>
<pdfrwt beam="2">  1       -4 0.98374160E-01 0.10311551E+04</pdfrwt>
<totfact> 0.51197426E+00</totfact>
</mgrwt>
</event>
<event>
 6    2  0.2345636E-005  0.1030584E+04  0.7818608E-02  0.9856144E-01
         -4   -1    0    0    0  501 -0.00000000000E+00  0.00000000000E+00  0.24610358027E+04  0.24610358027E+04  0.00000000000E+00 0. -1.
         21   -1    0    0  501  502  0.00000000000E+00 -0.00000000000E+00 -0.16908119854E+03  0.16908119854E+03  0.00000000000E+00 0. -1.
   -9000010    2    1    2    0  502  0.91201590724E+02  0.10465777568E+03  0.14625614998E+04  0.17891866159E+04  0.10211912778E+04 0.  0.
         13    1    3    3    0    0  0.20522446606E+03  0.33237259170E+03  0.14831122636E+04  0.15336918265E+04  0.10566000000E+00 0. -1.
         -4    1    3    3    0  502 -0.11402287533E+03 -0.22771481603E+03 -0.20550763792E+02  0.25549478944E+03  0.00000000000E+00 0. -1.
        -13    1    1    2    0    0 -0.91201590724E+02 -0.10465777568E+03  0.82939310442E+03  0.84093038533E+03  0.10566000000E+00 0.  1.
<mgrwt>
<rscale>  1 0.62434615E+03</rscale>
<asrwt>0</asrwt>
<pdfrwt beam="2">  1       21 0.26012494E-01 0.10305836E+04</pdfrwt>
<pdfrwt beam="1">  1       -4 0.37862087E+00 0.10305836E+04</pdfrwt>
<totfact> 0.56313384E+00</totfact>
</mgrwt>
</event>
<event>
 6    2  0.2345636E-005  0.1004455E+04  0.7818608E-02  0.1002893E+00
         -4   -1    0    0    0  501 -0.00000000000E+00  0.00000000000E+00  0.55934892343E+03  0.55934892343E+03  0.00000000000E+00 0. -1.
         21   -1    0    0  501  502  0.00000000000E+00 -0.00000000000E+00 -0.71649568281E+03  0.71649568281E+03  0.00000000000E+00 0. -1.
   -9000010    2    1    2    0  502 -0.51576442904E+02 -0.69336370759E+02 -0.35066713302E+03  0.10639063889E+04  0.10007305854E+04 0.  0.
         13    1    3    3    0    0  0.95590782365E+02  0.43369989871E+03 -0.30298940863E+03  0.53762049135E+03  0.10566000000E+00 0. -1.
         -4    1    3    3    0  502 -0.14716722527E+03 -0.50303626947E+03 -0.47677724391E+02  0.52628589759E+03  0.00000000000E+00 0. -1.
        -13    1    1    2    0    0  0.51576442904E+02  0.69336370759E+02  0.19352037364E+03  0.21193821730E+03  0.10566000000E+00 0.  1.
<mgrwt>
<rscale>  1 0.54399630E+03</rscale>
<asrwt>0</asrwt>
<pdfrwt beam="2">  1       21 0.11023011E+00 0.10044548E+04</pdfrwt>
<pdfrwt beam="1">  1       -4 0.86053680E-01 0.10044548E+04</pdfrwt>
<totfact> 0.28406610E+01</totfact>
</mgrwt>
</event>
<event>
 6    2  0.2345636E-005  0.1012235E+04  0.7818608E-02  0.9814603E-01
         -4   -1    0    0    0  501 -0.00000000000E+00  0.00000000000E+00  0.78608208338E+03  0.78608208338E+03  0.00000000000E+00 0. -1.
         21   -1    0    0  501  502  0.00000000000E+00 -0.00000000000E+00 -0.44433630241E+03  0.44433630241E+03  0.00000000000E+00 0. -1.
   -9000010    2    1    2    0  502  0.14936593676E+03 -0.76363969317E+02  0.31788134849E+03  0.10609747044E+04  0.99823701229E+03 0.  0.
         13    1    3    3    0    0  0.36773677593E+03  0.58232342040E+01  0.59451611291E+03  0.69908058627E+03  0.10566000000E+00 0. -1.
         -4    1    3    3    0  502 -0.21837083917E+03 -0.82187203521E+02 -0.27663476442E+03  0.36189411809E+03  0.00000000000E+00 0. -1.
        -13    1    1    2    0    0 -0.14936593676E+03  0.76363969317E+02  0.23864432482E+02  0.16944368143E+03  0.10566000000E+00 0.  1.
<mgrwt>
<rscale>  1 0.64584695E+03</rscale>
<asrwt>0</asrwt>
<pdfrwt beam="2">  1       21 0.68359431E-01 0.10122345E+04</pdfrwt>
<pdfrwt beam="1">  1       -4 0.12093571E+00 0.10122345E+04</pdfrwt>
<totfact> 0.39212394E+01</totfact>
</mgrwt>
</event>
<event>
 6    2  0.2345636E-005  0.1045726E+04  0.7818608E-02  0.9638006E-01
         21   -1    0    0  501  502  0.00000000000E+00  0.00000000000E+00  0.10910186239E+04  0.10910186239E+04  0.00000000000E+00 0. -1.
         -4   -1    0    0    0  501 -0.00000000000E+00 -0.00000000000E+00 -0.40027121609E+03  0.40027121609E+03  0.00000000000E+00 0. -1.
   -9000010    2    1    2    0  502 -0.16244057205E+03  0.22090815735E+03  0.57779108541E+03  0.11947320963E+04  0.10091357144E+04 0.  0.
         13    1    3    3    0    0  0.41665634701E+03  0.92291020113E+02  0.11394411565E+03  0.44170512398E+03  0.10566000000E+00 0. -1.
         -4    1    3    3    0  502 -0.57909691905E+03  0.12861713723E+03  0.46384696975E+03  0.75302697229E+03  0.00000000000E+00 0. -1.
        -13    1    1    2    0    0  0.16244057205E+03 -0.22090815735E+03  0.11295632242E+03  0.29655774373E+03  0.10566000000E+00 0.  1.
<mgrwt>
<rscale>  1 0.74830982E+03</rscale>
<asrwt>0</asrwt>
<pdfrwt beam="1">  1       21 0.16784902E+00 0.10457257E+04</pdfrwt>
<pdfrwt beam="2">  1       -4 0.61580188E-01 0.10457257E+04</pdfrwt>
<totfact> 0.19293331E+01</totfact>
</mgrwt>
</event>
<event>
 6    2  0.2345636E-005  0.1074749E+04  0.7818608E-02  0.9508351E-01
         21   -1    0    0  501  502  0.00000000000E+00  0.00000000000E+00  0.33265045879E+04  0.33265045879E+04  0.00000000000E+00 0. -1.
         -4   -1    0    0    0  501 -0.00000000000E+00 -0.00000000000E+00 -0.16372651459E+03  0.16372651459E+03  0.00000000000E+00 0. -1.
   -9000010    2    1    2    0  502  0.15795275282E+03  0.36182472915E+03  0.24512715361E+04  0.26765310530E+04  0.99960998778E+03 0.  0.
         13    1    3    3    0    0 -0.16308089283E+03  0.57956219079E+03  0.19611002456E+04  0.20514389816E+04  0.10566000000E+00 0. -1.
         -4    1    3    3    0  502  0.32103364565E+03 -0.21773746163E+03  0.49017129042E+03  0.62509207145E+03  0.00000000000E+00 0. -1.
        -13    1    1    2    0    0 -0.15795275282E+03 -0.36182472915E+03  0.71150653723E+03  0.81370004943E+03  0.10566000000E+00 0.  1.
<mgrwt>
<rscale>  1 0.83670895E+03</rscale>
<asrwt>0</asrwt>
<pdfrwt beam="1">  1       21 0.51176989E+00 0.10747494E+04</pdfrwt>
<pdfrwt beam="2">  1       -4 0.25188697E-01 0.10747494E+04</pdfrwt>
<totfact> 0.62115570E-01</totfact>
</mgrwt>
</event>
<event>
 6    2  0.2345636E-005  0.1009889E+04  0.7818608E-02  0.9758506E-01
         -4   -1    0    0    0  501 -0.00000000000E+00  0.00000000000E+00  0.15140815180E+03  0.15140815180E+03  0.00000000000E+00 0. -1.
         21   -1    0    0  501  502  0.00000000000E+00 -0.00000000000E+00 -0.24906865223E+04  0.24906865223E+04  0.00000000000E+00 0. -1.
   -9000010    2    1    2    0  502 -0.20198801997E+03  0.22208840615E+02 -0.20841119600E+04  0.23159010184E+04  0.98923327501E+03 0.  0.
         13    1    3    3    0    0 -0.58422259805E+03  0.33187704815E+02 -0.15675041043E+04  0.16731666373E+04  0.10566000000E+00 0. -1.
         -4    1    3    3    0  502  0.38223457808E+03 -0.10978864200E+02 -0.51660785565E+03  0.64273438110E+03  0.00000000000E+00 0. -1.
        -13    1    1    2    0    0  0.20198801997E+03 -0.22208840615E+02 -0.25516641056E+03  0.32619365575E+03  0.10566000000E+00 0.  1.
<mgrwt>
<rscale>  1 0.67637704E+03</rscale>
<asrwt>0</asrwt>
<pdfrwt beam="2">  1       21 0.38318252E+00 0.10098885E+04</pdfrwt>
<pdfrwt beam="1">  1       -4 0.23293563E-01 0.10098885E+04</pdfrwt>
<totfact> 0.55736702E+00</totfact>
</mgrwt>
</event>
<event>
 6    2  0.2345636E-005  0.1016781E+04  0.7818608E-02  0.9473323E-01
         21   -1    0    0  501  502  0.00000000000E+00  0.00000000000E+00  0.43756795711E+03  0.43756795711E+03  0.00000000000E+00 0. -1.
         -4   -1    0    0    0  501 -0.00000000000E+00 -0.00000000000E+00 -0.13621817303E+04  0.13621817303E+04  0.00000000000E+00 0. -1.
   -9000010    2    1    2    0  502 -0.20969416304E+03  0.48366808779E+03 -0.59770103062E+03  0.11794445902E+04  0.86944612156E+03 0.  0.
         13    1    3    3    0    0  0.27562480771E+03  0.27939589283E+03 -0.51332867517E+03  0.64617137005E+03  0.10566000000E+00 0. -1.
         -4    1    3    3    0  502 -0.48531897075E+03  0.20427219496E+03 -0.84372355446E+02  0.53327322019E+03  0.00000000000E+00 0. -1.
        -13    1    1    2    0    0  0.20969416304E+03 -0.48366808779E+03 -0.32691274259E+03  0.62030509718E+03  0.10566000000E+00 0.  1.
<mgrwt>
<rscale>  1 0.86279537E+03</rscale>
<asrwt>0</asrwt>
<pdfrwt beam="1">  1       21 0.67318148E-01 0.10167807E+04</pdfrwt>
<pdfrwt beam="2">  1       -4 0.20956642E+00 0.10167807E+04</pdfrwt>
<totfact> 0.88368937E+00</totfact>
</mgrwt>
</event>
<event>
 6    2  0.2345636E-005  0.1011038E+04  0.7818608E-02  0.9695260E-01
         -4   -1    0    0    0  501 -0.00000000000E+00  0.00000000000E+00  0.51224442822E+03  0.51224442822E+03  0.00000000000E+00 0. -1.
         21   -1    0    0  501  502  0.00000000000E+00 -0.00000000000E+00 -0.96759558784E+03  0.96759558784E+03  0.00000000000E+00 0. -1.
   -9000010    2    1    2    0  502 -0.12613820453E+03 -0.21591754264E+03 -0.61477857108E+03  0.11832791580E+04  0.97962525609E+03 0.  0.
         13    1    3    3    0    0  0.31024598589E+03 -0.42244711172E+03 -0.26661873524E+03  0.58804735788E+03  0.10566000000E+00 0. -1.
         -4    1    3    3    0  502 -0.43638419042E+03  0.20652956908E+03 -0.34815983585E+03  0.59523180010E+03  0.00000000000E+00 0. -1.
        -13    1    1    2    0    0  0.12613820453E+03  0.21591754264E+03  0.15942741146E+03  0.29656085808E+03  0.10566000000E+00 0.  1.
<mgrwt>
<rscale>  1 0.71299681E+03</rscale>
<asrwt>0</asrwt>
<pdfrwt beam="2">  1       21 0.14886086E+00 0.10110375E+04</pdfrwt>
<pdfrwt beam="1">  1       -4 0.78806836E-01 0.10110375E+04</pdfrwt>
<totfact> 0.15693181E+01</totfact>
</mgrwt>
</event>
<event>
 6    2  0.2345636E-005  0.1087300E+04  0.7818608E-02  0.9471110E-01
         -4   -1    0    0    0  501 -0.00000000000E+00  0.00000000000E+00  0.27142777981E+03  0.27142777981E+03  0.00000000000E+00 0. -1.
         21   -1    0    0  501  502  0.00000000000E+00 -0.00000000000E+00 -0.27349044806E+04  0.27349044806E+04  0.00000000000E+00 0. -1.
   -9000010    2    1    2    0  502 -0.34244161646E+03  0.26740014673E+03 -0.22964687145E+04  0.25408639180E+04  0.99672051938E+03 0.  0.
         13    1    3    3    0    0 -0.30816966053E+03  0.17969150571E+03 -0.23850503560E+04  0.24115809729E+04  0.10566000000E+00 0. -1.
         -4    1    3    3    0  502 -0.34271955931E+02  0.87708641019E+02  0.88581641517E+02  0.12928294507E+03  0.00000000000E+00 0. -1.
        -13    1    1    2    0    0  0.34244161646E+03 -0.26740014673E+03 -0.16700798626E+03  0.46546834242E+03  0.10566000000E+00 0.  1.
<mgrwt>
<rscale>  1 0.86447682E+03</rscale>
<asrwt>0</asrwt>
<pdfrwt beam="2">  1       21 0.42075452E+00 0.10872998E+04</pdfrwt>
<pdfrwt beam="1">  1       -4 0.41758122E-01 0.10872998E+04</pdfrwt>
<totfact> 0.98267628E-01</totfact>
</mgrwt>
</event>
<event>
 6    2  0.2345636E-005  0.1033018E+04  0.7818608E-02  0.9643404E-01
         -4   -1    0    0    0  501 -0.00000000000E+00  0.00000000000E+00  0.50544150840E+03  0.50544150840E+03  0.00000000000E+00 0. -1.
         21   -1    0    0  501  502  0.00000000000E+00 -0.00000000000E+00 -0.89788797501E+03  0.89788797501E+03  0.00000000000E+00 0. -1.
   -9000010    2    1    2    0  502  0.22839959482E+03  0.16072088489E+03 -0.43491568741E+03  0.11208383798E+04  0.99454986836E+03 0.  0.
         13    1    3    3    0    0  0.17122673643E+03  0.14909647653E+03  0.30410934785E+03  0.37951398024E+03  0.10566000000E+00 0. -1.
         -4    1    3    3    0  502  0.57172858391E+02  0.11624408357E+02 -0.73902503526E+03  0.74132439953E+03  0.00000000000E+00 0. -1.
        -13    1    1    2    0    0 -0.22839959482E+03 -0.16072088489E+03  0.42469220799E+02  0.28249110364E+03  0.10566000000E+00 0.  1.
<mgrwt>
<rscale>  1 0.74488836E+03</rscale>
<asrwt>0</asrwt>
<pdfrwt beam="2">  1       21 0.13813661E+00 0.10330184E+04</pdfrwt>
<pdfrwt beam="1">  1       -4 0.77760233E-01 0.10330184E+04</pdfrwt>
<totfact> 0.19826251E+01</totfact>
</mgrwt>
</event>
<event>
 6    2  0.2345636E-005  0.1052163E+04  0.7818608E-02  0.9630689E-01
         -4   -1    0    0    0  501 -0.00000000000E+00  0.00000000000E+00  0.10121075255E+04  0.10121075255E+04  0.00000000000E+00 0. -1.
         21   -1    0    0  501  502  0.00000000000E+00 -0.00000000000E+00 -0.43639825432E+03  0.43639825432E+03  0.00000000000E+00 0. -1.
   -9000010    2    1    2    0  502  0.22202292435E+02 -0.27508784065E+03  0.47905077067E+03  0.11560863230E+04  0.10153224529E+04 0.  0.
         13    1    3    3    0    0  0.45959608168E+03 -0.37437793510E+03  0.35408633567E+03  0.69048138343E+03  0.10566000000E+00 0. -1.
         -4    1    3    3    0  502 -0.43739378924E+03  0.99290094453E+02  0.12496443500E+03  0.46560493956E+03  0.00000000000E+00 0. -1.
        -13    1    1    2    0    0 -0.22202292435E+02  0.27508784065E+03  0.96658500531E+02  0.29241945686E+03  0.10566000000E+00 0.  1.
<mgrwt>
<rscale>  1 0.75297839E+03</rscale>
<asrwt>0</asrwt>
<pdfrwt beam="2">  1       21 0.67138193E-01 0.10521625E+04</pdfrwt>
<pdfrwt beam="1">  1       -4 0.15570885E+00 0.10521625E+04</pdfrwt>
<totfact> 0.21017523E+01</totfact>
</mgrwt>
</event>
<event>
 6    2  0.2345636E-005  0.1005647E+04  0.7818608E-02  0.9777991E-01
         -4   -1    0    0    0  501 -0.00000000000E+00  0.00000000000E+00  0.57977576046E+03  0.57977576046E+03  0.00000000000E+00 0. -1.
         21   -1    0    0  501  502  0.00000000000E+00 -0.00000000000E+00 -0.66478400751E+03  0.66478400751E+03  0.00000000000E+00 0. -1.
   -9000010    2    1    2    0  502 -0.11769023967E+03 -0.15289950024E+03 -0.19217945691E+03  0.10238451806E+04  0.98696340383E+03 0.  0.
         13    1    3    3    0    0 -0.37078992246E+01 -0.31712962769E+03 -0.53792958741E+03  0.62446232989E+03  0.10566000000E+00 0. -1.
         -4    1    3    3    0  502 -0.11398234044E+03  0.16423012745E+03  0.34575013050E+03  0.39938285071E+03  0.00000000000E+00 0. -1.
        -13    1    1    2    0    0  0.11769023967E+03  0.15289950024E+03  0.10717120986E+03  0.22071458736E+03  0.10566000000E+00 0.  1.
<mgrwt>
<rscale>  1 0.66557154E+03</rscale>
<asrwt>0</asrwt>
<pdfrwt beam="2">  1       21 0.10227446E+00 0.10056471E+04</pdfrwt>
<pdfrwt beam="1">  1       -4 0.89196271E-01 0.10056471E+04</pdfrwt>
<totfact> 0.31537486E+01</totfact>
</mgrwt>
</event>
<event>
 6    2  0.2345636E-005  0.1087936E+04  0.7818608E-02  0.9670927E-01
         21   -1    0    0  501  502  0.00000000000E+00  0.00000000000E+00  0.10877390147E+04  0.10877390147E+04  0.00000000000E+00 0. -1.
         -4   -1    0    0    0  501 -0.00000000000E+00 -0.00000000000E+00 -0.42566431082E+03  0.42566431082E+03  0.00000000000E+00 0. -1.
   -9000010    2    1    2    0  502 -0.21540652546E+03 -0.32365274288E+02  0.37017627162E+03  0.11491888446E+04  0.10659066781E+04 0.  0.
         13    1    3    3    0    0  0.16241091957E+03 -0.47269969407E+03  0.10255380430E+03  0.51023484937E+03  0.10566000000E+00 0. -1.
         -4    1    3    3    0  502 -0.37781744503E+03  0.44033441978E+03  0.26762246732E+03  0.63895399524E+03  0.00000000000E+00 0. -1.
        -13    1    1    2    0    0  0.21540652546E+03  0.32365274288E+02  0.29189843227E+03  0.36421448093E+03  0.10566000000E+00 0.  1.
<mgrwt>
<rscale>  1 0.72774494E+03</rscale>
<asrwt>0</asrwt>
<pdfrwt beam="1">  1       21 0.16734446E+00 0.10879359E+04</pdfrwt>
<pdfrwt beam="2">  1       -4 0.65486818E-01 0.10879359E+04</pdfrwt>
<totfact> 0.16921178E+01</totfact>
</mgrwt>
</event>
<event>
 6    2  0.2345636E-005  0.1019541E+04  0.7818608E-02  0.9894000E-01
         -4   -1    0    0    0  501 -0.00000000000E+00  0.00000000000E+00  0.27275340153E+03  0.27275340153E+03  0.00000000000E+00 0. -1.
         21   -1    0    0  501  502  0.00000000000E+00 -0.00000000000E+00 -0.12139510163E+04  0.12139510163E+04  0.00000000000E+00 0. -1.
   -9000010    2    1    2    0  502  0.12531120794E+03  0.19767370240E+02 -0.79305168647E+03  0.12916637170E+04  0.10116177799E+04 0.  0.
         13    1    3    3    0    0  0.49830063526E+03  0.27090387139E+03 -0.39540623520E+03  0.69140330679E+03  0.10566000000E+00 0. -1.
         -4    1    3    3    0  502 -0.37298942732E+03 -0.25113650115E+03 -0.39764545127E+03  0.60026041017E+03  0.00000000000E+00 0. -1.
        -13    1    1    2    0    0 -0.12531120794E+03 -0.19767370240E+02 -0.14814592832E+03  0.19504070089E+03  0.10566000000E+00 0.  1.
<mgrwt>
<rscale>  1 0.60552974E+03</rscale>
<asrwt>0</asrwt>
<pdfrwt beam="2">  1       21 0.18676169E+00 0.10195412E+04</pdfrwt>
<pdfrwt beam="1">  1       -4 0.41962062E-01 0.10195412E+04</pdfrwt>
<totfact> 0.31708205E+01</totfact>
</mgrwt>
</event>
<event>
 6    2  0.2345636E-005  0.1009717E+04  0.7818608E-02  0.9821781E-01
         -4   -1    0    0    0  501 -0.00000000000E+00  0.00000000000E+00  0.27057909294E+04  0.27057909294E+04  0.00000000000E+00 0. -1.
         21   -1    0    0  501  502  0.00000000000E+00 -0.00000000000E+00 -0.13039160131E+03  0.13039160131E+03  0.00000000000E+00 0. -1.
   -9000010    2    1    2    0  502 -0.15350979938E+03 -0.60741456235E+02  0.20451185952E+04  0.22807975743E+04  0.99612886885E+03 0.  0.
         13    1    3    3    0    0 -0.36278399142E+03  0.32543480494E+02  0.20173826814E+04  0.20500010237E+04  0.10566000000E+00 0. -1.
         -4    1    3    3    0  502  0.20927419204E+03 -0.93284936728E+02  0.27735913818E+02  0.23079655064E+03  0.00000000000E+00 0. -1.
        -13    1    1    2    0    0  0.15350979938E+03  0.60741456235E+02  0.53028073286E+03  0.55538495642E+03  0.10566000000E+00 0.  1.
<mgrwt>
<rscale>  1 0.64206644E+03</rscale>
<asrwt>0</asrwt>
<pdfrwt beam="2">  1       21 0.20060248E-01 0.10097165E+04</pdfrwt>
<pdfrwt beam="1">  1       -4 0.41627548E+00 0.10097165E+04</pdfrwt>
<totfact> 0.51671493E+00</totfact>
</mgrwt>
</event>
<event>
 6    2  0.2345636E-005  0.1071085E+04  0.7818608E-02  0.9483058E-01
         -4   -1    0    0    0  501 -0.00000000000E+00  0.00000000000E+00  0.76911210099E+03  0.76911210099E+03  0.00000000000E+00 0. -1.
         21   -1    0    0  501  502  0.00000000000E+00 -0.00000000000E+00 -0.74008453308E+03  0.74008453308E+03  0.00000000000E+00 0. -1.
   -9000010    2    1    2    0  502 -0.41052317705E+03  0.14628872264E+03 -0.14817330783E+02  0.10711874383E+04  0.97841366785E+03 0.  0.
         13    1    3    3    0    0 -0.64861244456E+03  0.32816468355E+03  0.12996310419E+03  0.73843116293E+03  0.10566000000E+00 0. -1.
         -4    1    3    3    0  502  0.23808926751E+03 -0.18187596091E+03 -0.14478043497E+03  0.33275627539E+03  0.00000000000E+00 0. -1.
        -13    1    1    2    0    0  0.41052317705E+03 -0.14628872264E+03  0.43844898690E+02  0.43800919576E+03  0.10566000000E+00 0.  1.
<mgrwt>
<rscale>  1 0.85544490E+03</rscale>
<asrwt>0</asrwt>
<pdfrwt beam="2">  1       21 0.11385916E+00 0.10710850E+04</pdfrwt>
<pdfrwt beam="1">  1       -4 0.11832494E+00 0.10710850E+04</pdfrwt>
<totfact> 0.12038688E+01</totfact>
</mgrwt>
</event>
<event>
 6    2  0.2345636E-005  0.1002060E+04  0.7818608E-02  0.9777231E-01
         21   -1    0    0  501  502  0.00000000000E+00  0.00000000000E+00  0.17638990213E+03  0.17638990213E+03  0.00000000000E+00 0. -1.
         -4   -1    0    0    0  501 -0.00000000000E+00 -0.00000000000E+00 -0.21618685154E+04  0.21618685154E+04  0.00000000000E+00 0. -1.
   -9000010    2    1    2    0  502 -0.19391138919E+03 -0.25015394459E+02 -0.14049599146E+04  0.17256987327E+04  0.98280026332E+03 0.  0.
         13    1    3    3    0    0  0.91491982208E+02 -0.33793687558E+03 -0.12096718452E+04  0.12593165206E+04  0.10566000000E+00 0. -1.
         -4    1    3    3    0  502 -0.28540337140E+03  0.31292148112E+03 -0.19528806939E+03  0.46638221214E+03  0.00000000000E+00 0. -1.
        -13    1    1    2    0    0  0.19391138919E+03  0.25015394459E+02 -0.58051869861E+03  0.61255968478E+03  0.10566000000E+00 0.  1.
<mgrwt>
<rscale>  1 0.66598902E+03</rscale>
<asrwt>0</asrwt>
<pdfrwt beam="1">  1       21 0.27136909E-01 0.10020598E+04</pdfrwt>
<pdfrwt beam="2">  1       -4 0.33259514E+00 0.10020598E+04</pdfrwt>
<totfact> 0.10375376E+01</totfact>
</mgrwt>
</event>
<event>
 6    2  0.2345636E-005  0.9996884E+03  0.7818608E-02  0.9799839E-01
         -4   -1    0    0    0  501 -0.00000000000E+00  0.00000000000E+00  0.33190821718E+03  0.33190821718E+03  0.00000000000E+00 0. -1.
         21   -1    0    0  501  502  0.00000000000E+00 -0.00000000000E+00 -0.10814023897E+04  0.10814023897E+04  0.00000000000E+00 0. -1.
   -9000010    2    1    2    0  502 -0.18271509663E+03  0.52107930399E+01 -0.71037874747E+03  0.12263828493E+04  0.98283516898E+03 0.  0.
         13    1    3    3    0    0 -0.57856198918E+03  0.91052310829E+02 -0.33823785199E+03  0.67633523812E+03  0.10566000000E+00 0. -1.
         -4    1    3    3    0  502  0.39584689255E+03 -0.85841517789E+02 -0.37214089547E+03  0.55004761122E+03  0.00000000000E+00 0. -1.
        -13    1    1    2    0    0  0.18271509663E+03 -0.52107930399E+01 -0.39115425058E+02  0.18692775755E+03  0.10566000000E+00 0.  1.
<mgrwt>
<rscale>  1 0.65371170E+03</rscale>
<asrwt>0</asrwt>
<pdfrwt beam="2">  1       21 0.16636960E+00 0.99968842E+03</pdfrwt>
<pdfrwt beam="1">  1       -4 0.51062802E-01 0.99968842E+03</pdfrwt>
<totfact> 0.29779544E+01</totfact>
</mgrwt>
</event>
<event>
 6    2  0.2345636E-005  0.1073536E+04  0.7818608E-02  0.9510428E-01
         -4   -1    0    0    0  501 -0.00000000000E+00  0.00000000000E+00  0.17318333062E+04  0.17318333062E+04  0.00000000000E+00 0. -1.
         21   -1    0    0  501  502  0.00000000000E+00 -0.00000000000E+00 -0.36708484074E+03  0.36708484074E+03  0.00000000000E+00 0. -1.
   -9000010    2    1    2    0  502  0.11740215971E+01  0.39327566248E+03  0.57775563677E+03  0.12191313270E+04  0.99890564696E+03 0.  0.
         13    1    3    3    0    0  0.48986871764E+03  0.96302776048E+02  0.22841689777E+03  0.54901719058E+03  0.10566000000E+00 0. -1.
         -4    1    3    3    0  502 -0.48869469604E+03  0.29697288643E+03  0.34933873899E+03  0.67011413638E+03  0.00000000000E+00 0. -1.
        -13    1    1    2    0    0 -0.11740215971E+01 -0.39327566248E+03  0.78699282865E+03  0.87978681993E+03  0.10566000000E+00 0.  1.
<mgrwt>
<rscale>  1 0.83519373E+03</rscale>
<asrwt>0</asrwt>
<pdfrwt beam="2">  1       21 0.56474592E-01 0.10735360E+04</pdfrwt>
<pdfrwt beam="1">  1       -4 0.26643589E+00 0.10735360E+04</pdfrwt>
<totfact> 0.57181320E+00</totfact>
</mgrwt>
</event>
<event>
 6    2  0.2345636E-005  0.1297260E+04  0.7818608E-02  0.9157742E-01
         21   -1    0    0  501  502  0.00000000000E+00  0.00000000000E+00  0.43080476836E+03  0.43080476836E+03  0.00000000000E+00 0.  1.
         -4   -1    0    0    0  501 -0.00000000000E+00 -0.00000000000E+00 -0.25854261724E+04  0.25854261724E+04  0.00000000000E+00 0. -1.
   -9000010    2    1    2    0  502  0.78425124058E+03 -0.16425784204E+03 -0.14864991439E+04  0.19729581995E+04  0.10202223802E+04 0.  0.
         13    1    3    3    0    0  0.66839214182E+03  0.17168537292E+03 -0.14620835607E+04  0.16167598065E+04  0.10566000000E+00 0. -1.
         -4    1    3    3    0  502  0.11585909876E+03 -0.33594321496E+03 -0.24415583269E+02  0.35619839297E+03  0.00000000000E+00 0. -1.
        -13    1    1    2    0    0 -0.78425124058E+03  0.16425784204E+03 -0.66812226008E+03  0.10432727412E+04  0.10566000000E+00 0.  1.
<mgrwt>
<rscale>  1 0.11500451E+04</rscale>
<asrwt>0</asrwt>
<pdfrwt beam="1">  1       21 0.66277656E-01 0.12972603E+04</pdfrwt>
<pdfrwt beam="2">  1       -4 0.39775787E+00 0.12972603E+04</pdfrwt>
<totfact> 0.55342991E-01</totfact>
</mgrwt>
</event>
<event>
 6    2  0.2345636E-005  0.9931065E+03  0.7818608E-02  0.1011706E+00
         21   -1    0    0  501  502  0.00000000000E+00  0.00000000000E+00  0.79788816113E+03  0.79788816113E+03  0.00000000000E+00 0. -1.
         -4   -1    0    0    0  501 -0.00000000000E+00 -0.00000000000E+00 -0.40739225440E+03  0.40739225440E+03  0.00000000000E+00 0. -1.
   -9000010    2    1    2    0  502  0.56488343403E+02 -0.37864791543E+02  0.47163705681E+03  0.10994098683E+04  0.99077538810E+03 0.  0.
         13    1    3    3    0    0 -0.23774101704E+03  0.71775522144E+02  0.67909015963E+03  0.72307397467E+03  0.10566000000E+00 0. -1.
         -4    1    3    3    0  502  0.29422936044E+03 -0.10964031369E+03 -0.20745310282E+03  0.37633589359E+03  0.00000000000E+00 0. -1.
        -13    1    1    2    0    0 -0.56488343403E+02  0.37864791543E+02 -0.81141150084E+02  0.10587054727E+03  0.10566000000E+00 0.  1.
<mgrwt>
<rscale>  1 0.50802158E+03</rscale>
<asrwt>0</asrwt>
<pdfrwt beam="1">  1       21 0.12275202E+00 0.99310651E+03</pdfrwt>
<pdfrwt beam="2">  1       -4 0.62675732E-01 0.99310651E+03</pdfrwt>
<totfact> 0.44159264E+01</totfact>
</mgrwt>
</event>
<event>
 6    2  0.2345636E-005  0.1027413E+04  0.7818608E-02  0.9764238E-01
         21   -1    0    0  501  502  0.00000000000E+00  0.00000000000E+00  0.38359591137E+03  0.38359591137E+03  0.00000000000E+00 0. -1.
         -4   -1    0    0    0  501 -0.00000000000E+00 -0.00000000000E+00 -0.13066593621E+04  0.13066593621E+04  0.00000000000E+00 0. -1.
   -9000010    2    1    2    0  502 -0.18526815184E+03 -0.39131608776E+02 -0.10446530096E+04  0.14652228250E+04  0.10098130745E+04 0.  0.
         13    1    3    3    0    0  0.40080381576E+02  0.42128314383E+03 -0.78219506669E+03  0.88933405298E+03  0.10566000000E+00 0. -1.
         -4    1    3    3    0  502 -0.22534853342E+03 -0.46041475261E+03 -0.26245794288E+03  0.57588877200E+03  0.00000000000E+00 0. -1.
        -13    1    1    2    0    0  0.18526815184E+03  0.39131608776E+02  0.12158955884E+03  0.22503244849E+03  0.10566000000E+00 0.  1.
<mgrwt>
<rscale>  1 0.67317585E+03</rscale>
<asrwt>0</asrwt>
<pdfrwt beam="1">  1       21 0.59014755E-01 0.10274133E+04</pdfrwt>
<pdfrwt beam="2">  1       -4 0.20102452E+00 0.10274133E+04</pdfrwt>
<totfact> 0.13499226E+01</totfact>
</mgrwt>
</event>
<event>
 6    2  0.2345636E-005  0.1032740E+04  0.7818608E-02  0.9932042E-01
         -4   -1    0    0    0  501 -0.00000000000E+00  0.00000000000E+00  0.83051255166E+03  0.83051255166E+03  0.00000000000E+00 0. -1.
         21   -1    0    0  501  502  0.00000000000E+00 -0.00000000000E+00 -0.42829777623E+03  0.42829777623E+03  0.00000000000E+00 0. -1.
   -9000010    2    1    2    0  502 -0.83977450620E+01 -0.10770769248E+03  0.23404346826E+03  0.10589276902E+04  0.10270735314E+04 0.  0.
         13    1    3    3    0    0  0.44041224309E+03  0.99008096795E+01 -0.14078454600E+03  0.46247299321E+03  0.10566000000E+00 0. -1.
         -4    1    3    3    0  502 -0.44880998815E+03 -0.11760850216E+03  0.37482801426E+03  0.59645469696E+03  0.00000000000E+00 0. -1.
        -13    1    1    2    0    0  0.83977450620E+01  0.10770769248E+03  0.16817130717E+03  0.19988263772E+03  0.10566000000E+00 0.  1.
<mgrwt>
<rscale>  1 0.58733236E+03</rscale>
<asrwt>0</asrwt>
<pdfrwt beam="2">  1       21 0.65891966E-01 0.10327398E+04</pdfrwt>
<pdfrwt beam="1">  1       -4 0.12777116E+00 0.10327398E+04</pdfrwt>
<totfact> 0.37004137E+01</totfact>
</mgrwt>
</event>
<event>
 6    2  0.2345636E-005  0.1165464E+04  0.7818608E-02  0.9356454E-01
         -4   -1    0    0    0  501 -0.00000000000E+00  0.00000000000E+00  0.18383553338E+04  0.18383553338E+04  0.00000000000E+00 0. -1.
         21   -1    0    0  501  502  0.00000000000E+00 -0.00000000000E+00 -0.49755812486E+03  0.49755812486E+03  0.00000000000E+00 0. -1.
   -9000010    2    1    2    0  502 -0.51846247715E+03  0.11425981651E+03  0.35855066759E+03  0.12193710613E+04  0.10375203892E+04 0.  0.
         13    1    3    3    0    0 -0.32898275604E+03 -0.42473053517E+03  0.36238146973E+03  0.64803242360E+03  0.10566000000E+00 0. -1.
         -4    1    3    3    0  502 -0.18947972111E+03  0.53899035168E+03 -0.38308021449E+01  0.57133863773E+03  0.00000000000E+00 0. -1.
        -13    1    1    2    0    0  0.51846247715E+03 -0.11425981651E+03  0.98224654137E+03  0.11165423973E+04  0.10566000000E+00 0.  1.
<mgrwt>
<rscale>  1 0.95747661E+03</rscale>
<asrwt>0</asrwt>
<pdfrwt beam="2">  1       21 0.76547405E-01 0.11654644E+04</pdfrwt>
<pdfrwt beam="1">  1       -4 0.28282389E+00 0.11654644E+04</pdfrwt>
<totfact> 0.22435896E+00</totfact>
</mgrwt>
</event>
<event>
 6    2  0.2345636E-005  0.1039132E+04  0.7818608E-02  0.9708246E-01
         21   -1    0    0  501  502  0.00000000000E+00  0.00000000000E+00  0.24502859051E+03  0.24502859051E+03  0.00000000000E+00 0. -1.
         -4   -1    0    0    0  501 -0.00000000000E+00 -0.00000000000E+00 -0.17069218562E+04  0.17069218562E+04  0.00000000000E+00 0. -1.
   -9000010    2    1    2    0  502  0.64220473702E+02 -0.21095330822E+03 -0.10098816069E+04  0.14490189222E+04  0.10154651198E+04 0.  0.
         13    1    3    3    0    0  0.13658528700E+03  0.39104960656E+03 -0.27921581729E+03  0.49953660447E+03  0.10566000000E+00 0. -1.
         -4    1    3    3    0  502 -0.72364813300E+02 -0.60200291478E+03 -0.73066578962E+03  0.94948231775E+03  0.00000000000E+00 0. -1.
        -13    1    1    2    0    0 -0.64220473702E+02  0.21095330822E+03 -0.45201165882E+03  0.50293152453E+03  0.10566000000E+00 0.  1.
<mgrwt>
<rscale>  1 0.70527922E+03</rscale>
<asrwt>0</asrwt>
<pdfrwt beam="1">  1       21 0.37696707E-01 0.10391318E+04</pdfrwt>
<pdfrwt beam="2">  1       -4 0.26260336E+00 0.10391318E+04</pdfrwt>
<totfact> 0.14399498E+01</totfact>
</mgrwt>
</event>
<event>
 6    2  0.2345636E-005  0.1011059E+04  0.7818608E-02  0.9957130E-01
         21   -1    0    0  501  502  0.00000000000E+00  0.00000000000E+00  0.36945361774E+03  0.36945361774E+03  0.00000000000E+00 0. -1.
         -4   -1    0    0    0  501 -0.00000000000E+00 -0.00000000000E+00 -0.91149068525E+03  0.91149068525E+03  0.00000000000E+00 0. -1.
   -9000010    2    1    2    0  502 -0.20138505814E+02 -0.10436036360E+03 -0.36591443389E+03  0.10752361647E+04  0.10054565093E+04 0.  0.
         13    1    3    3    0    0 -0.76004243376E+02  0.22850057373E+03 -0.61190852435E+03  0.65758741665E+03  0.10566000000E+00 0. -1.
         -4    1    3    3    0  502  0.55865737562E+02 -0.33286093733E+03  0.24599409046E+03  0.41764874808E+03  0.00000000000E+00 0. -1.
        -13    1    1    2    0    0  0.20138505814E+02  0.10436036360E+03 -0.17612263362E+03  0.20570813826E+03  0.10566000000E+00 0.  1.
<mgrwt>
<rscale>  1 0.57570629E+03</rscale>
<asrwt>0</asrwt>
<pdfrwt beam="1">  1       21 0.56839019E-01 0.10110586E+04</pdfrwt>
<pdfrwt beam="2">  1       -4 0.14022934E+00 0.10110586E+04</pdfrwt>
<totfact> 0.40548521E+01</totfact>
</mgrwt>
</event>
<event>
 6    2  0.2345636E-005  0.1172420E+04  0.7818608E-02  0.9451252E-01
         21   -1    0    0  501  502  0.00000000000E+00  0.00000000000E+00  0.15301498467E+04  0.15301498467E+04  0.00000000000E+00 0. -1.
         -4   -1    0    0    0  501 -0.00000000000E+00 -0.00000000000E+00 -0.66628099049E+03  0.66628099049E+03  0.00000000000E+00 0. -1.
   -9000010    2    1    2    0  502 -0.31619286077E+03  0.19540416839E+03  0.12126338232E+04  0.16867272689E+04  0.11119385667E+04 0.  0.
         13    1    3    3    0    0  0.35918079588E+03  0.30396564314E+03  0.35347514098E+03  0.58851562663E+03  0.10566000000E+00 0. -1.
         -4    1    3    3    0  502 -0.67537365665E+03 -0.10856147475E+03  0.85915868221E+03  0.10982116422E+04  0.00000000000E+00 0. -1.
        -13    1    1    2    0    0  0.31619286077E+03 -0.19540416839E+03 -0.34876496697E+03  0.50970356834E+03  0.10566000000E+00 0.  1.
<mgrwt>
<rscale>  1 0.87975232E+03</rscale>
<asrwt>0</asrwt>
<pdfrwt beam="1">  1       21 0.23540767E+00 0.11724198E+04</pdfrwt>
<pdfrwt beam="2">  1       -4 0.10250477E+00 0.11724198E+04</pdfrwt>
<totfact> 0.20001044E+00</totfact>
</mgrwt>
</event>
<event>
 6    2  0.2656363E-005  0.8769252E+03  0.7818608E-02  0.1004264E+00
         21   -1    0    0  501  502  0.00000000000E+00  0.00000000000E+00  0.10425407039E+04  0.10425407039E+04  0.00000000000E+00 0. -1.
         -4   -1    0    0    0  501 -0.00000000000E+00 -0.00000000000E+00 -0.26352021333E+03  0.26352021333E+03  0.00000000000E+00 0. -1.
   -9000010    2    1    2    0  502  0.33722035144E+02  0.11975757031E+03  0.79113763500E+03  0.11810573667E+04  0.86805454585E+03 0.  0.
         13    1    3    3    0    0 -0.15590921589E+02 -0.12096111156E+03  0.90291178264E+03  0.91111160993E+03  0.10566000000E+00 0. -1.
         -4    1    3    3    0  502  0.49312956732E+02  0.24071868188E+03 -0.11177414764E+03  0.26994575675E+03  0.00000000000E+00 0. -1.
        -13    1    1    2    0    0 -0.33722035144E+02 -0.11975757031E+03 -0.12117144413E+02  0.12500355057E+03  0.10566000000E+00 0.  1.
<mgrwt>
<rscale>  1 0.53819540E+03</rscale>
<asrwt>0</asrwt>
<pdfrwt beam="1">  1       21 0.16039088E+00 0.87692517E+03</pdfrwt>
<pdfrwt beam="2">  1       -4 0.40541572E-01 0.87692517E+03</pdfrwt>
<totfact> 0.54156394E+01</totfact>
</mgrwt>
</event>
<event>
 6    2  0.2345636E-005  0.1028414E+04  0.7818608E-02  0.9729475E-01
         -4   -1    0    0    0  501 -0.00000000000E+00  0.00000000000E+00  0.92834264266E+03  0.92834264266E+03  0.00000000000E+00 0. -1.
         21   -1    0    0  501  502  0.00000000000E+00 -0.00000000000E+00 -0.43915749329E+03  0.43915749329E+03  0.00000000000E+00 0. -1.
   -9000010    2    1    2    0  502  0.16461698107E+03  0.13343819210E+03  0.27137686545E+03  0.10636169984E+04  0.10063454748E+04 0.  0.
         13    1    3    3    0    0 -0.30012092617E+02 -0.26751459405E+03 -0.25713277187E+03  0.37226611082E+03  0.10566000000E+00 0. -1.
         -4    1    3    3    0  502  0.19462907369E+03  0.40095278615E+03  0.52850963732E+03  0.69135088760E+03  0.00000000000E+00 0. -1.
        -13    1    1    2    0    0 -0.16461698107E+03 -0.13343819210E+03  0.21780828391E+03  0.30388313753E+03  0.10566000000E+00 0.  1.
<mgrwt>
<rscale>  1 0.69288680E+03</rscale>
<asrwt>0</asrwt>
<pdfrwt beam="2">  1       21 0.67562691E-01 0.10284142E+04</pdfrwt>
<pdfrwt beam="1">  1       -4 0.14282195E+00 0.10284142E+04</pdfrwt>
<totfact> 0.26179080E+01</totfact>
</mgrwt>
</event>
<event>
 6    2  0.2345636E-005  0.1008189E+04  0.7818608E-02  0.9655511E-01
         21   -1    0    0  501  502  0.00000000000E+00  0.00000000000E+00  0.79517054768E+03  0.79517054768E+03  0.00000000000E+00 0. -1.
         -4   -1    0    0    0  501 -0.00000000000E+00 -0.00000000000E+00 -0.56637190580E+03  0.56637190580E+03  0.00000000000E+00 0. -1.
   -9000010    2    1    2    0  502 -0.28626298832E+03 -0.34609913578E+02  0.32223635584E+03  0.10584336246E+04  0.96607511303E+03 0.  0.
         13    1    3    3    0    0 -0.25729163722E+03 -0.38780380356E+03  0.48172946505E+03  0.66981644149E+03  0.10566000000E+00 0. -1.
         -4    1    3    3    0  502 -0.28971351105E+02  0.35319388998E+03 -0.15949310921E+03  0.38861718309E+03  0.00000000000E+00 0. -1.
        -13    1    1    2    0    0  0.28626298832E+03  0.34609913578E+02 -0.93437713952E+02  0.30310882890E+03  0.10566000000E+00 0.  1.
<mgrwt>
<rscale>  1 0.73728539E+03</rscale>
<asrwt>0</asrwt>
<pdfrwt beam="1">  1       21 0.12233393E+00 0.10081892E+04</pdfrwt>
<pdfrwt beam="2">  1       -4 0.87134140E-01 0.10081892E+04</pdfrwt>
<totfact> 0.21104549E+01</totfact>
</mgrwt>
</event>
<event>
 6    2  0.2345636E-005  0.1073594E+04  0.7818608E-02  0.9531513E-01
         21   -1    0    0  501  502  0.00000000000E+00  0.00000000000E+00  0.14935166168E+04  0.14935166168E+04  0.00000000000E+00 0. -1.
         -4   -1    0    0    0  501 -0.00000000000E+00 -0.00000000000E+00 -0.48944357398E+03  0.48944357398E+03  0.00000000000E+00 0. -1.
   -9000010    2    1    2    0  502 -0.47952361560E+02 -0.36220905072E+03  0.11645401861E+04  0.15839056323E+04  0.10095089804E+04 0.  0.
         13    1    3    3    0    0  0.14291403359E+03  0.30249088573E+03  0.61686793100E+03  0.70174868179E+03  0.10566000000E+00 0. -1.
         -4    1    3    3    0  502 -0.19086639515E+03 -0.66469993644E+03  0.54767225508E+03  0.88215695048E+03  0.00000000000E+00 0. -1.
        -13    1    1    2    0    0  0.47952361560E+02  0.36220905072E+03 -0.16046714327E+03  0.39905455847E+03  0.10566000000E+00 0.  1.
<mgrwt>
<rscale>  1 0.81999838E+03</rscale>
<asrwt>0</asrwt>
<pdfrwt beam="1">  1       21 0.22977179E+00 0.10735936E+04</pdfrwt>
<pdfrwt beam="2">  1       -4 0.75299012E-01 0.10735936E+04</pdfrwt>
<totfact> 0.45552122E+00</totfact>
</mgrwt>
</event>
<event>
 6    2  0.2345636E-005  0.1008393E+04  0.7818608E-02  0.9838692E-01
         -4   -1    0    0    0  501 -0.00000000000E+00  0.00000000000E+00  0.63111402697E+03  0.63111402697E+03  0.00000000000E+00 0. -1.
         21   -1    0    0  501  502  0.00000000000E+00 -0.00000000000E+00 -0.55586348593E+03  0.55586348593E+03  0.00000000000E+00 0. -1.
   -9000010    2    1    2    0  502  0.12440790720E+03  0.95508767226E+02 -0.10044565983E+02  0.10084431508E+04  0.99612119904E+03 0.  0.
         13    1    3    3    0    0 -0.22002409142E+03  0.35488504359E+03  0.26728949764E+03  0.49577987221E+03  0.10566000000E+00 0. -1.
         -4    1    3    3    0  502  0.34443199862E+03 -0.25937627637E+03 -0.27733406362E+03  0.51266327864E+03  0.00000000000E+00 0. -1.
        -13    1    1    2    0    0 -0.12440790720E+03 -0.95508767226E+02  0.85295107021E+02  0.17853436206E+03  0.10566000000E+00 0.  1.
<mgrwt>
<rscale>  1 0.63326818E+03</rscale>
<asrwt>0</asrwt>
<pdfrwt beam="2">  1       21 0.85517459E-01 0.10083931E+04</pdfrwt>
<pdfrwt beam="1">  1       -4 0.97094466E-01 0.10083931E+04</pdfrwt>
<totfact> 0.39889415E+01</totfact>
</mgrwt>
</event>
<event>
 6    2  0.2345636E-005  0.1025118E+04  0.7818608E-02  0.9706783E-01
         -4   -1    0    0    0  501 -0.00000000000E+00  0.00000000000E+00  0.80976844155E+03  0.80976844155E+03  0.00000000000E+00 0. -1.
         21   -1    0    0  501  502  0.00000000000E+00 -0.00000000000E+00 -0.70011948654E+03  0.70011948654E+03  0.00000000000E+00 0. -1.
   -9000010    2    1    2    0  502  0.18588306433E+03 -0.13682124023E+03 -0.27494747166E+03  0.10613492030E+04  0.99879600172E+03 0.  0.
         13    1    3    3    0    0 -0.10439987925E+03  0.19470073967E+03  0.27749100832E+03  0.35469562117E+03  0.10566000000E+00 0. -1.
         -4    1    3    3    0  502  0.29028294358E+03 -0.33152197990E+03 -0.55243847998E+03  0.70665358178E+03  0.00000000000E+00 0. -1.
        -13    1    1    2    0    0 -0.18588306433E+03  0.13682124023E+03  0.38459642667E+03  0.44853872514E+03  0.10566000000E+00 0.  1.
<mgrwt>
<rscale>  1 0.70614391E+03</rscale>
<asrwt>0</asrwt>
<pdfrwt beam="2">  1       21 0.10771069E+00 0.10251176E+04</pdfrwt>
<pdfrwt beam="1">  1       -4 0.12457976E+00 0.10251176E+04</pdfrwt>
<totfact> 0.12225298E+01</totfact>
</mgrwt>
</event>
<event>
 6    2  0.2345636E-005  0.1012478E+04  0.7818608E-02  0.9881039E-01
         21   -1    0    0  501  502  0.00000000000E+00  0.00000000000E+00  0.94266690868E+03  0.94266690868E+03  0.00000000000E+00 0. -1.
         -4   -1    0    0    0  501 -0.00000000000E+00 -0.00000000000E+00 -0.40079041081E+03  0.40079041081E+03  0.00000000000E+00 0. -1.
   -9000010    2    1    2    0  502 -0.11675307446E+03 -0.67903683762E+02  0.62019371603E+03  0.11873298444E+04  0.10034289827E+04 0.  0.
         13    1    3    3    0    0 -0.53151484360E+03  0.13475214578E+03  0.29484997514E+03  0.62257745604E+03  0.10566000000E+00 0. -1.
         -4    1    3    3    0  502  0.41476176914E+03 -0.20265582954E+03  0.32534374089E+03  0.56475238833E+03  0.00000000000E+00 0. -1.
        -13    1    1    2    0    0  0.11675307446E+03  0.67903683762E+02 -0.78317218160E+02  0.15612747513E+03  0.10566000000E+00 0.  1.
<mgrwt>
<rscale>  1 0.61189075E+03</rscale>
<asrwt>0</asrwt>
<pdfrwt beam="1">  1       21 0.14502568E+00 0.10124781E+04</pdfrwt>
<pdfrwt beam="2">  1       -4 0.61660063E-01 0.10124781E+04</pdfrwt>
<totfact> 0.29213665E+01</totfact>
</mgrwt>
</event>
<event>
 6    2  0.2345636E-005  0.1133891E+04  0.7818608E-02  0.9367481E-01
         21   -1    0    0  501  502  0.00000000000E+00  0.00000000000E+00  0.71616332928E+03  0.71616332928E+03  0.00000000000E+00 0. -1.
         -4   -1    0    0    0  501 -0.00000000000E+00 -0.00000000000E+00 -0.99458289719E+03  0.99458289719E+03  0.00000000000E+00 0. -1.
   -9000010    2    1    2    0  502 -0.20844385309E+03  0.51332641531E+03 -0.18376328510E+03  0.11486851341E+04  0.98932084974E+03 0.  0.
         13    1    3    3    0    0  0.43499987387E+02  0.96077189304E+02 -0.53666342244E+03  0.54692843714E+03  0.10566000000E+00 0. -1.
         -4    1    3    3    0  502 -0.25194384047E+03  0.41724922601E+03  0.35290013734E+03  0.60175669692E+03  0.00000000000E+00 0. -1.
        -13    1    1    2    0    0  0.20844385309E+03 -0.51332641531E+03 -0.94656282813E+02  0.56206109239E+03  0.10566000000E+00 0.  1.
<mgrwt>
<rscale>  1 0.94800890E+03</rscale>
<asrwt>0</asrwt>
<pdfrwt beam="1">  1       21 0.11017897E+00 0.11338909E+04</pdfrwt>
<pdfrwt beam="2">  1       -4 0.15301275E+00 0.11338909E+04</pdfrwt>
<totfact> 0.66553002E+00</totfact>
</mgrwt>
</event>
<event>
 6    2  0.2345636E-005  0.9970073E+03  0.7818608E-02  0.1012778E+00
         -4   -1    0    0    0  501 -0.00000000000E+00  0.00000000000E+00  0.34339326917E+03  0.34339326917E+03  0.00000000000E+00 0. -1.
         21   -1    0    0  501  502  0.00000000000E+00 -0.00000000000E+00 -0.91849736042E+03  0.91849736042E+03  0.00000000000E+00 0. -1.
   -9000010    2    1    2    0  502  0.49311399587E+02 -0.42395953426E+02 -0.62779041961E+03  0.11781954006E+04  0.99488419429E+03 0.  0.
         13    1    3    3    0    0  0.44828044208E+03  0.22246157302E+03 -0.43099700324E+03  0.66045661037E+03  0.10566000000E+00 0. -1.
         -4    1    3    3    0  502 -0.39896904249E+03 -0.26485752645E+03 -0.19679341637E+03  0.51773879023E+03  0.00000000000E+00 0. -1.
        -13    1    1    2    0    0 -0.49311399587E+02  0.42395953426E+02  0.52686328359E+02  0.83695228992E+02  0.10566000000E+00 0.  1.
<mgrwt>
<rscale>  1 0.50385319E+03</rscale>
<asrwt>0</asrwt>
<pdfrwt beam="2">  1       21 0.14130729E+00 0.99700732E+03</pdfrwt>
<pdfrwt beam="1">  1       -4 0.52829734E-01 0.99700732E+03</pdfrwt>
<totfact> 0.43868904E+01</totfact>
</mgrwt>
</event>
<event>
 6    2  0.2345636E-005  0.1022488E+04  0.7818608E-02  0.9707833E-01
         -4   -1    0    0    0  501 -0.00000000000E+00  0.00000000000E+00  0.56185282651E+03  0.56185282651E+03  0.00000000000E+00 0. -1.
         21   -1    0    0  501  502  0.00000000000E+00 -0.00000000000E+00 -0.12062251596E+04  0.12062251596E+04  0.00000000000E+00 0. -1.
   -9000010    2    1    2    0  502 -0.15134556877E+03  0.17554254623E+03 -0.94239495155E+03  0.13905357249E+04  0.99587182445E+03 0.  0.
         13    1    3    3    0    0 -0.91464389852E+02  0.59310620201E+03 -0.57545902065E+03  0.83144079590E+03  0.10566000000E+00 0. -1.
         -4    1    3    3    0  502 -0.59881178916E+02 -0.41756365579E+03 -0.36693593091E+03  0.55909492898E+03  0.00000000000E+00 0. -1.
        -13    1    1    2    0    0  0.15134556877E+03 -0.17554254623E+03  0.29802261848E+03  0.37754226122E+03  0.10566000000E+00 0.  1.
<mgrwt>
<rscale>  1 0.70552319E+03</rscale>
<asrwt>0</asrwt>
<pdfrwt beam="2">  1       21 0.18557310E+00 0.10224878E+04</pdfrwt>
<pdfrwt beam="1">  1       -4 0.86438896E-01 0.10224878E+04</pdfrwt>
<totfact> 0.66659331E+00</totfact>
</mgrwt>
</event>
<event>
 6    2  0.2345636E-005  0.1072141E+04  0.7818608E-02  0.9512579E-01
         -4   -1    0    0    0  501 -0.00000000000E+00  0.00000000000E+00  0.34784031514E+03  0.34784031514E+03  0.00000000000E+00 0. -1.
         21   -1    0    0  501  502  0.00000000000E+00 -0.00000000000E+00 -0.17762837584E+04  0.17762837584E+04  0.00000000000E+00 0. -1.
   -9000010    2    1    2    0  502  0.36608742738E+03 -0.13976740185E+03 -0.13509251925E+04  0.17246694185E+04  0.99796332401E+03 0.  0.
         13    1    3    3    0    0 -0.47444633579E+02 -0.33580755764E+03 -0.11934270200E+04  0.12406795606E+04  0.10566000000E+00 0. -1.
         -4    1    3    3    0  502  0.41353206096E+03  0.19604015580E+03 -0.15749817257E+03  0.48398985784E+03  0.00000000000E+00 0. -1.
        -13    1    1    2    0    0 -0.36608742738E+03  0.13976740185E+03 -0.77518250737E+02  0.39945465508E+03  0.10566000000E+00 0.  1.
<mgrwt>
<rscale>  1 0.83362709E+03</rscale>
<asrwt>0</asrwt>
<pdfrwt beam="2">  1       21 0.27327442E+00 0.10721407E+04</pdfrwt>
<pdfrwt beam="1">  1       -4 0.53513895E-01 0.10721407E+04</pdfrwt>
<totfact> 0.51057899E+00</totfact>
</mgrwt>
</event>
<event>
 6    2  0.2345636E-005  0.1135604E+04  0.7818608E-02  0.9350537E-01
         -4   -1    0    0    0  501 -0.00000000000E+00  0.00000000000E+00  0.41237897986E+03  0.41237897986E+03  0.00000000000E+00 0. -1.
         21   -1    0    0  501  502  0.00000000000E+00 -0.00000000000E+00 -0.20233069533E+04  0.20233069533E+04  0.00000000000E+00 0.  1.
   -9000010    2    1    2    0  502 -0.55935887736E+03 -0.17565034942E+03 -0.14218006354E+04  0.18196465188E+04  0.97255385848E+03 0.  0.
         13    1    3    3    0    0 -0.33274408746E+03 -0.15896054551E+03  0.11011132062E+02  0.36892863668E+03  0.10566000000E+00 0. -1.
         -4    1    3    3    0  502 -0.22661478989E+03 -0.16689803914E+02 -0.14328117674E+04  0.14507178821E+04  0.00000000000E+00 0. -1.
        -13    1    1    2    0    0  0.55935887736E+03  0.17565034942E+03 -0.18912733809E+03  0.61603941441E+03  0.10566000000E+00 0.  1.
<mgrwt>
<rscale>  1 0.96260522E+03</rscale>
<asrwt>0</asrwt>
<pdfrwt beam="2">  1       21 0.31127800E+00 0.11356040E+04</pdfrwt>
<pdfrwt beam="1">  1       -4 0.63442919E-01 0.11356040E+04</pdfrwt>
<totfact> 0.20218190E+00</totfact>
</mgrwt>
</event>
<event>
 6    2  0.2345636E-005  0.1045642E+04  0.7818608E-02  0.9586567E-01
         -4   -1    0    0    0  501 -0.00000000000E+00  0.00000000000E+00  0.88767344208E+03  0.88767344208E+03  0.00000000000E+00 0. -1.
         21   -1    0    0  501  502  0.00000000000E+00 -0.00000000000E+00 -0.53944276915E+03  0.53944276915E+03  0.00000000000E+00 0. -1.
   -9000010    2    1    2    0  502  0.27421797573E+03  0.17806366639E+03  0.18575515129E+03  0.10620128371E+04  0.99320900239E+03 0.  0.
         13    1    3    3    0    0  0.22115089493E+03  0.38256924795E+03  0.51012446603E+03  0.67490290399E+03  0.10566000000E+00 0. -1.
         -4    1    3    3    0  502  0.53067080807E+02 -0.20450558157E+03 -0.32436931475E+03  0.38710993311E+03  0.00000000000E+00 0. -1.
        -13    1    1    2    0    0 -0.27421797573E+03 -0.17806366639E+03  0.16247552165E+03  0.36510337413E+03  0.10566000000E+00 0.  1.
<mgrwt>
<rscale>  1 0.78191663E+03</rscale>
<asrwt>0</asrwt>
<pdfrwt beam="2">  1       21 0.82991195E-01 0.10456416E+04</pdfrwt>
<pdfrwt beam="1">  1       -4 0.13656515E+00 0.10456416E+04</pdfrwt>
<totfact> 0.18234705E+01</totfact>
</mgrwt>
</event>
<event>
 6    2  0.2345636E-005  0.1018894E+04  0.7818608E-02  0.9878250E-01
         -4   -1    0    0    0  501 -0.00000000000E+00  0.00000000000E+00  0.63833525838E+03  0.63833525838E+03  0.00000000000E+00 0. -1.
         21   -1    0    0  501  502  0.00000000000E+00 -0.00000000000E+00 -0.56935643403E+03  0.56935643403E+03  0.00000000000E+00 0. -1.
   -9000010    2    1    2    0  502  0.13323976439E+03 -0.11414258262E+02 -0.61640995105E+02  0.10207567612E+04  0.10100800132E+04 0.  0.
         13    1    3    3    0    0  0.34379117924E+03 -0.30959102112E+03  0.26307166091E+03  0.53220830999E+03  0.10566000000E+00 0. -1.
         -4    1    3    3    0  502 -0.21055141486E+03  0.29817676286E+03 -0.32471265602E+03  0.48854845122E+03  0.00000000000E+00 0. -1.
        -13    1    1    2    0    0 -0.13323976439E+03  0.11414258262E+02  0.13061981945E+03  0.18693493120E+03  0.10566000000E+00 0.  1.
<mgrwt>
<rscale>  1 0.61327063E+03</rscale>
<asrwt>0</asrwt>
<pdfrwt beam="2">  1       21 0.87593297E-01 0.10188939E+04</pdfrwt>
<pdfrwt beam="1">  1       -4 0.98205424E-01 0.10188939E+04</pdfrwt>
<totfact> 0.36618115E+01</totfact>
</mgrwt>
</event>
<event>
 6    2  0.2345636E-005  0.1038347E+04  0.7818608E-02  0.9682427E-01
         -4   -1    0    0    0  501 -0.00000000000E+00  0.00000000000E+00  0.21072447806E+04  0.21072447806E+04  0.00000000000E+00 0. -1.
         21   -1    0    0  501  502  0.00000000000E+00 -0.00000000000E+00 -0.22002801473E+03  0.22002801473E+03  0.00000000000E+00 0. -1.
   -9000010    2    1    2    0  502  0.33208140479E+01 -0.24099976521E+03  0.11393152714E+04  0.15414938371E+04  0.10099861620E+04 0.  0.
         13    1    3    3    0    0  0.47620800892E+03 -0.28797324265E+03  0.52732666605E+03  0.76666555950E+03  0.10566000000E+00 0. -1.
         -4    1    3    3    0  502 -0.47288719487E+03  0.46973477433E+02  0.61198860533E+03  0.77482827756E+03  0.00000000000E+00 0. -1.
        -13    1    1    2    0    0 -0.33208140479E+01  0.24099976521E+03  0.74790149445E+03  0.78577895824E+03  0.10566000000E+00 0.  1.
<mgrwt>
<rscale>  1 0.72072780E+03</rscale>
<asrwt>0</asrwt>
<pdfrwt beam="2">  1       21 0.33850465E-01 0.10383467E+04</pdfrwt>
<pdfrwt beam="1">  1       -4 0.32419149E+00 0.10383467E+04</pdfrwt>
<totfact> 0.74641173E+00</totfact>
</mgrwt>
</event>
<event>
 6    2  0.2345636E-005  0.9947300E+03  0.7818608E-02  0.9996647E-01
         -4   -1    0    0    0  501 -0.00000000000E+00  0.00000000000E+00  0.37263892552E+03  0.37263892552E+03  0.00000000000E+00 0. -1.
         21   -1    0    0  501  502  0.00000000000E+00 -0.00000000000E+00 -0.95681217220E+03  0.95681217220E+03  0.00000000000E+00 0. -1.
   -9000010    2    1    2    0  502  0.91395616193E+02  0.36673476746E+02 -0.66958214263E+03  0.11990946893E+04  0.98984328332E+03 0.  0.
         13    1    3    3    0    0  0.16940834721E+03  0.46235471359E+03 -0.13361837826E+03  0.51022049298E+03  0.10566000000E+00 0. -1.
         -4    1    3    3    0  502 -0.78012731014E+02 -0.42568123684E+03 -0.53596376437E+03  0.68887419629E+03  0.00000000000E+00 0. -1.
        -13    1    1    2    0    0 -0.91395616193E+02 -0.36673476746E+02  0.85408895949E+02  0.13035640846E+03  0.10566000000E+00 0.  1.
<mgrwt>
<rscale>  1 0.55797511E+03</rscale>
<asrwt>0</asrwt>
<pdfrwt beam="2">  1       21 0.14720187E+00 0.99473003E+03</pdfrwt>
<pdfrwt beam="1">  1       -4 0.57329067E-01 0.99473003E+03</pdfrwt>
<totfact> 0.32905882E+01</totfact>
</mgrwt>
</event>
<event>
 6    2  0.2345636E-005  0.9431107E+03  0.7818608E-02  0.9871179E-01
         -4   -1    0    0    0  501 -0.00000000000E+00  0.00000000000E+00  0.10053613103E+04  0.10053613103E+04  0.00000000000E+00 0. -1.
         21   -1    0    0  501  502  0.00000000000E+00 -0.00000000000E+00 -0.31873333560E+03  0.31873333560E+03  0.00000000000E+00 0. -1.
   -9000010    2    1    2    0  502  0.15979359638E+03 -0.65044540098E+02  0.49103041210E+03  0.10632820632E+04  0.92719636253E+03 0.  0.
         13    1    3    3    0    0  0.23472434684E+03  0.40371958996E+03  0.21455368550E+03  0.51392443165E+03  0.10566000000E+00 0. -1.
         -4    1    3    3    0  502 -0.74930750458E+02 -0.46876413006E+03  0.27647672660E+03  0.54935763155E+03  0.00000000000E+00 0. -1.
        -13    1    1    2    0    0 -0.15979359638E+03  0.65044540098E+02  0.19559756264E+03  0.26081258274E+03  0.10566000000E+00 0.  1.
<mgrwt>
<rscale>  1 0.61678654E+03</rscale>
<asrwt>0</asrwt>
<pdfrwt beam="2">  1       21 0.49035898E-01 0.94311075E+03</pdfrwt>
<pdfrwt beam="1">  1       -4 0.15467097E+00 0.94311075E+03</pdfrwt>
<totfact> 0.43318112E+01</totfact>
</mgrwt>
</event>
<event>
 6    2  0.2345636E-005  0.1351988E+04  0.7818608E-02  0.9089289E-01
         21   -1    0    0  501  502  0.00000000000E+00  0.00000000000E+00  0.12137757820E+04  0.12137757820E+04  0.00000000000E+00 0. -1.
         -4   -1    0    0    0  501 -0.00000000000E+00 -0.00000000000E+00 -0.14664227588E+04  0.14664227588E+04  0.00000000000E+00 0. -1.
   -9000010    2    1    2    0  502 -0.79946868815E+03 -0.45138633228E+03  0.55109585003E+03  0.14599926782E+04  0.99245764655E+03 0.  0.
         13    1    3    3    0    0 -0.57449261348E+03 -0.66866109791E+03  0.67593954494E+02  0.88414839289E+03  0.10566000000E+00 0. -1.
         -4    1    3    3    0  502 -0.22497607467E+03  0.21727476562E+03  0.48350189554E+03  0.57584428532E+03  0.00000000000E+00 0. -1.
        -13    1    1    2    0    0  0.79946868815E+03  0.45138633228E+03 -0.80374282680E+03  0.12202058626E+04  0.10566000000E+00 0.  1.
<mgrwt>
<rscale>  1 0.12273026E+04</rscale>
<asrwt>0</asrwt>
<pdfrwt beam="1">  1       21 0.18673474E+00 0.13519882E+04</pdfrwt>
<pdfrwt beam="2">  1       -4 0.22560350E+00 0.13519882E+04</pdfrwt>
<totfact> 0.47168730E-01</totfact>
</mgrwt>
</event>
<event>
 6    2  0.2345636E-005  0.1027619E+04  0.7818608E-02  0.9724025E-01
         21   -1    0    0  501  502  0.00000000000E+00  0.00000000000E+00  0.64519872558E+03  0.64519872558E+03  0.00000000000E+00 0. -1.
         -4   -1    0    0    0  501 -0.00000000000E+00 -0.00000000000E+00 -0.61630197516E+03  0.61630197516E+03  0.00000000000E+00 0. -1.
   -9000010    2    1    2    0  502 -0.52672738865E+02 -0.20978254169E+03 -0.55995105165E+02  0.10291437113E+04  0.10045985241E+04 0.  0.
         13    1    3    3    0    0 -0.51377235747E+02  0.38520299396E+03 -0.16857114456E+03  0.42360029373E+03  0.10566000000E+00 0. -1.
         -4    1    3    3    0  502 -0.12955031177E+01 -0.59498553565E+03  0.11257603940E+03  0.60554341761E+03  0.00000000000E+00 0. -1.
        -13    1    1    2    0    0  0.52672738865E+02  0.20978254169E+03  0.84891855584E+02  0.23235698941E+03  0.10566000000E+00 0.  1.
<mgrwt>
<rscale>  1 0.69604193E+03</rscale>
<asrwt>0</asrwt>
<pdfrwt beam="1">  1       21 0.99261343E-01 0.10276193E+04</pdfrwt>
<pdfrwt beam="2">  1       -4 0.94815688E-01 0.10276193E+04</pdfrwt>
<totfact> 0.29346004E+01</totfact>
</mgrwt>
</event>
<event>
 6    2  0.2345636E-005  0.1331671E+04  0.7818608E-02  0.9179809E-01
         -4   -1    0    0    0  501 -0.00000000000E+00  0.00000000000E+00  0.13507419785E+04  0.13507419785E+04  0.00000000000E+00 0. -1.
         21   -1    0    0  501  502  0.00000000000E+00 -0.00000000000E+00 -0.75832809550E+03  0.75832809550E+03  0.00000000000E+00 0.  1.
   -9000010    2    1    2    0  502 -0.63027162967E+03 -0.25988232443E+03  0.49355464548E+03  0.14201910500E+04  0.11439253825E+04 0.  0.
         13    1    3    3    0    0 -0.24647857100E+03 -0.46877841833E+03  0.74650207363E+03  0.91529790153E+03  0.10566000000E+00 0. -1.
         -4    1    3    3    0  502 -0.38379305867E+03  0.20889609390E+03 -0.25294742815E+03  0.50489314844E+03  0.00000000000E+00 0. -1.
        -13    1    1    2    0    0  0.63027162967E+03  0.25988232443E+03  0.98859237491E+02  0.68887902400E+03  0.10566000000E+00 0.  1.
<mgrwt>
<rscale>  1 0.11264287E+04</rscale>
<asrwt>0</asrwt>
<pdfrwt beam="2">  1       21 0.11666586E+00 0.13316705E+04</pdfrwt>
<pdfrwt beam="1">  1       -4 0.20780646E+00 0.13316705E+04</pdfrwt>
<totfact> 0.23125721E+00</totfact>
</mgrwt>
</event>
<event>
 6    2  0.2345636E-005  0.1014288E+04  0.7818608E-02  0.9790055E-01
         21   -1    0    0  501  502  0.00000000000E+00  0.00000000000E+00  0.13314660587E+04  0.13314660587E+04  0.00000000000E+00 0. -1.
         -4   -1    0    0    0  501 -0.00000000000E+00 -0.00000000000E+00 -0.32726575613E+03  0.32726575613E+03  0.00000000000E+00 0. -1.
   -9000010    2    1    2    0  502  0.11176412816E+03 -0.14202906373E+03  0.10624264014E+04  0.14688535248E+04  0.99805678372E+03 0.  0.
         13    1    3    3    0    0  0.13825851678E+03 -0.52121688047E+03  0.30036490974E+03  0.61725322528E+03  0.10566000000E+00 0. -1.
         -4    1    3    3    0  502 -0.26494388624E+02  0.37918781674E+03  0.76206149170E+03  0.85160029951E+03  0.00000000000E+00 0. -1.
        -13    1    1    2    0    0 -0.11176412816E+03  0.14202906373E+03 -0.58226098837E+02  0.18987829006E+03  0.10566000000E+00 0.  1.
<mgrwt>
<rscale>  1 0.65899010E+03</rscale>
<asrwt>0</asrwt>
<pdfrwt beam="1">  1       21 0.20484093E+00 0.10142883E+04</pdfrwt>
<pdfrwt beam="2">  1       -4 0.50348579E-01 0.10142883E+04</pdfrwt>
<totfact> 0.16249093E+01</totfact>
</mgrwt>
</event>
<event>
 6    2  0.2345636E-005  0.1025102E+04  0.7818608E-02  0.9717630E-01
         21   -1    0    0  501  502  0.00000000000E+00  0.00000000000E+00  0.46208462042E+03  0.46208462042E+03  0.00000000000E+00 0. -1.
         -4   -1    0    0    0  501 -0.00000000000E+00 -0.00000000000E+00 -0.95989917818E+03  0.95989917818E+03  0.00000000000E+00 0. -1.
   -9000010    2    1    2    0  502  0.13221957878E+02 -0.22220096675E+03 -0.19070617517E+03  0.10426901662E+04  0.10006427172E+04 0.  0.
         13    1    3    3    0    0 -0.48866477593E+03 -0.10783632468E+03 -0.21656876891E+02  0.50089017522E+03  0.10566000000E+00 0. -1.
         -4    1    3    3    0  502  0.50188673381E+03 -0.11436464207E+03 -0.16904929828E+03  0.54179999094E+03  0.00000000000E+00 0. -1.
        -13    1    1    2    0    0 -0.13221957878E+02  0.22220096675E+03 -0.30710838258E+03  0.37929363244E+03  0.10566000000E+00 0.  1.
<mgrwt>
<rscale>  1 0.69976733E+03</rscale>
<asrwt>0</asrwt>
<pdfrwt beam="1">  1       21 0.71089942E-01 0.10251019E+04</pdfrwt>
<pdfrwt beam="2">  1       -4 0.14767680E+00 0.10251019E+04</pdfrwt>
<totfact> 0.21324343E+01</totfact>
</mgrwt>
</event>
<event>
 6    2  0.2345636E-005  0.1056351E+04  0.7818608E-02  0.9548811E-01
         -4   -1    0    0    0  501 -0.00000000000E+00  0.00000000000E+00  0.69477386106E+03  0.69477386106E+03  0.00000000000E+00 0. -1.
         21   -1    0    0  501  502  0.00000000000E+00 -0.00000000000E+00 -0.72930771943E+03  0.72930771943E+03  0.00000000000E+00 0. -1.
   -9000010    2    1    2    0  502  0.35136506896E+03  0.83780062339E+02 -0.83107055036E+02  0.10596150153E+04  0.99267350501E+03 0.  0.
         13    1    3    3    0    0  0.57965952973E+03  0.15344215520E+03 -0.35578164119E+03  0.69723041584E+03  0.10566000000E+00 0. -1.
         -4    1    3    3    0  502 -0.22829446077E+03 -0.69662092865E+02  0.27267458615E+03  0.36238459947E+03  0.00000000000E+00 0. -1.
        -13    1    1    2    0    0 -0.35136506896E+03 -0.83780062339E+02  0.48573196663E+02  0.36446656517E+03  0.10566000000E+00 0.  1.
<mgrwt>
<rscale>  1 0.80778856E+03</rscale>
<asrwt>0</asrwt>
<pdfrwt beam="2">  1       21 0.11220119E+00 0.10563509E+04</pdfrwt>
<pdfrwt beam="1">  1       -4 0.10688829E+00 0.10563509E+04</pdfrwt>
<totfact> 0.16093214E+01</totfact>
</mgrwt>
</event>
<event>
 6    2  0.2345636E-005  0.1012824E+04  0.7818608E-02  0.9815329E-01
         -4   -1    0    0    0  501 -0.00000000000E+00  0.00000000000E+00  0.85597074342E+03  0.85597074342E+03  0.00000000000E+00 0. -1.
         21   -1    0    0  501  502  0.00000000000E+00 -0.00000000000E+00 -0.45175077906E+03  0.45175077906E+03  0.00000000000E+00 0. -1.
   -9000010    2    1    2    0  502  0.34879990120E+02 -0.16338293930E+03  0.18094186310E+03  0.10288600511E+04  0.99895067361E+03 0.  0.
         13    1    3    3    0    0 -0.25518325488E+03  0.68379094616E+02 -0.31386172675E+03  0.41024796019E+03  0.10566000000E+00 0. -1.
         -4    1    3    3    0  502  0.29006324500E+03 -0.23176203392E+03  0.49480358985E+03  0.61861209089E+03  0.00000000000E+00 0. -1.
        -13    1    1    2    0    0 -0.34879990120E+02  0.16338293930E+03  0.22327810126E+03  0.27886147140E+03  0.10566000000E+00 0.  1.
<mgrwt>
<rscale>  1 0.64546359E+03</rscale>
<asrwt>0</asrwt>
<pdfrwt beam="2">  1       21 0.69500120E-01 0.10128243E+04</pdfrwt>
<pdfrwt beam="1">  1       -4 0.13168781E+00 0.10128243E+04</pdfrwt>
<totfact> 0.30379061E+01</totfact>
</mgrwt>
</event>
<event>
 6    2  0.2345636E-005  0.1012091E+04  0.7818608E-02  0.9868567E-01
         -4   -1    0    0    0  501 -0.00000000000E+00  0.00000000000E+00  0.90057767543E+03  0.90057767543E+03  0.00000000000E+00 0. -1.
         21   -1    0    0  501  502  0.00000000000E+00 -0.00000000000E+00 -0.38859820749E+03  0.38859820749E+03  0.00000000000E+00 0. -1.
   -9000010    2    1    2    0  502  0.11675798227E+03 -0.78661351144E+02  0.34166116569E+03  0.10682044598E+04  0.10022516556E+04 0.  0.
         13    1    3    3    0    0 -0.33247536199E+03  0.28013042256E+03  0.18368618129E+03  0.47196773654E+03  0.10566000000E+00 0. -1.
         -4    1    3    3    0  502  0.44923334426E+03 -0.35879177370E+03  0.15797498440E+03  0.59623672326E+03  0.00000000000E+00 0. -1.
        -13    1    1    2    0    0 -0.11675798227E+03  0.78661351144E+02  0.17031830225E+03  0.22097142311E+03  0.10566000000E+00 0.  1.
<mgrwt>
<rscale>  1 0.61809153E+03</rscale>
<asrwt>0</asrwt>
<pdfrwt beam="2">  1       21 0.59784340E-01 0.10120911E+04</pdfrwt>
<pdfrwt beam="1">  1       -4 0.13855041E+00 0.10120911E+04</pdfrwt>
<totfact> 0.37412773E+01</totfact>
</mgrwt>
</event>
<event>
 6    2  0.2345636E-005  0.1048538E+04  0.7818608E-02  0.9579051E-01
         -4   -1    0    0    0  501 -0.00000000000E+00  0.00000000000E+00  0.41725780205E+03  0.41725780205E+03  0.00000000000E+00 0. -1.
         21   -1    0    0  501  502  0.00000000000E+00 -0.00000000000E+00 -0.11452654892E+04  0.11452654892E+04  0.00000000000E+00 0. -1.
   -9000010    2    1    2    0  502  0.12906483343E+02 -0.33249402184E+03 -0.58106452604E+03  0.11987772870E+04  0.99434005675E+03 0.  0.
         13    1    3    3    0    0  0.17823625377E+03 -0.29632068331E+03 -0.82920453642E+03  0.89841765560E+03  0.10566000000E+00 0. -1.
         -4    1    3    3    0  502 -0.16532977042E+03 -0.36173338526E+02  0.24814001038E+03  0.30035963137E+03  0.00000000000E+00 0. -1.
        -13    1    1    2    0    0 -0.12906483343E+02  0.33249402184E+03 -0.14694316113E+03  0.36374600429E+03  0.10566000000E+00 0.  1.
<mgrwt>
<rscale>  1 0.78698362E+03</rscale>
<asrwt>0</asrwt>
<pdfrwt beam="2">  1       21 0.17619469E+00 0.10485376E+04</pdfrwt>
<pdfrwt beam="1">  1       -4 0.64193508E-01 0.10485376E+04</pdfrwt>
<totfact> 0.15257228E+01</totfact>
</mgrwt>
</event>
<event>
 6    2  0.2345636E-005  0.1037133E+04  0.7818608E-02  0.9697292E-01
         -4   -1    0    0    0  501 -0.00000000000E+00  0.00000000000E+00  0.29450180618E+03  0.29450180618E+03  0.00000000000E+00 0. -1.
         21   -1    0    0  501  502  0.00000000000E+00 -0.00000000000E+00 -0.14026159179E+04  0.14026159179E+04  0.00000000000E+00 0. -1.
   -9000010    2    1    2    0  502  0.53749052718E+02  0.22371804319E+03 -0.10077385559E+04  0.14460918551E+04  0.10112892429E+04 0.  0.
         13    1    3    3    0    0 -0.14161935346E+02  0.20551076393E+03 -0.12123555369E+04  0.12297321633E+04  0.10566000000E+00 0. -1.
         -4    1    3    3    0  502  0.67910988064E+02  0.18207279258E+02  0.20461698099E+03  0.21635969178E+03  0.00000000000E+00 0. -1.
        -13    1    1    2    0    0 -0.53749052718E+02 -0.22371804319E+03 -0.10037555578E+03  0.25102586895E+03  0.10566000000E+00 0.  1.
<mgrwt>
<rscale>  1 0.71178282E+03</rscale>
<asrwt>0</asrwt>
<pdfrwt beam="2">  1       21 0.21578707E+00 0.10371329E+04</pdfrwt>
<pdfrwt beam="1">  1       -4 0.45307970E-01 0.10371329E+04</pdfrwt>
<totfact> 0.17056380E+01</totfact>
</mgrwt>
</event>
<event>
 6    2  0.2345636E-005  0.1027611E+04  0.7818608E-02  0.9653884E-01
         21   -1    0    0  501  502  0.00000000000E+00  0.00000000000E+00  0.88019385162E+03  0.88019385162E+03  0.00000000000E+00 0. -1.
         -4   -1    0    0    0  501 -0.00000000000E+00 -0.00000000000E+00 -0.68641728110E+03  0.68641728110E+03  0.00000000000E+00 0. -1.
   -9000010    2    1    2    0  502 -0.27233891620E+03  0.28342010382E+02  0.51092439443E+03  0.11476188796E+04  0.99046130722E+03 0.  0.
         13    1    3    3    0    0  0.30700358000E+03  0.23855616931E+03  0.31663992696E+03  0.50141908475E+03  0.10566000000E+00 0. -1.
         -4    1    3    3    0  502 -0.57934249620E+03 -0.21021415893E+03  0.19428446747E+03  0.64619979481E+03  0.00000000000E+00 0. -1.
        -13    1    1    2    0    0  0.27233891620E+03 -0.28342010382E+02 -0.31714782390E+03  0.41899225315E+03  0.10566000000E+00 0.  1.
<mgrwt>
<rscale>  1 0.73830180E+03</rscale>
<asrwt>0</asrwt>
<pdfrwt beam="1">  1       21 0.13541444E+00 0.10276115E+04</pdfrwt>
<pdfrwt beam="2">  1       -4 0.10560266E+00 0.10276115E+04</pdfrwt>
<totfact> 0.10164291E+01</totfact>
</mgrwt>
</event>
<event>
 6    2  0.2345636E-005  0.1168692E+04  0.7818608E-02  0.9302270E-01
         -4   -1    0    0    0  501 -0.00000000000E+00  0.00000000000E+00  0.12333644107E+04  0.12333644107E+04  0.00000000000E+00 0. -1.
         21   -1    0    0  501  502  0.00000000000E+00 -0.00000000000E+00 -0.10603818891E+04  0.10603818891E+04  0.00000000000E+00 0.  1.
   -9000010    2    1    2    0  502  0.48418319088E+03  0.42002781410E+03  0.78471736654E+03  0.14077010082E+04  0.97723285671E+03 0.  0.
         13    1    3    3    0    0  0.33674738306E+02  0.65227445209E+03  0.52615250935E+03  0.83870878325E+03  0.10566000000E+00 0. -1.
         -4    1    3    3    0  502  0.45050845258E+03 -0.23224663799E+03  0.25856485719E+03  0.56899222497E+03  0.00000000000E+00 0. -1.
        -13    1    1    2    0    0 -0.48418319088E+03 -0.42002781410E+03 -0.61173484495E+03  0.88604529153E+03  0.10566000000E+00 0.  1.
<mgrwt>
<rscale>  1 0.10057415E+04</rscale>
<asrwt>0</asrwt>
<pdfrwt beam="2">  1       21 0.16313567E+00 0.11686919E+04</pdfrwt>
<pdfrwt beam="1">  1       -4 0.18974837E+00 0.11686919E+04</pdfrwt>
<totfact> 0.12468813E+00</totfact>
</mgrwt>
</event>
<event>
 6    2  0.2345636E-005  0.1001288E+04  0.7818608E-02  0.1021169E+00
         -4   -1    0    0    0  501 -0.00000000000E+00  0.00000000000E+00  0.39134917242E+03  0.39134917242E+03  0.00000000000E+00 0. -1.
         21   -1    0    0  501  502  0.00000000000E+00 -0.00000000000E+00 -0.71218523599E+03  0.71218523599E+03  0.00000000000E+00 0. -1.
   -9000010    2    1    2    0  502 -0.18845945532E+01  0.49686621017E+02 -0.32722919138E+03  0.10534026295E+04  0.10000529207E+04 0.  0.
         13    1    3    3    0    0 -0.39755709770E+03 -0.27234165822E+03 -0.87683685582E+02  0.48980615003E+03  0.10566000000E+00 0. -1.
         -4    1    3    3    0  502  0.39567250314E+03  0.32202827924E+03 -0.23954550580E+03  0.56359647951E+03  0.00000000000E+00 0. -1.
        -13    1    1    2    0    0  0.18845945532E+01 -0.49686621017E+02  0.63931278094E+01  0.50131778863E+02  0.10566000000E+00 0.  1.
<mgrwt>
<rscale>  1 0.47266941E+03</rscale>
<asrwt>0</asrwt>
<pdfrwt beam="2">  1       21 0.10956696E+00 0.10012882E+04</pdfrwt>
<pdfrwt beam="1">  1       -4 0.60207565E-01 0.10012882E+04</pdfrwt>
<totfact> 0.64505543E+01</totfact>
</mgrwt>
</event>
<event>
 6    2  0.2345636E-005  0.1071755E+04  0.7818608E-02  0.9545249E-01
         -4   -1    0    0    0  501 -0.00000000000E+00  0.00000000000E+00  0.30508582209E+04  0.30508582209E+04  0.00000000000E+00 0. -1.
         21   -1    0    0  501  502  0.00000000000E+00 -0.00000000000E+00 -0.22697911848E+03  0.22697911848E+03  0.00000000000E+00 0. -1.
   -9000010    2    1    2    0  502 -0.56523257245E+02 -0.34556431138E+03  0.11674502259E+04  0.15848027249E+04  0.10129412988E+04 0.  0.
         13    1    3    3    0    0 -0.25234420015E+03 -0.56418041333E+03  0.33686007733E+03  0.70388341151E+03  0.10566000000E+00 0. -1.
         -4    1    3    3    0  502  0.19582094291E+03  0.21861610195E+03  0.83059014860E+03  0.88091931337E+03  0.00000000000E+00 0. -1.
        -13    1    1    2    0    0  0.56523257245E+02  0.34556431138E+03  0.16564288764E+04  0.16930346145E+04  0.10566000000E+00 0.  1.
<mgrwt>
<rscale>  1 0.81028409E+03</rscale>
<asrwt>0</asrwt>
<pdfrwt beam="2">  1       21 0.34919867E-01 0.10717554E+04</pdfrwt>
<pdfrwt beam="1">  1       -4 0.46936277E+00 0.10717554E+04</pdfrwt>
<totfact> 0.68752505E-01</totfact>
</mgrwt>
</event>
<event>
 6    2  0.2345636E-005  0.1043834E+04  0.7818608E-02  0.9614511E-01
         -4   -1    0    0    0  501 -0.00000000000E+00  0.00000000000E+00  0.48656962150E+03  0.48656962150E+03  0.00000000000E+00 0. -1.
         21   -1    0    0  501  502  0.00000000000E+00 -0.00000000000E+00 -0.15721082522E+04  0.15721082522E+04  0.00000000000E+00 0. -1.
   -9000010    2    1    2    0  502 -0.28465730912E+03 -0.90399391819E+02 -0.13172299866E+04  0.16806795545E+04  0.10001935281E+04 0.  0.
         13    1    3    3    0    0  0.41757832871E+02 -0.20501473483E+03 -0.13182246474E+04  0.13347250617E+04  0.10566000000E+00 0. -1.
         -4    1    3    3    0  502 -0.32641514199E+03  0.11461534301E+03  0.99466080114E+00  0.34595449285E+03  0.00000000000E+00 0. -1.
        -13    1    1    2    0    0  0.28465730912E+03  0.90399391819E+02  0.23169135595E+03  0.37799831913E+03  0.10566000000E+00 0.  1.
<mgrwt>
<rscale>  1 0.76343178E+03</rscale>
<asrwt>0</asrwt>
<pdfrwt beam="2">  1       21 0.24186281E+00 0.10438338E+04</pdfrwt>
<pdfrwt beam="1">  1       -4 0.74856865E-01 0.10438338E+04</pdfrwt>
<totfact> 0.38725701E+00</totfact>
</mgrwt>
</event>
<event>
 6    2  0.2345636E-005  0.1012585E+04  0.7818608E-02  0.9842519E-01
         -4   -1    0    0    0  501 -0.00000000000E+00  0.00000000000E+00  0.57293580220E+03  0.57293580220E+03  0.00000000000E+00 0. -1.
         21   -1    0    0  501  502  0.00000000000E+00 -0.00000000000E+00 -0.59676629613E+03  0.59676629613E+03  0.00000000000E+00 0. -1.
   -9000010    2    1    2    0  502 -0.48814632399E+02 -0.14498576924E+03  0.11677196549E+02  0.10126525875E+04  0.10009621193E+04 0.  0.
         13    1    3    3    0    0 -0.20574628938E+03 -0.37559619507E+03 -0.35197558608E+03  0.55433821960E+03  0.10566000000E+00 0. -1.
         -4    1    3    3    0  502  0.15693165698E+03  0.23061042583E+03  0.36365278263E+03  0.45831436786E+03  0.00000000000E+00 0. -1.
        -13    1    1    2    0    0  0.48814632399E+02  0.14498576924E+03 -0.35507690482E+02  0.15704951087E+03  0.10566000000E+00 0.  1.
<mgrwt>
<rscale>  1 0.63129804E+03</rscale>
<asrwt>0</asrwt>
<pdfrwt beam="2">  1       21 0.91810199E-01 0.10125853E+04</pdfrwt>
<pdfrwt beam="1">  1       -4 0.88143970E-01 0.10125853E+04</pdfrwt>
<totfact> 0.42258234E+01</totfact>
</mgrwt>
</event>
<event>
 6    2  0.2345636E-005  0.1047280E+04  0.7818608E-02  0.9588891E-01
         21   -1    0    0  501  502  0.00000000000E+00  0.00000000000E+00  0.42729980700E+03  0.42729980700E+03  0.00000000000E+00 0. -1.
         -4   -1    0    0    0  501 -0.00000000000E+00 -0.00000000000E+00 -0.11718707435E+04  0.11718707435E+04  0.00000000000E+00 0. -1.
   -9000010    2    1    2    0  502 -0.17443163613E+03  0.27166154458E+03 -0.38467565348E+03  0.11156925092E+04  0.99627708308E+03 0.  0.
         13    1    3    3    0    0 -0.54039448186E+03  0.33088670042E+03 -0.85671180377E+02  0.63941517565E+03  0.10566000000E+00 0. -1.
         -4    1    3    3    0  502  0.36596284573E+03 -0.59225155844E+02 -0.29900447310E+03  0.47627733357E+03  0.00000000000E+00 0. -1.
        -13    1    1    2    0    0  0.17443163613E+03 -0.27166154458E+03 -0.35989528298E+03  0.48347804124E+03  0.10566000000E+00 0.  1.
<mgrwt>
<rscale>  1 0.78035853E+03</rscale>
<asrwt>0</asrwt>
<pdfrwt beam="1">  1       21 0.65738432E-01 0.10472795E+04</pdfrwt>
<pdfrwt beam="2">  1       -4 0.18028781E+00 0.10472795E+04</pdfrwt>
<totfact> 0.14615550E+01</totfact>
</mgrwt>
</event>
<event>
 6    2  0.2345636E-005  0.1014693E+04  0.7818608E-02  0.9898619E-01
         21   -1    0    0  501  502  0.00000000000E+00  0.00000000000E+00  0.58147207668E+03  0.58147207668E+03  0.00000000000E+00 0. -1.
         -4   -1    0    0    0  501 -0.00000000000E+00 -0.00000000000E+00 -0.56021561470E+03  0.56021561470E+03  0.00000000000E+00 0. -1.
   -9000010    2    1    2    0  502  0.47821452097E+02 -0.11742393469E+03  0.17504892693E+02  0.10148438616E+04  0.10067404683E+04 0.  0.
         13    1    3    3    0    0  0.41706622807E+03 -0.35367379321E+03 -0.11110989373E+03  0.55800968652E+03  0.10566000000E+00 0. -1.
         -4    1    3    3    0  502 -0.36924477597E+03  0.23624985852E+03  0.12861478643E+03  0.45683417508E+03  0.00000000000E+00 0. -1.
        -13    1    1    2    0    0 -0.47821452097E+02  0.11742393469E+03  0.37515692835E+01  0.12684382978E+03  0.10566000000E+00 0.  1.
<mgrwt>
<rscale>  1 0.60328266E+03</rscale>
<asrwt>0</asrwt>
<pdfrwt beam="1">  1       21 0.89457242E-01 0.10146929E+04</pdfrwt>
<pdfrwt beam="2">  1       -4 0.86187018E-01 0.10146929E+04</pdfrwt>
<totfact> 0.47413266E+01</totfact>
</mgrwt>
</event>
<event>
 6    2  0.2345636E-005  0.1042912E+04  0.7818608E-02  0.9743817E-01
         21   -1    0    0  501  502  0.00000000000E+00  0.00000000000E+00  0.80001226885E+03  0.80001226885E+03  0.00000000000E+00 0. -1.
         -4   -1    0    0    0  501 -0.00000000000E+00 -0.00000000000E+00 -0.59359114544E+03  0.59359114544E+03  0.00000000000E+00 0. -1.
   -9000010    2    1    2    0  502  0.14950279143E+03  0.12319468484E+03  0.40257563905E+03  0.11179140598E+04  0.10247617698E+04 0.  0.
         13    1    3    3    0    0  0.51564960316E+03  0.21449241630E+03 -0.10292372527E+02  0.55857627409E+03  0.10566000000E+00 0. -1.
         -4    1    3    3    0  502 -0.36614681173E+03 -0.91297731459E+02  0.41286801158E+03  0.55933778568E+03  0.00000000000E+00 0. -1.
        -13    1    1    2    0    0 -0.14950279143E+03 -0.12319468484E+03 -0.19615451565E+03  0.27568935451E+03  0.10566000000E+00 0.  1.
<mgrwt>
<rscale>  1 0.68466811E+03</rscale>
<asrwt>0</asrwt>
<pdfrwt beam="1">  1       21 0.12307881E+00 0.10429116E+04</pdfrwt>
<pdfrwt beam="2">  1       -4 0.91321715E-01 0.10429116E+04</pdfrwt>
<totfact> 0.18537351E+01</totfact>
</mgrwt>
</event>
<event>
 6    2  0.2345636E-005  0.9919443E+03  0.7818608E-02  0.1011895E+00
         -4   -1    0    0    0  501 -0.00000000000E+00  0.00000000000E+00  0.43369234629E+03  0.43369234629E+03  0.00000000000E+00 0. -1.
         21   -1    0    0  501  502  0.00000000000E+00 -0.00000000000E+00 -0.65237559393E+03  0.65237559393E+03  0.00000000000E+00 0. -1.
   -9000010    2    1    2    0  502  0.67306858890E+02  0.85660496190E+01 -0.22735594175E+03  0.10176660598E+04  0.98962108634E+03 0.  0.
         13    1    3    3    0    0  0.36411147615E+03 -0.19538931884E+03 -0.43661665193E+03  0.60115577423E+03  0.10566000000E+00 0. -1.
         -4    1    3    3    0  502 -0.29680461726E+03  0.20395536846E+03  0.20926071018E+03  0.41651028556E+03  0.00000000000E+00 0. -1.
        -13    1    1    2    0    0 -0.67306858890E+02 -0.85660496190E+01  0.86726941167E+01  0.68401880434E+02  0.10566000000E+00 0.  1.
<mgrwt>
<rscale>  1 0.50728577E+03</rscale>
<asrwt>0</asrwt>
<pdfrwt beam="2">  1       21 0.10036548E+00 0.99194430E+03</pdfrwt>
<pdfrwt beam="1">  1       -4 0.66721900E-01 0.99194430E+03</pdfrwt>
<totfact> 0.64188478E+01</totfact>
</mgrwt>
</event>
<event>
 6    2  0.2345636E-005  0.1330824E+04  0.7818608E-02  0.9126964E-01
         -4   -1    0    0    0  501 -0.00000000000E+00  0.00000000000E+00  0.24827118355E+04  0.24827118355E+04  0.00000000000E+00 0. -1.
         21   -1    0    0  501  502  0.00000000000E+00 -0.00000000000E+00 -0.47606851985E+03  0.47606851985E+03  0.00000000000E+00 0.  1.
   -9000010    2    1    2    0  502 -0.78650084363E+03 -0.27686826446E+03  0.10956938859E+04  0.17238437223E+04  0.10372330859E+04 0.  0.
         13    1    3    3    0    0 -0.99371759323E+03 -0.41929043288E+03  0.86430736881E+03  0.13821383292E+04  0.10566000000E+00 0. -1.
         -4    1    3    3    0  502  0.20721674960E+03  0.14242216842E+03  0.23138651713E+03  0.34170539311E+03  0.00000000000E+00 0. -1.
        -13    1    1    2    0    0  0.78650084363E+03  0.27686826446E+03  0.91094942968E+03  0.12349366330E+04  0.10566000000E+00 0.  1.
<mgrwt>
<rscale>  1 0.11840151E+04</rscale>
<asrwt>0</asrwt>
<pdfrwt beam="2">  1       21 0.73241312E-01 0.13308238E+04</pdfrwt>
<pdfrwt beam="1">  1       -4 0.38195566E+00 0.13308238E+04</pdfrwt>
<totfact> 0.56169185E-01</totfact>
</mgrwt>
</event>
<event>
 6    2  0.2345636E-005  0.1031722E+04  0.7818608E-02  0.9643344E-01
         -4   -1    0    0    0  501 -0.00000000000E+00  0.00000000000E+00  0.15927195517E+04  0.15927195517E+04  0.00000000000E+00 0. -1.
         21   -1    0    0  501  502  0.00000000000E+00 -0.00000000000E+00 -0.27497378387E+03  0.27497378387E+03  0.00000000000E+00 0.  1.
   -9000010    2    1    2    0  502  0.22688668069E+03  0.16474768010E+03  0.92873717805E+03  0.13881653822E+04  0.99289023486E+03 0.  0.
         13    1    3    3    0    0  0.61447114418E+03  0.85945540651E+02  0.44613703381E+03  0.76419872225E+03  0.10566000000E+00 0. -1.
         -4    1    3    3    0  502 -0.38758446349E+03  0.78802139453E+02  0.48260014424E+03  0.62396665996E+03  0.00000000000E+00 0. -1.
        -13    1    1    2    0    0 -0.22688668069E+03 -0.16474768010E+03  0.38900858976E+03  0.47952795335E+03  0.10566000000E+00 0.  1.
<mgrwt>
<rscale>  1 0.74492617E+03</rscale>
<asrwt>0</asrwt>
<pdfrwt beam="2">  1       21 0.42303660E-01 0.10317220E+04</pdfrwt>
<pdfrwt beam="1">  1       -4 0.24503377E+00 0.10317220E+04</pdfrwt>
<totfact> 0.14538990E+01</totfact>
</mgrwt>
</event>
<event>
 6    2  0.2345636E-005  0.1019307E+04  0.7818608E-02  0.9728387E-01
         21   -1    0    0  501  502  0.00000000000E+00  0.00000000000E+00  0.18635800688E+04  0.18635800688E+04  0.00000000000E+00 0. -1.
         -4   -1    0    0    0  501 -0.00000000000E+00 -0.00000000000E+00 -0.22001471811E+03  0.22001471811E+03  0.00000000000E+00 0. -1.
   -9000010    2    1    2    0  502 -0.21064885048E+03 -0.57774603696E+02  0.15271632100E+04  0.18360865799E+04  0.99562825180E+03 0.  0.
         13    1    3    3    0    0 -0.24559613853E+03 -0.46949911380E+03  0.11905248596E+04  0.13031102538E+04  0.10566000000E+00 0. -1.
         -4    1    3    3    0  502  0.34947288052E+02  0.41172451011E+03  0.33663835035E+03  0.53297632602E+03  0.00000000000E+00 0. -1.
        -13    1    1    2    0    0  0.21064885048E+03  0.57774603696E+02  0.11640214075E+03  0.24750820709E+03  0.10566000000E+00 0.  1.
<mgrwt>
<rscale>  1 0.69351500E+03</rscale>
<asrwt>0</asrwt>
<pdfrwt beam="1">  1       21 0.28670462E+00 0.10193069E+04</pdfrwt>
<pdfrwt beam="2">  1       -4 0.33848419E-01 0.10193069E+04</pdfrwt>
<totfact> 0.10908047E+01</totfact>
</mgrwt>
</event>
<event>
 6    2  0.2345636E-005  0.9986394E+03  0.7818608E-02  0.9707872E-01
         -4   -1    0    0    0  501 -0.00000000000E+00  0.00000000000E+00  0.69453525015E+03  0.69453525015E+03  0.00000000000E+00 0. -1.
         21   -1    0    0  501  502  0.00000000000E+00 -0.00000000000E+00 -0.58632742159E+03  0.58632742159E+03  0.00000000000E+00 0. -1.
   -9000010    2    1    2    0  502 -0.13111070905E+03 -0.21139208078E+03 -0.24473011255E+02  0.99893919584E+03  0.96716283989E+03 0.  0.
         13    1    3    3    0    0 -0.52396041739E+03  0.50664727005E+02 -0.12061377181E+02  0.52654242140E+03  0.10566000000E+00 0. -1.
         -4    1    3    3    0  502  0.39284970833E+03 -0.26205680778E+03 -0.12411634075E+02  0.47239677444E+03  0.00000000000E+00 0. -1.
        -13    1    1    2    0    0  0.13111070905E+03  0.21139208078E+03  0.13268083982E+03  0.28192347590E+03  0.10566000000E+00 0.  1.
<mgrwt>
<rscale>  1 0.70550054E+03</rscale>
<asrwt>0</asrwt>
<pdfrwt beam="2">  1       21 0.90204218E-01 0.99863937E+03</pdfrwt>
<pdfrwt beam="1">  1       -4 0.10685158E+00 0.99863937E+03</pdfrwt>
<totfact> 0.27847749E+01</totfact>
</mgrwt>
</event>
<event>
 6    2  0.2345636E-005  0.1015705E+04  0.7818608E-02  0.9762069E-01
         21   -1    0    0  501  502  0.00000000000E+00  0.00000000000E+00  0.61386469317E+03  0.61386469317E+03  0.00000000000E+00 0. -1.
         -4   -1    0    0    0  501 -0.00000000000E+00 -0.00000000000E+00 -0.60066686222E+03  0.60066686222E+03  0.00000000000E+00 0. -1.
   -9000010    2    1    2    0  502  0.27035734840E+02  0.19553077804E+03 -0.10218875705E+02  0.10157563823E+04  0.99633999551E+03 0.  0.
         13    1    3    3    0    0 -0.89994168440E+01  0.32151191711E+03  0.44103685078E+03  0.54586117032E+03  0.10566000000E+00 0. -1.
         -4    1    3    3    0  502  0.36035151684E+02 -0.12598113907E+03 -0.45125572649E+03  0.46989521198E+03  0.00000000000E+00 0. -1.
        -13    1    1    2    0    0 -0.27035734840E+02 -0.19553077804E+03  0.23416706656E+02  0.19877517309E+03  0.10566000000E+00 0.  1.
<mgrwt>
<rscale>  1 0.67438454E+03</rscale>
<asrwt>0</asrwt>
<pdfrwt beam="1">  1       21 0.94440722E-01 0.10157050E+04</pdfrwt>
<pdfrwt beam="2">  1       -4 0.92410286E-01 0.10157050E+04</pdfrwt>
<totfact> 0.35286073E+01</totfact>
</mgrwt>
</event>
<event>
 6    2  0.2345636E-005  0.9977235E+03  0.7818608E-02  0.1017013E+00
         21   -1    0    0  501  502  0.00000000000E+00  0.00000000000E+00  0.16870970157E+04  0.16870970157E+04  0.00000000000E+00 0. -1.
         -4   -1    0    0    0  501 -0.00000000000E+00 -0.00000000000E+00 -0.20393055850E+03  0.20393055850E+03  0.00000000000E+00 0. -1.
   -9000010    2    1    2    0  502  0.21973197245E+02 -0.52603362986E+02  0.15235471342E+04  0.18211666736E+04  0.99609349354E+03 0.  0.
         13    1    3    3    0    0 -0.61944560281E+02 -0.45893266632E+02 -0.13768708062E+03  0.15780070914E+03  0.10566000000E+00 0. -1.
         -4    1    3    3    0  502  0.83917757526E+02 -0.67100963541E+01  0.16612342148E+04  0.16633659645E+04  0.00000000000E+00 0. -1.
        -13    1    1    2    0    0 -0.21973197245E+02  0.52603362986E+02 -0.40380676963E+02  0.69860900585E+02  0.10566000000E+00 0.  1.
<mgrwt>
<rscale>  1 0.48780043E+03</rscale>
<asrwt>0</asrwt>
<pdfrwt beam="1">  1       21 0.25955338E+00 0.99772350E+03</pdfrwt>
<pdfrwt beam="2">  1       -4 0.31373933E-01 0.99772350E+03</pdfrwt>
<totfact> 0.18810695E+01</totfact>
</mgrwt>
</event>
<event>
 6    2  0.2345636E-005  0.9222071E+03  0.7818608E-02  0.1042922E+00
         -4   -1    0    0    0  501 -0.00000000000E+00  0.00000000000E+00  0.53746331340E+03  0.53746331340E+03  0.00000000000E+00 0. -1.
         21   -1    0    0  501  502  0.00000000000E+00 -0.00000000000E+00 -0.45197410162E+03  0.45197410162E+03  0.00000000000E+00 0. -1.
   -9000010    2    1    2    0  502  0.14838776640E+02 -0.29989349999E+02  0.27655085128E+02  0.92262164013E+03  0.92159987885E+03 0.  0.
         13    1    3    3    0    0 -0.47244904491E+02  0.41283599842E+03  0.17633172172E+03  0.45139620052E+03  0.10566000000E+00 0. -1.
         -4    1    3    3    0  502  0.62083681131E+02 -0.44282534842E+03 -0.14867663660E+03  0.47122543961E+03  0.00000000000E+00 0. -1.
        -13    1    1    2    0    0 -0.14838776640E+02  0.29989349999E+02  0.57834126652E+02  0.66815774898E+02  0.10566000000E+00 0.  1.
<mgrwt>
<rscale>  1 0.40248744E+03</rscale>
<asrwt>0</asrwt>
<pdfrwt beam="2">  1       21 0.69534477E-01 0.92220707E+03</pdfrwt>
<pdfrwt beam="1">  1       -4 0.82686664E-01 0.92220707E+03</pdfrwt>
<totfact> 0.94938949E+01</totfact>
</mgrwt>
</event>
<event>
 6    2  0.2345636E-005  0.1014526E+04  0.7818608E-02  0.9682885E-01
         -4   -1    0    0    0  501 -0.00000000000E+00  0.00000000000E+00  0.14726825058E+04  0.14726825058E+04  0.00000000000E+00 0. -1.
         21   -1    0    0  501  502  0.00000000000E+00 -0.00000000000E+00 -0.34727662959E+03  0.34727662959E+03  0.00000000000E+00 0. -1.
   -9000010    2    1    2    0  502  0.24856017061E+03 -0.69166060188E+02  0.47493817966E+03  0.11201917900E+04  0.98117137623E+03 0.  0.
         13    1    3    3    0    0  0.42892553870E+03 -0.43223078650E+03  0.29583312105E+03  0.67699174088E+03  0.10566000000E+00 0. -1.
         -4    1    3    3    0  502 -0.18036536809E+03  0.36306472631E+03  0.17910505861E+03  0.44320004909E+03  0.00000000000E+00 0. -1.
        -13    1    1    2    0    0 -0.24856017061E+03  0.69166060188E+02  0.65046769654E+03  0.69976734540E+03  0.10566000000E+00 0.  1.
<mgrwt>
<rscale>  1 0.72045041E+03</rscale>
<asrwt>0</asrwt>
<pdfrwt beam="2">  1       21 0.53427175E-01 0.10145262E+04</pdfrwt>
<pdfrwt beam="1">  1       -4 0.22656654E+00 0.10145262E+04</pdfrwt>
<totfact> 0.11516869E+01</totfact>
</mgrwt>
</event>
<event>
 6    2  0.2345636E-005  0.1045762E+04  0.7818608E-02  0.9633732E-01
         21   -1    0    0  501  502  0.00000000000E+00  0.00000000000E+00  0.10168224361E+04  0.10168224361E+04  0.00000000000E+00 0. -1.
         -4   -1    0    0    0  501 -0.00000000000E+00 -0.00000000000E+00 -0.72984082911E+03  0.72984082911E+03  0.00000000000E+00 0. -1.
   -9000010    2    1    2    0  502  0.13585112529E+03  0.24275953238E+03  0.69296144399E+03  0.12545175978E+04  0.10080828942E+04 0.  0.
         13    1    3    3    0    0 -0.12314525522E+03  0.54813464654E+03  0.63841082945E+03  0.85040269458E+03  0.10566000000E+00 0. -1.
         -4    1    3    3    0  502  0.25899638051E+03 -0.30537511416E+03  0.54550614539E+02  0.40411490323E+03  0.00000000000E+00 0. -1.
        -13    1    1    2    0    0 -0.13585112529E+03 -0.24275953238E+03 -0.40597983696E+03  0.49214566745E+03  0.10566000000E+00 0.  1.
<mgrwt>
<rscale>  1 0.75103255E+03</rscale>
<asrwt>0</asrwt>
<pdfrwt beam="1">  1       21 0.15643422E+00 0.10457623E+04</pdfrwt>
<pdfrwt beam="2">  1       -4 0.11228320E+00 0.10457623E+04</pdfrwt>
<totfact> 0.58544619E+00</totfact>
</mgrwt>
</event>
<event>
 6    2  0.2345636E-005  0.1020514E+04  0.7818608E-02  0.9633781E-01
         -4   -1    0    0    0  501 -0.00000000000E+00  0.00000000000E+00  0.35676633755E+03  0.35676633755E+03  0.00000000000E+00 0. -1.
         21   -1    0    0  501  502  0.00000000000E+00 -0.00000000000E+00 -0.12234132920E+04  0.12234132920E+04  0.00000000000E+00 0.  1.
   -9000010    2    1    2    0  502  0.20814928428E+03 -0.21506710377E+03 -0.70119254545E+03  0.12381925592E+04  0.97563817279E+03 0.  0.
         13    1    3    3    0    0 -0.14748306724E+03  0.28349104103E+03 -0.17076971088E+02  0.32001571770E+03  0.10566000000E+00 0. -1.
         -4    1    3    3    0  502  0.35563235153E+03 -0.49855814480E+03 -0.68411557436E+03  0.91817684151E+03  0.00000000000E+00 0. -1.
        -13    1    1    2    0    0 -0.20814928428E+03  0.21506710377E+03 -0.16545440904E+03  0.34198707038E+03  0.10566000000E+00 0.  1.
<mgrwt>
<rscale>  1 0.75100143E+03</rscale>
<asrwt>0</asrwt>
<pdfrwt beam="2">  1       21 0.18821742E+00 0.10205145E+04</pdfrwt>
<pdfrwt beam="1">  1       -4 0.54887131E-01 0.10205145E+04</pdfrwt>
<totfact> 0.17623577E+01</totfact>
</mgrwt>
</event>
<event>
 6    2  0.2345636E-005  0.9381544E+03  0.7818608E-02  0.9893151E-01
         21   -1    0    0  501  502  0.00000000000E+00  0.00000000000E+00  0.57595965953E+03  0.57595965953E+03  0.00000000000E+00 0. -1.
         -4   -1    0    0    0  501 -0.00000000000E+00 -0.00000000000E+00 -0.83503389246E+03  0.83503389246E+03  0.00000000000E+00 0. -1.
   -9000010    2    1    2    0  502 -0.14724228779E+03 -0.70545625227E+02  0.16862695585E+03  0.95318868679E+03  0.92383799761E+03 0.  0.
         13    1    3    3    0    0 -0.31488748662E+03  0.28155300772E+03  0.32506956819E+03  0.53300699874E+03  0.10566000000E+00 0. -1.
         -4    1    3    3    0  502  0.16764519883E+03 -0.35209863294E+03 -0.15644261234E+03  0.42018168804E+03  0.00000000000E+00 0. -1.
        -13    1    1    2    0    0  0.14724228779E+03  0.70545625227E+02 -0.42770118878E+03  0.45780486520E+03  0.10566000000E+00 0.  1.
<mgrwt>
<rscale>  1 0.60594348E+03</rscale>
<asrwt>0</asrwt>
<pdfrwt beam="1">  1       21 0.88609178E-01 0.93815437E+03</pdfrwt>
<pdfrwt beam="2">  1       -4 0.12846675E+00 0.93815437E+03</pdfrwt>
<totfact> 0.18455359E+01</totfact>
</mgrwt>
</event>
<event>
 6    2  0.2345636E-005  0.1014184E+04  0.7818608E-02  0.9782420E-01
         -4   -1    0    0    0  501 -0.00000000000E+00  0.00000000000E+00  0.24175195210E+04  0.24175195210E+04  0.00000000000E+00 0. -1.
         21   -1    0    0  501  502  0.00000000000E+00 -0.00000000000E+00 -0.15144830429E+03  0.15144830429E+03  0.00000000000E+00 0. -1.
   -9000010    2    1    2    0  502  0.17814192265E+03  0.51330353403E+02  0.17786036430E+04  0.20474373887E+04  0.99709557801E+03 0.  0.
         13    1    3    3    0    0  0.28104490489E+03 -0.42529578191E+03  0.10939740065E+04  0.12069141970E+04  0.10566000000E+00 0. -1.
         -4    1    3    3    0  502 -0.10290298224E+03  0.47662613531E+03  0.68462963650E+03  0.84052319170E+03  0.00000000000E+00 0. -1.
        -13    1    1    2    0    0 -0.17814192265E+03 -0.51330353403E+02  0.48746757370E+03  0.52153043666E+03  0.10566000000E+00 0.  1.
<mgrwt>
<rscale>  1 0.66314570E+03</rscale>
<asrwt>0</asrwt>
<pdfrwt beam="2">  1       21 0.23299741E-01 0.10141839E+04</pdfrwt>
<pdfrwt beam="1">  1       -4 0.37192605E+00 0.10141839E+04</pdfrwt>
<totfact> 0.77768642E+00</totfact>
</mgrwt>
</event>
<event>
 6    2  0.2345636E-005  0.9910818E+03  0.7818608E-02  0.9765500E-01
         -4   -1    0    0    0  501 -0.00000000000E+00  0.00000000000E+00  0.40734959776E+03  0.40734959776E+03  0.00000000000E+00 0. -1.
         21   -1    0    0  501  502  0.00000000000E+00 -0.00000000000E+00 -0.12186826379E+04  0.12186826379E+04  0.00000000000E+00 0. -1.
   -9000010    2    1    2    0  502 -0.70019660651E+02 -0.19806136269E+03 -0.95117250217E+03  0.13736711004E+04  0.96856187568E+03 0.  0.
         13    1    3    3    0    0  0.28222532554E+03  0.27888148273E+03 -0.41730192956E+03  0.57581848473E+03  0.10566000000E+00 0. -1.
         -4    1    3    3    0  502 -0.35224498619E+03 -0.47694284542E+03 -0.53387057261E+03  0.79785261571E+03  0.00000000000E+00 0. -1.
        -13    1    1    2    0    0  0.70019660651E+02  0.19806136269E+03  0.13983946203E+03  0.25236113523E+03  0.10566000000E+00 0.  1.
<mgrwt>
<rscale>  1 0.67247351E+03</rscale>
<asrwt>0</asrwt>
<pdfrwt beam="2">  1       21 0.18748964E+00 0.99108181E+03</pdfrwt>
<pdfrwt beam="1">  1       -4 0.62669169E-01 0.99108181E+03</pdfrwt>
<totfact> 0.13425346E+01</totfact>
</mgrwt>
</event>
<event>
 6    2  0.2345636E-005  0.1189497E+04  0.7818608E-02  0.9291626E-01
         21   -1    0    0  501  502  0.00000000000E+00  0.00000000000E+00  0.12050532786E+04  0.12050532786E+04  0.00000000000E+00 0. -1.
         -4   -1    0    0    0  501 -0.00000000000E+00 -0.00000000000E+00 -0.68890671164E+03  0.68890671164E+03  0.00000000000E+00 0. -1.
   -9000010    2    1    2    0  502  0.51779705798E+02  0.62993381341E+03  0.36227658138E+03  0.12434419422E+04  0.10076734565E+04 0.  0.
         13    1    3    3    0    0  0.16272405625E+03  0.78646860812E+03  0.55127552600E+03  0.97412355827E+03  0.10566000000E+00 0. -1.
         -4    1    3    3    0  502 -0.11094435045E+03 -0.15653479472E+03 -0.18899894462E+03  0.26931838393E+03  0.00000000000E+00 0. -1.
        -13    1    1    2    0    0 -0.51779705798E+02 -0.62993381341E+03  0.15386998560E+03  0.65051804805E+03  0.10566000000E+00 0.  1.
<mgrwt>
<rscale>  1 0.10155747E+04</rscale>
<asrwt>0</asrwt>
<pdfrwt beam="1">  1       21 0.18539281E+00 0.11894972E+04</pdfrwt>
<pdfrwt beam="2">  1       -4 0.10598565E+00 0.11894972E+04</pdfrwt>
<totfact> 0.40196434E+00</totfact>
</mgrwt>
</event>
<event>
 6    2  0.2345636E-005  0.1124820E+04  0.7818608E-02  0.9388268E-01
         -4   -1    0    0    0  501 -0.00000000000E+00  0.00000000000E+00  0.14798175711E+04  0.14798175711E+04  0.00000000000E+00 0. -1.
         21   -1    0    0  501  502  0.00000000000E+00 -0.00000000000E+00 -0.49085854040E+03  0.49085854040E+03  0.00000000000E+00 0. -1.
   -9000010    2    1    2    0  502  0.40481577243E+03 -0.33696571361E+03  0.43422601331E+03  0.12057248493E+04  0.99388051591E+03 0.  0.
         13    1    3    3    0    0 -0.16359204835E+03 -0.34460486650E+03  0.50499425265E+03  0.63287761745E+03  0.10566000000E+00 0. -1.
         -4    1    3    3    0  502  0.56840782078E+03  0.76391528865E+01 -0.70768239341E+02  0.57284723189E+03  0.00000000000E+00 0. -1.
        -13    1    1    2    0    0 -0.40481577243E+03  0.33696571361E+03  0.55473301743E+03  0.76495126221E+03  0.10566000000E+00 0.  1.
<mgrwt>
<rscale>  1 0.93047530E+03</rscale>
<asrwt>0</asrwt>
<pdfrwt beam="2">  1       21 0.75516699E-01 0.11248201E+04</pdfrwt>
<pdfrwt beam="1">  1       -4 0.22766424E+00 0.11248201E+04</pdfrwt>
<totfact> 0.51272818E+00</totfact>
</mgrwt>
</event>
<event>
 6    2  0.2345636E-005  0.1054652E+04  0.7818608E-02  0.9623644E-01
         -4   -1    0    0    0  501 -0.00000000000E+00  0.00000000000E+00  0.16265566499E+04  0.16265566499E+04  0.00000000000E+00 0. -1.
         21   -1    0    0  501  502  0.00000000000E+00 -0.00000000000E+00 -0.29061019871E+03  0.29061019871E+03  0.00000000000E+00 0.  1.
   -9000010    2    1    2    0  502  0.17657251014E+03  0.21819104564E+03  0.12221412954E+04  0.16142860001E+04  0.10166143617E+04 0.  0.
         13    1    3    3    0    0  0.39528277832E+03  0.16642336625E+03  0.62921620963E+02  0.43347935732E+03  0.10566000000E+00 0. -1.
         -4    1    3    3    0  502 -0.21871026818E+03  0.51767679388E+02  0.11592196744E+04  0.11808066428E+04  0.00000000000E+00 0. -1.
        -13    1    1    2    0    0 -0.17657251014E+03 -0.21819104564E+03  0.11380515576E+03  0.30288084847E+03  0.10566000000E+00 0.  1.
<mgrwt>
<rscale>  1 0.75750828E+03</rscale>
<asrwt>0</asrwt>
<pdfrwt beam="2">  1       21 0.44709262E-01 0.10546516E+04</pdfrwt>
<pdfrwt beam="1">  1       -4 0.25023948E+00 0.10546516E+04</pdfrwt>
<totfact> 0.11972167E+01</totfact>
</mgrwt>
</event>
<event>
 6    2  0.2345636E-005  0.1010723E+04  0.7818608E-02  0.1002665E+00
         21   -1    0    0  501  502  0.00000000000E+00  0.00000000000E+00  0.11853312675E+04  0.11853312675E+04  0.00000000000E+00 0. -1.
         -4   -1    0    0    0  501 -0.00000000000E+00 -0.00000000000E+00 -0.27660027087E+03  0.27660027087E+03  0.00000000000E+00 0. -1.
   -9000010    2    1    2    0  502  0.85268156318E+02 -0.51864764470E+01  0.68108645449E+03  0.12187863004E+04  0.10071066128E+04 0.  0.
         13    1    3    3    0    0 -0.23014725696E+03  0.42119111228E+03  0.30662395903E+03  0.56955067937E+03  0.10566000000E+00 0. -1.
         -4    1    3    3    0  502  0.31541541328E+03 -0.42637758873E+03  0.37446249546E+03  0.64923562103E+03  0.00000000000E+00 0. -1.
        -13    1    1    2    0    0 -0.85268156318E+02  0.51864764470E+01  0.22764454215E+03  0.24314523798E+03  0.10566000000E+00 0.  1.
<mgrwt>
<rscale>  1 0.54496862E+03</rscale>
<asrwt>0</asrwt>
<pdfrwt beam="1">  1       21 0.18235865E+00 0.10107232E+04</pdfrwt>
<pdfrwt beam="2">  1       -4 0.42553889E-01 0.10107232E+04</pdfrwt>
<totfact> 0.33159634E+01</totfact>
</mgrwt>
</event>
<event>
 6    2  0.2345636E-005  0.1016385E+04  0.7818608E-02  0.9806634E-01
         -4   -1    0    0    0  501 -0.00000000000E+00  0.00000000000E+00  0.34419465852E+03  0.34419465852E+03  0.00000000000E+00 0. -1.
         21   -1    0    0  501  502  0.00000000000E+00 -0.00000000000E+00 -0.12687521352E+04  0.12687521352E+04  0.00000000000E+00 0. -1.
   -9000010    2    1    2    0  502  0.43893070868E+02  0.16433150560E+03 -0.10009263165E+04  0.14264966495E+04  0.10020517724E+04 0.  0.
         13    1    3    3    0    0  0.41401584624E+03 -0.19839154778E+03 -0.27695893517E+03  0.53616656936E+03  0.10566000000E+00 0. -1.
         -4    1    3    3    0  502 -0.37012277537E+03  0.36272305338E+03 -0.72396738138E+03  0.89033008014E+03  0.00000000000E+00 0. -1.
        -13    1    1    2    0    0 -0.43893070868E+02 -0.16433150560E+03  0.76368839889E+02  0.18645014420E+03  0.10566000000E+00 0.  1.
<mgrwt>
<rscale>  1 0.65007743E+03</rscale>
<asrwt>0</asrwt>
<pdfrwt beam="2">  1       21 0.19519264E+00 0.10163854E+04</pdfrwt>
<pdfrwt beam="1">  1       -4 0.52953024E-01 0.10163854E+04</pdfrwt>
<totfact> 0.17007414E+01</totfact>
</mgrwt>
</event>
<event>
 6    2  0.2345636E-005  0.9146455E+03  0.7818608E-02  0.9934695E-01
         21   -1    0    0  501  502  0.00000000000E+00  0.00000000000E+00  0.64502017705E+03  0.64502017705E+03  0.00000000000E+00 0. -1.
         -4   -1    0    0    0  501 -0.00000000000E+00 -0.00000000000E+00 -0.56622626436E+03  0.56622626436E+03  0.00000000000E+00 0. -1.
   -9000010    2    1    2    0  502 -0.19017693424E+02 -0.15302683507E+03  0.28110445609E+03  0.95686788089E+03  0.90155284999E+03 0.  0.
         13    1    3    3    0    0 -0.31502757990E+03 -0.32163071489E+03 -0.83495499648E+02  0.45788666991E+03  0.10566000000E+00 0. -1.
         -4    1    3    3    0  502  0.29600988648E+03  0.16860387983E+03  0.36459995574E+03  0.49898121098E+03  0.00000000000E+00 0. -1.
        -13    1    1    2    0    0  0.19017693424E+02  0.15302683507E+03 -0.20231054341E+03  0.25437856052E+03  0.10566000000E+00 0.  1.
<mgrwt>
<rscale>  1 0.58608900E+03</rscale>
<asrwt>0</asrwt>
<pdfrwt beam="1">  1       21 0.99233873E-01 0.91464552E+03</pdfrwt>
<pdfrwt beam="2">  1       -4 0.87111733E-01 0.91464552E+03</pdfrwt>
<totfact> 0.36236842E+01</totfact>
</mgrwt>
</event>
<event>
 6    2  0.2345636E-005  0.1055728E+04  0.7818608E-02  0.9735559E-01
         -4   -1    0    0    0  501 -0.00000000000E+00  0.00000000000E+00  0.12109102512E+04  0.12109102512E+04  0.00000000000E+00 0. -1.
         21   -1    0    0  501  502  0.00000000000E+00 -0.00000000000E+00 -0.33358868079E+03  0.33358868079E+03  0.00000000000E+00 0. -1.
   -9000010    2    1    2    0  502 -0.47821510304E+02  0.18589924394E+03  0.83958012476E+03  0.13488721096E+04  0.10381308957E+04 0.  0.
         13    1    3    3    0    0 -0.19027667253E+02 -0.39466472702E+03  0.98857303463E+02  0.40730219308E+03  0.10566000000E+00 0. -1.
         -4    1    3    3    0  502 -0.28793843050E+02  0.58056397096E+03  0.74072282130E+03  0.94156991656E+03  0.00000000000E+00 0. -1.
        -13    1    1    2    0    0  0.47821510304E+02 -0.18589924394E+03  0.37741445654E+02  0.19562682236E+03  0.10566000000E+00 0.  1.
<mgrwt>
<rscale>  1 0.68938525E+03</rscale>
<asrwt>0</asrwt>
<pdfrwt beam="2">  1       21 0.51321336E-01 0.10557278E+04</pdfrwt>
<pdfrwt beam="1">  1       -4 0.18629388E+00 0.10557278E+04</pdfrwt>
<totfact> 0.22987845E+01</totfact>
</mgrwt>
</event>
<event>
 6    2  0.2345636E-005  0.1016385E+04  0.7818608E-02  0.9587230E-01
         -4   -1    0    0    0  501 -0.00000000000E+00  0.00000000000E+00  0.51551842924E+03  0.51551842924E+03  0.00000000000E+00 0. -1.
         21   -1    0    0  501  502  0.00000000000E+00 -0.00000000000E+00 -0.10294228434E+04  0.10294228434E+04  0.00000000000E+00 0. -1.
   -9000010    2    1    2    0  502  0.15996201738E+03  0.31714662330E+03 -0.59889722061E+03  0.11797103649E+04  0.95229661165E+03 0.  0.
         13    1    3    3    0    0 -0.34792893467E+03  0.99040439652E+02 -0.50165011900E+03  0.61847910661E+03  0.10566000000E+00 0. -1.
         -4    1    3    3    0  502  0.50789095205E+03  0.21810618365E+03 -0.97247101617E+02  0.56123125830E+03  0.00000000000E+00 0. -1.
        -13    1    1    2    0    0 -0.15996201738E+03 -0.31714662330E+03  0.84992806419E+02  0.36523090776E+03  0.10566000000E+00 0.  1.
<mgrwt>
<rscale>  1 0.78147153E+03</rscale>
<asrwt>0</asrwt>
<pdfrwt beam="2">  1       21 0.15837274E+00 0.10163851E+04</pdfrwt>
<pdfrwt beam="1">  1       -4 0.79310528E-01 0.10163851E+04</pdfrwt>
<totfact> 0.12985197E+01</totfact>
</mgrwt>
</event>
<event>
 6    2  0.2345636E-005  0.1020923E+04  0.7818608E-02  0.9663316E-01
         -4   -1    0    0    0  501 -0.00000000000E+00  0.00000000000E+00  0.34459925034E+03  0.34459925034E+03  0.00000000000E+00 0. -1.
         21   -1    0    0  501  502  0.00000000000E+00 -0.00000000000E+00 -0.12157816952E+04  0.12157816952E+04  0.00000000000E+00 0. -1.
   -9000010    2    1    2    0  502 -0.18317839473E+03 -0.19897900074E+03 -0.64311714466E+03  0.12066002799E+04  0.98444786899E+03 0.  0.
         13    1    3    3    0    0  0.39776216490E+03  0.12604599466E+02 -0.19608540747E+03  0.44364751092E+03  0.10566000000E+00 0. -1.
         -4    1    3    3    0  502 -0.58094055963E+03 -0.21158360020E+03 -0.44703173719E+03  0.76295276902E+03  0.00000000000E+00 0. -1.
        -13    1    1    2    0    0  0.18317839473E+03  0.19897900074E+03 -0.22806530015E+03  0.35378066556E+03  0.10566000000E+00 0.  1.
<mgrwt>
<rscale>  1 0.73243564E+03</rscale>
<asrwt>0</asrwt>
<pdfrwt beam="2">  1       21 0.18704334E+00 0.10209234E+04</pdfrwt>
<pdfrwt beam="1">  1       -4 0.53015270E-01 0.10209234E+04</pdfrwt>
<totfact> 0.19347626E+01</totfact>
</mgrwt>
</event>
<event>
 6    2  0.2345636E-005  0.9964819E+03  0.7818608E-02  0.9979864E-01
         -4   -1    0    0    0  501 -0.00000000000E+00  0.00000000000E+00  0.18375548672E+04  0.18375548672E+04  0.00000000000E+00 0. -1.
         21   -1    0    0  501  502  0.00000000000E+00 -0.00000000000E+00 -0.18084969975E+03  0.18084969975E+03  0.00000000000E+00 0. -1.
   -9000010    2    1    2    0  502  0.72073000065E+02 -0.73994906448E+02  0.16320403392E+04  0.19122060338E+04  0.99111375907E+03 0.  0.
         13    1    3    3    0    0 -0.31956946944E+03  0.18627812792E+03  0.12582734793E+04  0.13115168114E+04  0.10566000000E+00 0. -1.
         -4    1    3    3    0  502  0.39164246951E+03 -0.26027303437E+03  0.37376685993E+03  0.60068922241E+03  0.00000000000E+00 0. -1.
        -13    1    1    2    0    0 -0.72073000065E+02  0.73994906448E+02  0.24664828197E+02  0.10619853310E+03  0.10566000000E+00 0.  1.
<mgrwt>
<rscale>  1 0.56542048E+03</rscale>
<asrwt>0</asrwt>
<pdfrwt beam="2">  1       21 0.27823032E-01 0.99648194E+03</pdfrwt>
<pdfrwt beam="1">  1       -4 0.28270074E+00 0.99648194E+03</pdfrwt>
<totfact> 0.20208533E+01</totfact>
</mgrwt>
</event>
<event>
 6    2  0.2345636E-005  0.9315000E+03  0.7818608E-02  0.9637586E-01
         21   -1    0    0  501  502  0.00000000000E+00  0.00000000000E+00  0.12641526345E+04  0.12641526345E+04  0.00000000000E+00 0. -1.
         -4   -1    0    0    0  501 -0.00000000000E+00 -0.00000000000E+00 -0.36120161598E+03  0.36120161598E+03  0.00000000000E+00 0. -1.
   -9000010    2    1    2    0  502  0.16025319787E+03 -0.35391363762E+03  0.46901057300E+03  0.10429108869E+04  0.84661458184E+03 0.  0.
         13    1    3    3    0    0  0.20573982765E+03 -0.57783087212E+03  0.52532940435E+03  0.80758181486E+03  0.10566000000E+00 0. -1.
         -4    1    3    3    0  502 -0.45486629784E+02  0.22391723451E+03 -0.56318831347E+02  0.23532907207E+03  0.00000000000E+00 0. -1.
        -13    1    1    2    0    0 -0.16025319787E+03  0.35391363762E+03  0.43394044553E+03  0.58244336355E+03  0.10566000000E+00 0.  1.
<mgrwt>
<rscale>  1 0.74857666E+03</rscale>
<asrwt>0</asrwt>
<pdfrwt beam="1">  1       21 0.19448502E+00 0.93149997E+03</pdfrwt>
<pdfrwt beam="2">  1       -4 0.55569480E-01 0.93149997E+03</pdfrwt>
<totfact> 0.15686768E+01</totfact>
</mgrwt>
</event>
<event>
 6    2  0.2345636E-005  0.7253302E+03  0.7818608E-02  0.1081510E+00
         -4   -1    0    0    0  501 -0.00000000000E+00  0.00000000000E+00  0.18376034180E+03  0.18376034180E+03  0.00000000000E+00 0. -1.
         21   -1    0    0  501  502  0.00000000000E+00 -0.00000000000E+00 -0.10228628775E+04  0.10228628775E+04  0.00000000000E+00 0. -1.
   -9000010    2    1    2    0  502  0.20358829665E+02 -0.11647713648E+02 -0.89145359378E+03  0.11492577625E+04  0.72495085600E+03 0.  0.
         13    1    3    3    0    0 -0.24025490629E+03  0.25443896304E+03 -0.38036508837E+03  0.51685512237E+03  0.10566000000E+00 0. -1.
         -4    1    3    3    0  502  0.26061373595E+03 -0.26608667668E+03 -0.51108850541E+03  0.63240264013E+03  0.00000000000E+00 0. -1.
        -13    1    1    2    0    0 -0.20358829665E+02  0.11647713648E+02  0.52351058125E+02  0.57365456761E+02  0.10566000000E+00 0.  1.
<mgrwt>
<rscale>  1 0.30758360E+03</rscale>
<asrwt>0</asrwt>
<pdfrwt beam="2">  1       21 0.15736352E+00 0.72533020E+03</pdfrwt>
<pdfrwt beam="1">  1       -4 0.28270822E-01 0.72533020E+03</pdfrwt>
<totfact> 0.11888302E+02</totfact>
</mgrwt>
</event>
<event>
 6    2  0.2345636E-005  0.9697250E+03  0.7818608E-02  0.1002448E+00
         -4   -1    0    0    0  501 -0.00000000000E+00  0.00000000000E+00  0.46130105320E+03  0.46130105320E+03  0.00000000000E+00 0. -1.
         21   -1    0    0  501  502  0.00000000000E+00 -0.00000000000E+00 -0.79495128396E+03  0.79495128396E+03  0.00000000000E+00 0. -1.
   -9000010    2    1    2    0  502  0.33137050422E+02 -0.91574323031E+02 -0.47877806484E+03  0.10814781396E+04  0.96482257970E+03 0.  0.
         13    1    3    3    0    0 -0.36128622850E+03 -0.24220550061E+03 -0.49500998758E+03  0.65895837683E+03  0.10566000000E+00 0. -1.
         -4    1    3    3    0  502  0.39442327892E+03  0.15063117758E+03  0.16231922739E+02  0.42251976277E+03  0.00000000000E+00 0. -1.
        -13    1    1    2    0    0 -0.33137050422E+02  0.91574323031E+02  0.14512783408E+03  0.17477419757E+03  0.10566000000E+00 0.  1.
<mgrwt>
<rscale>  1 0.54589610E+03</rscale>
<asrwt>0</asrwt>
<pdfrwt beam="2">  1       21 0.12230020E+00 0.96972498E+03</pdfrwt>
<pdfrwt beam="1">  1       -4 0.70969393E-01 0.96972498E+03</pdfrwt>
<totfact> 0.33915985E+01</totfact>
</mgrwt>
</event>
<event>
 6    2  0.2345636E-005  0.1028962E+04  0.7818608E-02  0.9663187E-01
         21   -1    0    0  501  502  0.00000000000E+00  0.00000000000E+00  0.40170381371E+03  0.40170381371E+03  0.00000000000E+00 0. -1.
         -4   -1    0    0    0  501 -0.00000000000E+00 -0.00000000000E+00 -0.11709308468E+04  0.11709308468E+04  0.00000000000E+00 0. -1.
   -9000010    2    1    2    0  502 -0.27936208510E+01 -0.26426813496E+03 -0.36920592310E+03  0.10931950386E+04  0.99444302364E+03 0.  0.
         13    1    3    3    0    0  0.22238214440E+03  0.27861053358E+03 -0.35821477116E+03  0.50536667976E+03  0.10566000000E+00 0. -1.
         -4    1    3    3    0  502 -0.22517576525E+03 -0.54287866854E+03 -0.10991151932E+02  0.58782835882E+03  0.00000000000E+00 0. -1.
        -13    1    1    2    0    0  0.27936208510E+01  0.26426813496E+03 -0.40002110999E+03  0.47943962193E+03  0.10566000000E+00 0.  1.
<mgrwt>
<rscale>  1 0.73251532E+03</rscale>
<asrwt>0</asrwt>
<pdfrwt beam="1">  1       21 0.61800586E-01 0.10289618E+04</pdfrwt>
<pdfrwt beam="2">  1       -4 0.18014321E+00 0.10289618E+04</pdfrwt>
<totfact> 0.16870057E+01</totfact>
</mgrwt>
</event>
<event>
 6    2  0.2345636E-005  0.9807609E+03  0.7818608E-02  0.1006273E+00
         21   -1    0    0  501  502  0.00000000000E+00  0.00000000000E+00  0.43589167487E+03  0.43589167487E+03  0.00000000000E+00 0. -1.
         -4   -1    0    0    0  501 -0.00000000000E+00 -0.00000000000E+00 -0.64967754433E+03  0.64967754433E+03  0.00000000000E+00 0. -1.
   -9000010    2    1    2    0  502  0.32005109946E+02  0.77159776874E+02 -0.19545252411E+03  0.10000468189E+04  0.97719700812E+03 0.  0.
         13    1    3    3    0    0 -0.81770476938E+02 -0.41141206498E+02  0.38556955186E+03  0.39628638666E+03  0.10566000000E+00 0. -1.
         -4    1    3    3    0  502  0.11377558688E+03  0.11830098337E+03 -0.58102207596E+03  0.60376043229E+03  0.00000000000E+00 0. -1.
        -13    1    1    2    0    0 -0.32005109946E+02 -0.77159776874E+02 -0.18333345352E+02  0.85522400258E+02  0.10566000000E+00 0.  1.
<mgrwt>
<rscale>  1 0.52983237E+03</rscale>
<asrwt>0</asrwt>
<pdfrwt beam="1">  1       21 0.67060257E-01 0.98076090E+03</pdfrwt>
<pdfrwt beam="2">  1       -4 0.99950392E-01 0.98076090E+03</pdfrwt>
<totfact> 0.65670212E+01</totfact>
</mgrwt>
</event>
<event>
 6    2  0.2345636E-005  0.1018149E+04  0.7818608E-02  0.9746296E-01
         -4   -1    0    0    0  501 -0.00000000000E+00  0.00000000000E+00  0.35289130697E+03  0.35289130697E+03  0.00000000000E+00 0. -1.
         21   -1    0    0  501  502  0.00000000000E+00 -0.00000000000E+00 -0.11305578349E+04  0.11305578349E+04  0.00000000000E+00 0. -1.
   -9000010    2    1    2    0  502 -0.60590767745E+02 -0.19740555306E+03 -0.49154340211E+03  0.11305941464E+04  0.99698947551E+03 0.  0.
         13    1    3    3    0    0 -0.42539604657E+03 -0.25863004931E+03  0.21256953161E+02  0.49830027902E+03  0.10566000000E+00 0. -1.
         -4    1    3    3    0  502  0.36480527883E+03  0.61224496248E+02 -0.51280035527E+03  0.63229386741E+03  0.00000000000E+00 0. -1.
        -13    1    1    2    0    0  0.60590767745E+02  0.19740555306E+03 -0.28612312582E+03  0.35285499544E+03  0.10566000000E+00 0.  1.
<mgrwt>
<rscale>  1 0.68326016E+03</rscale>
<asrwt>0</asrwt>
<pdfrwt beam="2">  1       21 0.17393197E+00 0.10181494E+04</pdfrwt>
<pdfrwt beam="1">  1       -4 0.54290972E-01 0.10181494E+04</pdfrwt>
<totfact> 0.22898013E+01</totfact>
</mgrwt>
</event>
<event>
 6    2  0.2345636E-005  0.9631286E+03  0.7818608E-02  0.9960936E-01
         -4   -1    0    0    0  501 -0.00000000000E+00  0.00000000000E+00  0.13058528388E+04  0.13058528388E+04  0.00000000000E+00 0. -1.
         21   -1    0    0  501  502  0.00000000000E+00 -0.00000000000E+00 -0.39709696677E+03  0.39709696677E+03  0.00000000000E+00 0. -1.
   -9000010    2    1    2    0  502  0.11828908631E+03 -0.27651531597E+02  0.19976515056E+03  0.98362736783E+03  0.95543695147E+03 0.  0.
         13    1    3    3    0    0 -0.34716998286E+03 -0.24343985705E+02  0.35091772436E+03  0.49422958944E+03  0.10566000000E+00 0. -1.
         -4    1    3    3    0  502  0.46545906917E+03 -0.33075458918E+01 -0.15115257380E+03  0.48939777840E+03  0.00000000000E+00 0. -1.
        -13    1    1    2    0    0 -0.11828908631E+03  0.27651531597E+02  0.70899072143E+03  0.71932243770E+03  0.10566000000E+00 0.  1.
<mgrwt>
<rscale>  1 0.57396802E+03</rscale>
<asrwt>0</asrwt>
<pdfrwt beam="2">  1       21 0.61091842E-01 0.96312859E+03</pdfrwt>
<pdfrwt beam="1">  1       -4 0.20090043E+00 0.96312859E+03</pdfrwt>
<totfact> 0.12611146E+01</totfact>
</mgrwt>
</event>
<event>
 6    2  0.2345636E-005  0.1024476E+04  0.7818608E-02  0.9697737E-01
         21   -1    0    0  501  502  0.00000000000E+00  0.00000000000E+00  0.29815089570E+03  0.29815089570E+03  0.00000000000E+00 0. -1.
         -4   -1    0    0    0  501 -0.00000000000E+00 -0.00000000000E+00 -0.13385072663E+04  0.13385072663E+04  0.00000000000E+00 0. -1.
   -9000010    2    1    2    0  502 -0.20244899836E+03 -0.12581860494E+03 -0.86364789417E+03  0.13399397516E+04  0.99636084551E+03 0.  0.
         13    1    3    3    0    0 -0.21506429729E+03  0.41636224481E+03 -0.29295441071E+03  0.55265945101E+03  0.10566000000E+00 0. -1.
         -4    1    3    3    0  502  0.12615298929E+02 -0.54218084975E+03 -0.57069348345E+03  0.78728030057E+03  0.00000000000E+00 0. -1.
        -13    1    1    2    0    0  0.20244899836E+03  0.12581860494E+03 -0.17670847647E+03  0.29671841046E+03  0.10566000000E+00 0.  1.
<mgrwt>
<rscale>  1 0.71151675E+03</rscale>
<asrwt>0</asrwt>
<pdfrwt beam="1">  1       21 0.45869369E-01 0.10244759E+04</pdfrwt>
<pdfrwt beam="2">  1       -4 0.20592419E+00 0.10244759E+04</pdfrwt>
<totfact> 0.21704654E+01</totfact>
</mgrwt>
</event>
<event>
 6    2  0.2345636E-005  0.1017552E+04  0.7818608E-02  0.9763860E-01
         21   -1    0    0  501  502  0.00000000000E+00  0.00000000000E+00  0.69925460004E+03  0.69925460004E+03  0.00000000000E+00 0. -1.
         -4   -1    0    0    0  501 -0.00000000000E+00 -0.00000000000E+00 -0.98399560539E+03  0.98399560539E+03  0.00000000000E+00 0. -1.
   -9000010    2    1    2    0  502  0.87046339399E+02  0.17467026534E+03  0.30482038674E+03  0.10622273290E+04  0.99866143592E+03 0.  0.
         13    1    3    3    0    0 -0.18431068631E+03 -0.35536617623E+03  0.16556600335E+02  0.40066155352E+03  0.10566000000E+00 0. -1.
         -4    1    3    3    0  502  0.27135702571E+03  0.53003644157E+03  0.28826378640E+03  0.66156577552E+03  0.00000000000E+00 0. -1.
        -13    1    1    2    0    0 -0.87046339399E+02 -0.17467026534E+03 -0.58956139208E+03  0.62102287639E+03  0.10566000000E+00 0.  1.
<mgrwt>
<rscale>  1 0.67338608E+03</rscale>
<asrwt>0</asrwt>
<pdfrwt beam="1">  1       21 0.10757763E+00 0.10175517E+04</pdfrwt>
<pdfrwt beam="2">  1       -4 0.15138394E+00 0.10175517E+04</pdfrwt>
<totfact> 0.73742307E+00</totfact>
</mgrwt>
</event>
<event>
 6    2  0.2345636E-005  0.1078702E+04  0.7818608E-02  0.9515326E-01
         21   -1    0    0  501  502  0.00000000000E+00  0.00000000000E+00  0.87358814739E+03  0.87358814739E+03  0.00000000000E+00 0. -1.
         -4   -1    0    0    0  501 -0.00000000000E+00 -0.00000000000E+00 -0.79397524662E+03  0.79397524662E+03  0.00000000000E+00 0. -1.
   -9000010    2    1    2    0  502 -0.13641444812E+03 -0.35583244764E+03  0.41903891354E+03  0.11572344200E+04  0.10091443203E+04 0.  0.
         13    1    3    3    0    0  0.27579273443E+03 -0.47538807487E+03  0.47242104754E+03  0.72473244126E+03  0.10566000000E+00 0. -1.
         -4    1    3    3    0  502 -0.41220718255E+03  0.11955562723E+03 -0.53382134000E+02  0.43250197870E+03  0.00000000000E+00 0. -1.
        -13    1    1    2    0    0  0.13641444812E+03  0.35583244764E+03 -0.33942601277E+03  0.51032897405E+03  0.10566000000E+00 0.  1.
<mgrwt>
<rscale>  1 0.83163261E+03</rscale>
<asrwt>0</asrwt>
<pdfrwt beam="1">  1       21 0.13439818E+00 0.10787019E+04</pdfrwt>
<pdfrwt beam="2">  1       -4 0.12215004E+00 0.10787019E+04</pdfrwt>
<totfact> 0.71842339E+00</totfact>
</mgrwt>
</event>
<event>
 6    2  0.2345636E-005  0.1004718E+04  0.7818608E-02  0.9962374E-01
         21   -1    0    0  501  502  0.00000000000E+00  0.00000000000E+00  0.14063898395E+04  0.14063898395E+04  0.00000000000E+00 0. -1.
         -4   -1    0    0    0  501 -0.00000000000E+00 -0.00000000000E+00 -0.21956206433E+03  0.21956206433E+03  0.00000000000E+00 0. -1.
   -9000010    2    1    2    0  502 -0.96833654142E+02 -0.44383856897E+02  0.10804973696E+04  0.14754432674E+04  0.99905534693E+03 0.  0.
         13    1    3    3    0    0 -0.37731621987E+03  0.24305636672E+03  0.95412400794E+03  0.10544176406E+04  0.10566000000E+00 0. -1.
         -4    1    3    3    0  502  0.28048256573E+03 -0.28744022362E+03  0.12637336162E+03  0.42102562672E+03  0.00000000000E+00 0. -1.
        -13    1    1    2    0    0  0.96833654142E+02  0.44383856897E+02  0.10633040556E+03  0.15050863643E+03  0.10566000000E+00 0.  1.
<mgrwt>
<rscale>  1 0.57331303E+03</rscale>
<asrwt>0</asrwt>
<pdfrwt beam="1">  1       21 0.21636766E+00 0.10047180E+04</pdfrwt>
<pdfrwt beam="2">  1       -4 0.33778780E-01 0.10047180E+04</pdfrwt>
<totfact> 0.30836935E+01</totfact>
</mgrwt>
</event>
<event>
 6    2  0.2345636E-005  0.9677032E+03  0.7818608E-02  0.9993701E-01
         -4   -1    0    0    0  501 -0.00000000000E+00  0.00000000000E+00  0.23549383190E+03  0.23549383190E+03  0.00000000000E+00 0. -1.
         21   -1    0    0  501  502  0.00000000000E+00 -0.00000000000E+00 -0.13675356778E+04  0.13675356778E+04  0.00000000000E+00 0. -1.
   -9000010    2    1    2    0  502  0.69766702091E+02  0.82391164867E+02 -0.11393183102E+04  0.14948229717E+04  0.96166200296E+03 0.  0.
         13    1    3    3    0    0 -0.32993152496E+03  0.16239873725E+03 -0.99767276733E+03  0.10632869429E+04  0.10566000000E+00 0. -1.
         -4    1    3    3    0  502  0.39969822705E+03 -0.80007572386E+02 -0.14164554284E+03  0.43153602880E+03  0.00000000000E+00 0. -1.
        -13    1    1    2    0    0 -0.69766702091E+02 -0.82391164867E+02  0.72764643203E+01  0.10820653800E+03  0.10566000000E+00 0.  1.
<mgrwt>
<rscale>  1 0.55927315E+03</rscale>
<asrwt>0</asrwt>
<pdfrwt beam="2">  1       21 0.21039010E+00 0.96770321E+03</pdfrwt>
<pdfrwt beam="1">  1       -4 0.36229820E-01 0.96770321E+03</pdfrwt>
<totfact> 0.29529826E+01</totfact>
</mgrwt>
</event>
<event>
 6    2  0.2345636E-005  0.1210629E+04  0.7818608E-02  0.9260648E-01
         21   -1    0    0  501  502  0.00000000000E+00  0.00000000000E+00  0.24304282147E+04  0.24304282147E+04  0.00000000000E+00 0.  1.
         -4   -1    0    0    0  501 -0.00000000000E+00 -0.00000000000E+00 -0.43272915728E+03  0.43272915728E+03  0.00000000000E+00 0. -1.
   -9000010    2    1    2    0  502 -0.39283343660E+03  0.54495349099E+03  0.17882035594E+04  0.21594665371E+04  0.10071401783E+04 0.  0.
         13    1    3    3    0    0 -0.32959658329E+03 -0.24953354254E+03  0.63073228473E+03  0.75413799980E+03  0.10566000000E+00 0. -1.
         -4    1    3    3    0  502 -0.63236853318E+02  0.79448703353E+03  0.11574712747E+04  0.14053285373E+04  0.00000000000E+00 0. -1.
        -13    1    1    2    0    0  0.39283343660E+03 -0.54495349099E+03  0.20949549803E+03  0.70369083489E+03  0.10566000000E+00 0.  1.
<mgrwt>
<rscale>  1 0.10448783E+04</rscale>
<asrwt>0</asrwt>
<pdfrwt beam="1">  1       21 0.37391202E+00 0.12106295E+04</pdfrwt>
<pdfrwt beam="2">  1       -4 0.66573718E-01 0.12106295E+04</pdfrwt>
<totfact> 0.71928776E-01</totfact>
</mgrwt>
</event>
<event>
 6    2  0.2345636E-005  0.1009829E+04  0.7818608E-02  0.9970202E-01
         -4   -1    0    0    0  501 -0.00000000000E+00  0.00000000000E+00  0.20260676139E+03  0.20260676139E+03  0.00000000000E+00 0. -1.
         21   -1    0    0  501  502  0.00000000000E+00 -0.00000000000E+00 -0.17362320734E+04  0.17362320734E+04  0.00000000000E+00 0. -1.
   -9000010    2    1    2    0  502  0.93579456008E+02  0.41422821549E+02 -0.15339428485E+04  0.18365007836E+04  0.10046300319E+04 0.  0.
         13    1    3    3    0    0 -0.27779758279E+03  0.44680627031E+02 -0.24944581869E+02  0.28247141230E+03  0.10566000000E+00 0. -1.
         -4    1    3    3    0  502  0.37137703880E+03 -0.32578054819E+01 -0.15089982666E+04  0.15540293713E+04  0.00000000000E+00 0. -1.
        -13    1    1    2    0    0 -0.93579456008E+02 -0.41422821549E+02  0.31753644715E+00  0.10233805121E+03  0.10566000000E+00 0.  1.
<mgrwt>
<rscale>  1 0.56976349E+03</rscale>
<asrwt>0</asrwt>
<pdfrwt beam="2">  1       21 0.26711263E+00 0.10098289E+04</pdfrwt>
<pdfrwt beam="1">  1       -4 0.31170271E-01 0.10098289E+04</pdfrwt>
<totfact> 0.17047671E+01</totfact>
</mgrwt>
</event>
<event>
 6    2  0.2345636E-005  0.9603743E+03  0.7818608E-02  0.1020076E+00
         -4   -1    0    0    0  501 -0.00000000000E+00  0.00000000000E+00  0.77610047583E+03  0.77610047583E+03  0.00000000000E+00 0. -1.
         21   -1    0    0  501  502  0.00000000000E+00 -0.00000000000E+00 -0.49500084467E+03  0.49500084467E+03  0.00000000000E+00 0. -1.
   -9000010    2    1    2    0  502  0.57701041222E+02  0.79484749796E+01 -0.23818759592E+02  0.96066964589E+03  0.95860640871E+03 0.  0.
         13    1    3    3    0    0  0.45892828370E+03 -0.20476896258E+03 -0.54619622031E+02  0.50549857753E+03  0.10566000000E+00 0. -1.
         -4    1    3    3    0  502 -0.40122724248E+03  0.21271743756E+03  0.30800862439E+02  0.45517106836E+03  0.00000000000E+00 0. -1.
        -13    1    1    2    0    0 -0.57701041222E+02 -0.79484749796E+01  0.30491839076E+03  0.31043167461E+03  0.10566000000E+00 0.  1.
<mgrwt>
<rscale>  1 0.47659225E+03</rscale>
<asrwt>0</asrwt>
<pdfrwt beam="2">  1       21 0.76153976E-01 0.96037432E+03</pdfrwt>
<pdfrwt beam="1">  1       -4 0.11940007E+00 0.96037432E+03</pdfrwt>
<totfact> 0.31721426E+01</totfact>
</mgrwt>
</event>
<event>
 6    2  0.2345636E-005  0.1091016E+04  0.7818608E-02  0.9498377E-01
         -4   -1    0    0    0  501 -0.00000000000E+00  0.00000000000E+00  0.85772904717E+03  0.85772904717E+03  0.00000000000E+00 0. -1.
         21   -1    0    0  501  502  0.00000000000E+00 -0.00000000000E+00 -0.65880582449E+03  0.65880582449E+03  0.00000000000E+00 0.  1.
   -9000010    2    1    2    0  502  0.35653542705E+03  0.16001400103E+03  0.31734874826E+02  0.10914772919E+04  0.10186233775E+04 0.  0.
         13    1    3    3    0    0  0.52575329923E+03  0.46885871337E+03 -0.10785738312E+03  0.71265577315E+03  0.10566000000E+00 0. -1.
         -4    1    3    3    0  502 -0.16921787218E+03 -0.30884471234E+03  0.13959225794E+03  0.37882151877E+03  0.00000000000E+00 0. -1.
        -13    1    1    2    0    0 -0.35653542705E+03 -0.16001400103E+03  0.16718834786E+03  0.42505757973E+03  0.10566000000E+00 0.  1.
<mgrwt>
<rscale>  1 0.84403605E+03</rscale>
<asrwt>0</asrwt>
<pdfrwt beam="2">  1       21 0.10135474E+00 0.10910158E+04</pdfrwt>
<pdfrwt beam="1">  1       -4 0.13195832E+00 0.10910158E+04</pdfrwt>
<totfact> 0.12207546E+01</totfact>
</mgrwt>
</event>
<event>
 6    2  0.2345636E-005  0.1084157E+04  0.7818608E-02  0.9482265E-01
         21   -1    0    0  501  502  0.00000000000E+00  0.00000000000E+00  0.63161292649E+03  0.63161292649E+03  0.00000000000E+00 0. -1.
         -4   -1    0    0    0  501 -0.00000000000E+00 -0.00000000000E+00 -0.11085692151E+04  0.11085692151E+04  0.00000000000E+00 0. -1.
   -9000010    2    1    2    0  502 -0.37919490103E+03 -0.18383366980E+03  0.25432711295E+02  0.10844548282E+04  0.99890533110E+03 0.  0.
         13    1    3    3    0    0 -0.36831434333E+03  0.20825393237E+03  0.37022213772E+03  0.56221846134E+03  0.10566000000E+00 0. -1.
         -4    1    3    3    0  502 -0.10880557709E+02 -0.39208760217E+03 -0.34478942642E+03  0.52223636687E+03  0.00000000000E+00 0. -1.
        -13    1    1    2    0    0  0.37919490103E+03  0.18383366980E+03 -0.50238899993E+03  0.65572731340E+03  0.10566000000E+00 0.  1.
<mgrwt>
<rscale>  1 0.85604059E+03</rscale>
<asrwt>0</asrwt>
<pdfrwt beam="1">  1       21 0.97171219E-01 0.10841566E+04</pdfrwt>
<pdfrwt beam="2">  1       -4 0.17054911E+00 0.10841566E+04</pdfrwt>
<totfact> 0.67893611E+00</totfact>
</mgrwt>
</event>
<event>
 6    2  0.2345636E-005  0.1007353E+04  0.7818608E-02  0.9760897E-01
         -4   -1    0    0    0  501 -0.00000000000E+00  0.00000000000E+00  0.49225891772E+03  0.49225891772E+03  0.00000000000E+00 0. -1.
         21   -1    0    0  501  502  0.00000000000E+00 -0.00000000000E+00 -0.10511787457E+04  0.10511787457E+04  0.00000000000E+00 0. -1.
   -9000010    2    1    2    0  502  0.17997941426E+03 -0.94173041217E+02 -0.75671871047E+03  0.12599141894E+04  0.98666073532E+03 0.  0.
         13    1    3    3    0    0  0.41811173233E+03 -0.16241801238E+02 -0.88462733558E+03  0.97859427284E+03  0.10566000000E+00 0. -1.
         -4    1    3    3    0  502 -0.23813231807E+03 -0.77931239980E+02  0.12790862511E+03  0.28131991656E+03  0.00000000000E+00 0. -1.
        -13    1    1    2    0    0 -0.17997941426E+03  0.94173041217E+02  0.19779888248E+03  0.28352347403E+03  0.10566000000E+00 0.  1.
<mgrwt>
<rscale>  1 0.67503925E+03</rscale>
<asrwt>0</asrwt>
<pdfrwt beam="2">  1       21 0.16171981E+00 0.10073532E+04</pdfrwt>
<pdfrwt beam="1">  1       -4 0.75732141E-01 0.10073532E+04</pdfrwt>
<totfact> 0.13604913E+01</totfact>
</mgrwt>
</event>
<event>
 6    2  0.2345636E-005  0.1254074E+04  0.7818608E-02  0.9200655E-01
         21   -1    0    0  501  502  0.00000000000E+00  0.00000000000E+00  0.85700937259E+03  0.85700937259E+03  0.00000000000E+00 0.  1.
         -4   -1    0    0    0  501 -0.00000000000E+00 -0.00000000000E+00 -0.11789360080E+04  0.11789360080E+04  0.00000000000E+00 0. -1.
   -9000010    2    1    2    0  502 -0.75429878314E+03  0.32872834692E+02 -0.23558370834E+03  0.12760096006E+04  0.10013258908E+04 0.  0.
         13    1    3    3    0    0 -0.92475889174E+03  0.26186109485E+03 -0.23951566176E+03  0.99051401012E+03  0.10566000000E+00 0. -1.
         -4    1    3    3    0  502  0.17046010860E+03 -0.22898826016E+03  0.39319534211E+01  0.28549559046E+03  0.00000000000E+00 0. -1.
        -13    1    1    2    0    0  0.75429878314E+03 -0.32872834692E+02 -0.86342927047E+02  0.75993578000E+03  0.10566000000E+00 0.  1.
<mgrwt>
<rscale>  1 0.11046666E+04</rscale>
<asrwt>0</asrwt>
<pdfrwt beam="1">  1       21 0.13184760E+00 0.12540737E+04</pdfrwt>
<pdfrwt beam="2">  1       -4 0.18137477E+00 0.12540737E+04</pdfrwt>
<totfact> 0.25480952E+00</totfact>
</mgrwt>
</event>
<event>
 6    2  0.2345636E-005  0.1015579E+04  0.7818608E-02  0.9728503E-01
         21   -1    0    0  501  502  0.00000000000E+00  0.00000000000E+00  0.11710235535E+04  0.11710235535E+04  0.00000000000E+00 0. -1.
         -4   -1    0    0    0  501 -0.00000000000E+00 -0.00000000000E+00 -0.33640336683E+03  0.33640336683E+03  0.00000000000E+00 0. -1.
   -9000010    2    1    2    0  502  0.20437040682E+03  0.83465916989E+02  0.77853888231E+03  0.12796574177E+04  0.99129536104E+03 0.  0.
         13    1    3    3    0    0 -0.19434396887E+02  0.47649474459E+03  0.13971874336E+03  0.49693689320E+03  0.10566000000E+00 0. -1.
         -4    1    3    3    0  502  0.22380480371E+03 -0.39302882761E+03  0.63882013895E+03  0.78272052447E+03  0.00000000000E+00 0. -1.
        -13    1    1    2    0    0 -0.20437040682E+03 -0.83465916989E+02  0.56081304371E+02  0.22776950267E+03  0.10566000000E+00 0.  1.
<mgrwt>
<rscale>  1 0.69344823E+03</rscale>
<asrwt>0</asrwt>
<pdfrwt beam="1">  1       21 0.18015747E+00 0.10155788E+04</pdfrwt>
<pdfrwt beam="2">  1       -4 0.51754365E-01 0.10155788E+04</pdfrwt>
<totfact> 0.22834455E+01</totfact>
</mgrwt>
</event>
<event>
 6    2  0.2345636E-005  0.8840194E+03  0.7818608E-02  0.1008697E+00
         -4   -1    0    0    0  501 -0.00000000000E+00  0.00000000000E+00  0.36528788681E+03  0.36528788681E+03  0.00000000000E+00 0. -1.
         21   -1    0    0  501  502  0.00000000000E+00 -0.00000000000E+00 -0.71949134932E+03  0.71949134932E+03  0.00000000000E+00 0. -1.
   -9000010    2    1    2    0  502  0.97215912155E+02 -0.41745175091E+02 -0.39899260882E+03  0.96988941060E+03  0.87766552495E+03 0.  0.
         13    1    3    3    0    0 -0.25758743308E+03  0.14841062296E+03 -0.47487419507E+03  0.56025218517E+03  0.10566000000E+00 0. -1.
         -4    1    3    3    0  502  0.35480334524E+03 -0.19015579805E+03  0.75881586251E+02  0.40963722543E+03  0.00000000000E+00 0. -1.
        -13    1    1    2    0    0 -0.97215912155E+02  0.41745175091E+02  0.44789146305E+02  0.11488982553E+03  0.10566000000E+00 0.  1.
<mgrwt>
<rscale>  1 0.51995721E+03</rscale>
<asrwt>0</asrwt>
<pdfrwt beam="2">  1       21 0.11069098E+00 0.88401944E+03</pdfrwt>
<pdfrwt beam="1">  1       -4 0.56198137E-01 0.88401944E+03</pdfrwt>
<totfact> 0.73702982E+01</totfact>
</mgrwt>
</event>
<event>
 6    2  0.2345636E-005  0.1014119E+04  0.7818608E-02  0.9743193E-01
         21   -1    0    0  501  502  0.00000000000E+00  0.00000000000E+00  0.93772624941E+03  0.93772624941E+03  0.00000000000E+00 0. -1.
         -4   -1    0    0    0  501 -0.00000000000E+00 -0.00000000000E+00 -0.40133670655E+03  0.40133670655E+03  0.00000000000E+00 0. -1.
   -9000010    2    1    2    0  502  0.20393466040E+03 -0.54658456923E+02  0.47000858636E+03  0.11177411650E+04  0.99189734749E+03 0.  0.
         13    1    3    3    0    0 -0.29554798544E+03  0.15441219110E+02 -0.13901793674E+03  0.32697559672E+03  0.10566000000E+00 0. -1.
         -4    1    3    3    0  502  0.49948264584E+03 -0.70099676034E+02  0.60902652311E+03  0.79076556824E+03  0.00000000000E+00 0. -1.
        -13    1    1    2    0    0 -0.20393466040E+03  0.54658456923E+02  0.66380956502E+02  0.22132179101E+03  0.10566000000E+00 0.  1.
<mgrwt>
<rscale>  1 0.68502341E+03</rscale>
<asrwt>0</asrwt>
<pdfrwt beam="1">  1       21 0.14426558E+00 0.10141189E+04</pdfrwt>
<pdfrwt beam="2">  1       -4 0.61744109E-01 0.10141189E+04</pdfrwt>
<totfact> 0.29546623E+01</totfact>
</mgrwt>
</event>
<event>
 6    2  0.2345636E-005  0.1294945E+04  0.7818608E-02  0.9149503E-01
         21   -1    0    0  501  502  0.00000000000E+00  0.00000000000E+00  0.84067710658E+03  0.84067710658E+03  0.00000000000E+00 0.  1.
         -4   -1    0    0    0  501 -0.00000000000E+00 -0.00000000000E+00 -0.15063092846E+04  0.15063092846E+04  0.00000000000E+00 0. -1.
   -9000010    2    1    2    0  502 -0.18826747714E+03 -0.80940888474E+03 -0.77447745102E+03  0.15088726219E+04  0.99312329607E+03 0.  0.
         13    1    3    3    0    0  0.80492067258E+02  0.14649357561E+03  0.92186328666E+02  0.19088653945E+03  0.10566000000E+00 0. -1.
         -4    1    3    3    0  502 -0.26875954440E+03 -0.95590246035E+03 -0.86666377968E+03  0.13179860824E+04  0.00000000000E+00 0. -1.
        -13    1    1    2    0    0  0.18826747714E+03  0.80940888474E+03  0.10884527304E+03  0.83811376929E+03  0.10566000000E+00 0.  1.
<mgrwt>
<rscale>  1 0.11590195E+04</rscale>
<asrwt>0</asrwt>
<pdfrwt beam="1">  1       21 0.12933494E+00 0.12949445E+04</pdfrwt>
<pdfrwt beam="2">  1       -4 0.23173989E+00 0.12949445E+04</pdfrwt>
<totfact> 0.12417693E+00</totfact>
</mgrwt>
</event>
<event>
 6    2  0.2345636E-005  0.1069519E+04  0.7818608E-02  0.9619746E-01
         -4   -1    0    0    0  501 -0.00000000000E+00  0.00000000000E+00  0.86347040635E+03  0.86347040635E+03  0.00000000000E+00 0. -1.
         21   -1    0    0  501  502  0.00000000000E+00 -0.00000000000E+00 -0.65537112029E+03  0.65537112029E+03  0.00000000000E+00 0. -1.
   -9000010    2    1    2    0  502 -0.59487609093E+02 -0.26617800054E+03 -0.13778556756E+03  0.10783578757E+04  0.10341573100E+04 0.  0.
         13    1    3    3    0    0 -0.30612177886E+01  0.20473911019E+03 -0.46098824553E+03  0.50441812812E+03  0.10566000000E+00 0. -1.
         -4    1    3    3    0  502 -0.56426391304E+02 -0.47091711073E+03  0.32320267797E+03  0.57393974759E+03  0.00000000000E+00 0. -1.
        -13    1    1    2    0    0  0.59487609093E+02  0.26617800054E+03  0.34588485362E+03  0.44048365093E+03  0.10566000000E+00 0.  1.
<mgrwt>
<rscale>  1 0.76002930E+03</rscale>
<asrwt>0</asrwt>
<pdfrwt beam="2">  1       21 0.10082633E+00 0.10695190E+04</pdfrwt>
<pdfrwt beam="1">  1       -4 0.13284160E+00 0.10695190E+04</pdfrwt>
<totfact> 0.12183063E+01</totfact>
</mgrwt>
</event>
<event>
 6    2  0.2345636E-005  0.1038344E+04  0.7818608E-02  0.9769386E-01
         -4   -1    0    0    0  501 -0.00000000000E+00  0.00000000000E+00  0.20144716881E+04  0.20144716881E+04  0.00000000000E+00 0. -1.
         21   -1    0    0  501  502  0.00000000000E+00 -0.00000000000E+00 -0.18431582761E+03  0.18431582761E+03  0.00000000000E+00 0. -1.
   -9000010    2    1    2    0  502 -0.17981553565E+03  0.13768535803E+02  0.15600517113E+04  0.18740114974E+04  0.10225627371E+04 0.  0.
         13    1    3    3    0    0  0.37643827706E+02  0.29992138533E+03  0.14736967456E+04  0.15043776136E+04  0.10566000000E+00 0. -1.
         -4    1    3    3    0  502 -0.21745936336E+03 -0.28615284953E+03  0.86354965687E+02  0.36963388387E+03  0.00000000000E+00 0. -1.
        -13    1    1    2    0    0  0.17981553565E+03 -0.13768535803E+02  0.27010414919E+03  0.32477601823E+03  0.10566000000E+00 0.  1.
<mgrwt>
<rscale>  1 0.67031679E+03</rscale>
<asrwt>0</asrwt>
<pdfrwt beam="2">  1       21 0.28356283E-01 0.10383438E+04</pdfrwt>
<pdfrwt beam="1">  1       -4 0.30991871E+00 0.10383438E+04</pdfrwt>
<totfact> 0.13134349E+01</totfact>
</mgrwt>
</event>
<event>
 6    2  0.2345636E-005  0.1128396E+04  0.7818608E-02  0.9388733E-01
         21   -1    0    0  501  502  0.00000000000E+00  0.00000000000E+00  0.42453513954E+03  0.42453513954E+03  0.00000000000E+00 0. -1.
         -4   -1    0    0    0  501 -0.00000000000E+00 -0.00000000000E+00 -0.16348297960E+04  0.16348297960E+04  0.00000000000E+00 0. -1.
   -9000010    2    1    2    0  502  0.49592037430E+03 -0.15920143810E+03 -0.95993767522E+03  0.14814715676E+04  0.10009972775E+04 0.  0.
         13    1    3    3    0    0  0.29753158747E+03 -0.57450424127E+03 -0.41708212116E+03  0.76976468855E+03  0.10566000000E+00 0. -1.
         -4    1    3    3    0  502  0.19838878683E+03  0.41530280317E+03 -0.54285555405E+03  0.71170687901E+03  0.00000000000E+00 0. -1.
        -13    1    1    2    0    0 -0.49592037430E+03  0.15920143810E+03 -0.25035698127E+03  0.57789336800E+03  0.10566000000E+00 0.  1.
<mgrwt>
<rscale>  1 0.93008764E+03</rscale>
<asrwt>0</asrwt>
<pdfrwt beam="1">  1       21 0.65313100E-01 0.11283961E+04</pdfrwt>
<pdfrwt beam="2">  1       -4 0.25151227E+00 0.11283961E+04</pdfrwt>
<totfact> 0.50732837E+00</totfact>
</mgrwt>
</event>
<event>
 6    2  0.2345636E-005  0.1051074E+04  0.7818608E-02  0.9559489E-01
         21   -1    0    0  501  502  0.00000000000E+00  0.00000000000E+00  0.83723346777E+03  0.83723346777E+03  0.00000000000E+00 0. -1.
         -4   -1    0    0    0  501 -0.00000000000E+00 -0.00000000000E+00 -0.10384702482E+04  0.10384702482E+04  0.00000000000E+00 0. -1.
   -9000010    2    1    2    0  502  0.34812827376E+03  0.60745193078E+02  0.44323106676E+03  0.11407056951E+04  0.98988505938E+03 0.  0.
         13    1    3    3    0    0  0.57832058158E+03  0.35377946573E+03  0.30260175263E+03  0.74241661976E+03  0.10566000000E+00 0. -1.
         -4    1    3    3    0  502 -0.23019230782E+03 -0.29303427265E+03  0.14062931413E+03  0.39828907532E+03  0.00000000000E+00 0. -1.
        -13    1    1    2    0    0 -0.34812827376E+03 -0.60745193078E+02 -0.64446784717E+03  0.73499802086E+03  0.10566000000E+00 0.  1.
<mgrwt>
<rscale>  1 0.80036462E+03</rscale>
<asrwt>0</asrwt>
<pdfrwt beam="1">  1       21 0.12880515E+00 0.10510736E+04</pdfrwt>
<pdfrwt beam="2">  1       -4 0.15976465E+00 0.10510736E+04</pdfrwt>
<totfact> 0.39816020E+00</totfact>
</mgrwt>
</event>
<event>
 6    2  0.2345636E-005  0.1004415E+04  0.7818608E-02  0.9707592E-01
         -4   -1    0    0    0  501 -0.00000000000E+00  0.00000000000E+00  0.98995474997E+03  0.98995474997E+03  0.00000000000E+00 0. -1.
         21   -1    0    0  501  502  0.00000000000E+00 -0.00000000000E+00 -0.75036578788E+03  0.75036578788E+03  0.00000000000E+00 0. -1.
   -9000010    2    1    2    0  502  0.17217594912E+03 -0.17389564154E+03 -0.38020380702E+03  0.10739667734E+04  0.97414857382E+03 0.  0.
         13    1    3    3    0    0  0.79624681128E+02  0.36820547236E+03 -0.36391034607E+03  0.52378059420E+03  0.10566000000E+00 0. -1.
         -4    1    3    3    0  502  0.92551267995E+02 -0.54210111391E+03 -0.16293460953E+02  0.55018617919E+03  0.00000000000E+00 0. -1.
        -13    1    1    2    0    0 -0.17217594912E+03  0.17389564154E+03  0.61979276910E+03  0.66635376445E+03  0.10566000000E+00 0.  1.
<mgrwt>
<rscale>  1 0.70566571E+03</rscale>
<asrwt>0</asrwt>
<pdfrwt beam="2">  1       21 0.11544089E+00 0.10044151E+04</pdfrwt>
<pdfrwt beam="1">  1       -4 0.15230073E+00 0.10044151E+04</pdfrwt>
<totfact> 0.60746993E+00</totfact>
</mgrwt>
</event>
<event>
 6    2  0.2345636E-005  0.1029330E+04  0.7818608E-02  0.9681578E-01
         21   -1    0    0  501  502  0.00000000000E+00  0.00000000000E+00  0.14924019559E+04  0.14924019559E+04  0.00000000000E+00 0. -1.
         -4   -1    0    0    0  501 -0.00000000000E+00 -0.00000000000E+00 -0.35398782428E+03  0.35398782428E+03  0.00000000000E+00 0. -1.
   -9000010    2    1    2    0  502  0.12429383872E+03  0.21474339033E+03  0.12095745336E+04  0.15882667552E+04  0.99897800337E+03 0.  0.
         13    1    3    3    0    0  0.92095650401E+02 -0.12126553655E+03  0.12400328982E+04  0.12493472452E+04  0.10566000000E+00 0. -1.
         -4    1    3    3    0  502  0.32198188316E+02  0.33600892688E+03 -0.30458364635E+02  0.33891950999E+03  0.00000000000E+00 0. -1.
        -13    1    1    2    0    0 -0.12429383872E+03 -0.21474339033E+03 -0.71160402027E+02  0.25812302496E+03  0.10566000000E+00 0.  1.
<mgrwt>
<rscale>  1 0.72124303E+03</rscale>
<asrwt>0</asrwt>
<pdfrwt beam="1">  1       21 0.22960030E+00 0.10293302E+04</pdfrwt>
<pdfrwt beam="2">  1       -4 0.54459666E-01 0.10293302E+04</pdfrwt>
<totfact> 0.93922707E+00</totfact>
</mgrwt>
</event>
<event>
 6    2  0.2345636E-005  0.1147239E+04  0.7818608E-02  0.9370748E-01
         -4   -1    0    0    0  501 -0.00000000000E+00  0.00000000000E+00  0.10392169098E+04  0.10392169098E+04  0.00000000000E+00 0. -1.
         21   -1    0    0  501  502  0.00000000000E+00 -0.00000000000E+00 -0.87361486698E+03  0.87361486698E+03  0.00000000000E+00 0. -1.
   -9000010    2    1    2    0  502  0.39884226332E+03 -0.34700369107E+03 -0.32417365649E+03  0.11921605900E+04  0.10181707127E+04 0.  0.
         13    1    3    3    0    0  0.20259702683E+03  0.35566784486E+03 -0.18612739711E+03  0.44965385605E+03  0.10566000000E+00 0. -1.
         -4    1    3    3    0  502  0.19624523650E+03 -0.70267153593E+03 -0.13804625938E+03  0.74250673397E+03  0.00000000000E+00 0. -1.
        -13    1    1    2    0    0 -0.39884226332E+03  0.34700369107E+03  0.48977569937E+03  0.72067118680E+03  0.10566000000E+00 0.  1.
<mgrwt>
<rscale>  1 0.94522608E+03</rscale>
<asrwt>0</asrwt>
<pdfrwt beam="2">  1       21 0.13440229E+00 0.11472394E+04</pdfrwt>
<pdfrwt beam="1">  1       -4 0.15987952E+00 0.11472394E+04</pdfrwt>
<totfact> 0.35050561E+00</totfact>
</mgrwt>
</event>
<event>
 6    2  0.2345636E-005  0.1029705E+04  0.7818608E-02  0.9692439E-01
         -4   -1    0    0    0  501 -0.00000000000E+00  0.00000000000E+00  0.46275771847E+03  0.46275771847E+03  0.00000000000E+00 0. -1.
         21   -1    0    0  501  502  0.00000000000E+00 -0.00000000000E+00 -0.93234386462E+03  0.93234386462E+03  0.00000000000E+00 0. -1.
   -9000010    2    1    2    0  502  0.13507065041E+03  0.19712404586E+03 -0.51586917335E+03  0.11517004742E+04  0.10015942333E+04 0.  0.
         13    1    3    3    0    0  0.35088618143E+03  0.18732203983E+03 -0.74017246637E+03  0.84027730545E+03  0.10566000000E+00 0. -1.
         -4    1    3    3    0  502 -0.21581553102E+03  0.98020060307E+01  0.22430329302E+03  0.31142316871E+03  0.00000000000E+00 0. -1.
        -13    1    1    2    0    0 -0.13507065041E+03 -0.19712404586E+03  0.46283027199E+02  0.24340110893E+03  0.10566000000E+00 0.  1.
<mgrwt>
<rscale>  1 0.71468736E+03</rscale>
<asrwt>0</asrwt>
<pdfrwt beam="2">  1       21 0.14343752E+00 0.10297053E+04</pdfrwt>
<pdfrwt beam="1">  1       -4 0.71193495E-01 0.10297053E+04</pdfrwt>
<totfact> 0.21853261E+01</totfact>
</mgrwt>
</event>
<event>
 6    2  0.2345636E-005  0.1005435E+04  0.7818608E-02  0.1007610E+00
         21   -1    0    0  501  502  0.00000000000E+00  0.00000000000E+00  0.87221744057E+03  0.87221744057E+03  0.00000000000E+00 0. -1.
         -4   -1    0    0    0  501 -0.00000000000E+00 -0.00000000000E+00 -0.34040718400E+03  0.34040718400E+03  0.00000000000E+00 0. -1.
   -9000010    2    1    2    0  502 -0.46548784653E+01  0.74231243341E+02  0.53353784377E+03  0.11382274398E+04  0.10026799732E+04 0.  0.
         13    1    3    3    0    0 -0.22800668655E+03  0.17066701347E+03  0.75643471343E+03  0.80827456068E+03  0.10566000000E+00 0. -1.
         -4    1    3    3    0  502  0.22335180808E+03 -0.96435770133E+02 -0.22289686966E+03  0.32995287912E+03  0.00000000000E+00 0. -1.
        -13    1    1    2    0    0  0.46548784653E+01 -0.74231243341E+02 -0.17275872023E+01  0.74397184779E+02  0.10566000000E+00 0.  1.
<mgrwt>
<rscale>  1 0.52435483E+03</rscale>
<asrwt>0</asrwt>
<pdfrwt beam="1">  1       21 0.13418730E+00 0.10054348E+04</pdfrwt>
<pdfrwt beam="2">  1       -4 0.52370336E-01 0.10054348E+04</pdfrwt>
<totfact> 0.51367168E+01</totfact>
</mgrwt>
</event>
<event>
 6    2  0.2345636E-005  0.1068834E+04  0.7818608E-02  0.9758885E-01
         21   -1    0    0  501  502  0.00000000000E+00  0.00000000000E+00  0.45982433550E+03  0.45982433550E+03  0.00000000000E+00 0. -1.
         -4   -1    0    0    0  501 -0.00000000000E+00 -0.00000000000E+00 -0.83675637346E+03  0.83675637346E+03  0.00000000000E+00 0. -1.
   -9000010    2    1    2    0  502 -0.15022398183E+03 -0.82091057461E+02 -0.33818911471E+03  0.11210608762E+04  0.10550352716E+04 0.  0.
         13    1    3    3    0    0  0.14478086690E+03  0.41463368728E+03 -0.31937637628E+03  0.54303211226E+03  0.10566000000E+00 0. -1.
         -4    1    3    3    0  502 -0.29500484872E+03 -0.49672474474E+03 -0.18812738425E+02  0.57802876394E+03  0.00000000000E+00 0. -1.
        -13    1    1    2    0    0  0.15022398183E+03  0.82091057461E+02 -0.38742923248E+02  0.17551983277E+03  0.10566000000E+00 0.  1.
<mgrwt>
<rscale>  1 0.67616488E+03</rscale>
<asrwt>0</asrwt>
<pdfrwt beam="1">  1       21 0.70742206E-01 0.10688338E+04</pdfrwt>
<pdfrwt beam="2">  1       -4 0.12873175E+00 0.10688338E+04</pdfrwt>
<totfact> 0.30773740E+01</totfact>
</mgrwt>
</event>
<event>
 6    2  0.2345636E-005  0.1078610E+04  0.7818608E-02  0.9469119E-01
         21   -1    0    0  501  502  0.00000000000E+00  0.00000000000E+00  0.82897274501E+03  0.82897274501E+03  0.00000000000E+00 0. -1.
         -4   -1    0    0    0  501 -0.00000000000E+00 -0.00000000000E+00 -0.76271714499E+03  0.76271714499E+03  0.00000000000E+00 0. -1.
   -9000010    2    1    2    0  502  0.12777918865E+02 -0.44801031207E+03  0.25015024781E+03  0.11072378618E+04  0.98108308583E+03 0.  0.
         13    1    3    3    0    0  0.16800656016E+03 -0.11993081509E+03  0.58071740763E+03  0.61631349438E+03  0.10566000000E+00 0. -1.
         -4    1    3    3    0  502 -0.15522864129E+03 -0.32807949698E+03 -0.33056715982E+03  0.49092436747E+03  0.00000000000E+00 0. -1.
        -13    1    1    2    0    0 -0.12777918865E+02  0.44801031207E+03 -0.18389464779E+03  0.48445202815E+03  0.10566000000E+00 0.  1.
<mgrwt>
<rscale>  1 0.86599348E+03</rscale>
<asrwt>0</asrwt>
<pdfrwt beam="1">  1       21 0.12753427E+00 0.10786105E+04</pdfrwt>
<pdfrwt beam="2">  1       -4 0.11734110E+00 0.10786105E+04</pdfrwt>
<totfact> 0.91417100E+00</totfact>
</mgrwt>
</event>
<event>
 6    2  0.2345636E-005  0.1009698E+04  0.7818608E-02  0.9927760E-01
         21   -1    0    0  501  502  0.00000000000E+00  0.00000000000E+00  0.36808711720E+03  0.36808711720E+03  0.00000000000E+00 0. -1.
         -4   -1    0    0    0  501 -0.00000000000E+00 -0.00000000000E+00 -0.87607093888E+03  0.87607093888E+03  0.00000000000E+00 0. -1.
   -9000010    2    1    2    0  502 -0.53460057223E+02  0.10429047858E+03 -0.49993504163E+03  0.11266877378E+04  0.10028737364E+04 0.  0.
         13    1    3    3    0    0  0.88023434613E+02  0.48281130378E+03 -0.90271146661E+01  0.49085270710E+03  0.10566000000E+00 0. -1.
         -4    1    3    3    0  502 -0.14148349184E+03 -0.37852082520E+03 -0.49090792696E+03  0.63583503075E+03  0.00000000000E+00 0. -1.
        -13    1    1    2    0    0  0.53460057223E+02 -0.10429047858E+03 -0.80487800466E+01  0.11747031823E+03  0.10566000000E+00 0.  1.
<mgrwt>
<rscale>  1 0.58934592E+03</rscale>
<asrwt>0</asrwt>
<pdfrwt beam="1">  1       21 0.56628787E-01 0.10096981E+04</pdfrwt>
<pdfrwt beam="2">  1       -4 0.13478014E+00 0.10096981E+04</pdfrwt>
<totfact> 0.45348644E+01</totfact>
</mgrwt>
</event>
<event>
 6    2  0.2345636E-005  0.1012218E+04  0.7818608E-02  0.9727602E-01
         21   -1    0    0  501  502  0.00000000000E+00  0.00000000000E+00  0.41953947925E+03  0.41953947925E+03  0.00000000000E+00 0. -1.
         -4   -1    0    0    0  501 -0.00000000000E+00 -0.00000000000E+00 -0.16283697859E+04  0.16283697859E+04  0.00000000000E+00 0. -1.
   -9000010    2    1    2    0  502  0.25903845644E+01  0.22361939503E+03 -0.22228958622E+03  0.10363387297E+04  0.98720461843E+03 0.  0.
         13    1    3    3    0    0  0.10594068428E+03 -0.71593394581E+02  0.35633781702E+03  0.37858380015E+03  0.10566000000E+00 0. -1.
         -4    1    3    3    0  502 -0.10335029971E+03  0.29521278961E+03 -0.57862740323E+03  0.65775492957E+03  0.00000000000E+00 0. -1.
        -13    1    1    2    0    0 -0.25903845644E+01 -0.22361939503E+03 -0.98654072045E+03  0.10115705355E+04  0.10566000000E+00 0.  1.
<mgrwt>
<rscale>  1 0.69396922E+03</rscale>
<asrwt>0</asrwt>
<pdfrwt beam="1">  1       21 0.64544535E-01 0.10122180E+04</pdfrwt>
<pdfrwt beam="2">  1       -4 0.25051843E+00 0.10122180E+04</pdfrwt>
<totfact> 0.53633579E+00</totfact>
</mgrwt>
</event>
<event>
 6    2  0.2345636E-005  0.1009797E+04  0.7818608E-02  0.9985828E-01
         21   -1    0    0  501  502  0.00000000000E+00  0.00000000000E+00  0.27308002904E+03  0.27308002904E+03  0.00000000000E+00 0. -1.
         -4   -1    0    0    0  501 -0.00000000000E+00 -0.00000000000E+00 -0.11274079333E+04  0.11274079333E+04  0.00000000000E+00 0. -1.
   -9000010    2    1    2    0  502 -0.17843419681E+02 -0.95758873097E+02 -0.80442287419E+03  0.12910408400E+04  0.10050881258E+04 0.  0.
         13    1    3    3    0    0  0.93210273883E+02 -0.50802703321E+03 -0.66471947508E+03  0.84180259760E+03  0.10566000000E+00 0. -1.
         -4    1    3    3    0  502 -0.11105369356E+03  0.41226816011E+03 -0.13970339911E+03  0.44923824238E+03  0.00000000000E+00 0. -1.
        -13    1    1    2    0    0  0.17843419681E+02  0.95758873097E+02 -0.49905030098E+02  0.10944712237E+03  0.10566000000E+00 0.  1.
<mgrwt>
<rscale>  1 0.56276025E+03</rscale>
<asrwt>0</asrwt>
<pdfrwt beam="1">  1       21 0.42012313E-01 0.10097972E+04</pdfrwt>
<pdfrwt beam="2">  1       -4 0.17344737E+00 0.10097972E+04</pdfrwt>
<totfact> 0.43561037E+01</totfact>
</mgrwt>
</event>
<event>
 6    2  0.2345636E-005  0.1022243E+04  0.7818608E-02  0.9633948E-01
         -4   -1    0    0    0  501 -0.00000000000E+00  0.00000000000E+00  0.12133876002E+04  0.12133876002E+04  0.00000000000E+00 0. -1.
         21   -1    0    0  501  502  0.00000000000E+00 -0.00000000000E+00 -0.38119538682E+03  0.38119538682E+03  0.00000000000E+00 0. -1.
   -9000010    2    1    2    0  502  0.23679279960E+03 -0.18028541655E+03  0.46807371524E+03  0.11243107752E+04  0.97796117252E+03 0.  0.
         13    1    3    3    0    0  0.24977700138E+02 -0.29352674364E+02  0.74407393463E+03  0.74507147064E+03  0.10566000000E+00 0. -1.
         -4    1    3    3    0  502  0.21181509946E+03 -0.15093274219E+03 -0.27600021939E+03  0.37923930456E+03  0.00000000000E+00 0. -1.
        -13    1    1    2    0    0 -0.23679279960E+03  0.18028541655E+03  0.36411849810E+03  0.47027221179E+03  0.10566000000E+00 0.  1.
<mgrwt>
<rscale>  1 0.75089436E+03</rscale>
<asrwt>0</asrwt>
<pdfrwt beam="2">  1       21 0.58645445E-01 0.10222435E+04</pdfrwt>
<pdfrwt beam="1">  1       -4 0.18667501E+00 0.10222435E+04</pdfrwt>
<totfact> 0.17102949E+01</totfact>
</mgrwt>
</event>
<event>
 6    2  0.2345636E-005  0.1065571E+04  0.7818608E-02  0.9683455E-01
         -4   -1    0    0    0  501 -0.00000000000E+00  0.00000000000E+00  0.96586187093E+03  0.96586187093E+03  0.00000000000E+00 0. -1.
         21   -1    0    0  501  502  0.00000000000E+00 -0.00000000000E+00 -0.45707956884E+03  0.45707956884E+03  0.00000000000E+00 0. -1.
   -9000010    2    1    2    0  502  0.19420273900E+03  0.10806986032E+03  0.27522726219E+03  0.11005414299E+04  0.10421360729E+04 0.  0.
         13    1    3    3    0    0  0.30655803274E+02  0.28140396893E+03 -0.33903528366E+03  0.44167058623E+03  0.10566000000E+00 0. -1.
         -4    1    3    3    0  502  0.16354693572E+03 -0.17333410861E+03  0.61426254586E+03  0.65887084367E+03  0.00000000000E+00 0. -1.
        -13    1    1    2    0    0 -0.19420273900E+03 -0.10806986032E+03  0.23355503990E+03  0.32240000988E+03  0.10566000000E+00 0.  1.
<mgrwt>
<rscale>  1 0.72010502E+03</rscale>
<asrwt>0</asrwt>
<pdfrwt beam="2">  1       21 0.70319934E-01 0.10655709E+04</pdfrwt>
<pdfrwt beam="1">  1       -4 0.14859413E+00 0.10655709E+04</pdfrwt>
<totfact> 0.21424632E+01</totfact>
</mgrwt>
</event>
<event>
 6    2  0.2345636E-005  0.1103206E+04  0.7818608E-02  0.9449917E-01
         21   -1    0    0  501  502  0.00000000000E+00  0.00000000000E+00  0.33681717406E+03  0.33681717406E+03  0.00000000000E+00 0. -1.
         -4   -1    0    0    0  501 -0.00000000000E+00 -0.00000000000E+00 -0.18235451348E+04  0.18235451348E+04  0.00000000000E+00 0. -1.
   -9000010    2    1    2    0  502 -0.10425704681E+03  0.43595966838E+03 -0.91112495333E+03  0.14308082001E+04  0.10080342557E+04 0.  0.
         13    1    3    3    0    0  0.17349570467E+03  0.53829292949E+03 -0.10921418544E+03  0.57601023163E+03  0.10566000000E+00 0. -1.
         -4    1    3    3    0  502 -0.27775275148E+03 -0.10233326112E+03 -0.80191076789E+03  0.85479796849E+03  0.00000000000E+00 0. -1.
        -13    1    1    2    0    0  0.10425704681E+03 -0.43595966838E+03 -0.57560300744E+03  0.72955410875E+03  0.10566000000E+00 0.  1.
<mgrwt>
<rscale>  1 0.88079158E+03</rscale>
<asrwt>0</asrwt>
<pdfrwt beam="1">  1       21 0.51818025E-01 0.11032060E+04</pdfrwt>
<pdfrwt beam="2">  1       -4 0.28054541E+00 0.11032060E+04</pdfrwt>
<totfact> 0.56309650E+00</totfact>
</mgrwt>
</event>
<event>
 6    2  0.2345636E-005  0.1229894E+04  0.7818608E-02  0.9289832E-01
         21   -1    0    0  501  502  0.00000000000E+00  0.00000000000E+00  0.12284029811E+04  0.12284029811E+04  0.00000000000E+00 0. -1.
         -4   -1    0    0    0  501 -0.00000000000E+00 -0.00000000000E+00 -0.68776481159E+03  0.68776481159E+03  0.00000000000E+00 0. -1.
   -9000010    2    1    2    0  502 -0.15309011084E+03 -0.55483449976E+03  0.19629791411E+03  0.12454606086E+04  0.10869044817E+04 0.  0.
         13    1    3    3    0    0 -0.34247403571E+03  0.10700772538E+02  0.47618603536E+03  0.58664821069E+03  0.10566000000E+00 0. -1.
         -4    1    3    3    0  502  0.18938392487E+03 -0.56553527230E+03 -0.27988812125E+03  0.65881239790E+03  0.00000000000E+00 0. -1.
        -13    1    1    2    0    0  0.15309011084E+03  0.55483449976E+03  0.34434025539E+03  0.67070718410E+03  0.10566000000E+00 0.  1.
<mgrwt>
<rscale>  1 0.10172434E+04</rscale>
<asrwt>0</asrwt>
<pdfrwt beam="1">  1       21 0.18898507E+00 0.12298940E+04</pdfrwt>
<pdfrwt beam="2">  1       -4 0.10580997E+00 0.12298940E+04</pdfrwt>
<totfact> 0.37858583E+00</totfact>
</mgrwt>
</event>
<event>
 6    2  0.2345636E-005  0.1044243E+04  0.7818608E-02  0.9825293E-01
         -4   -1    0    0    0  501 -0.00000000000E+00  0.00000000000E+00  0.65783165926E+03  0.65783165926E+03  0.00000000000E+00 0. -1.
         21   -1    0    0  501  502  0.00000000000E+00 -0.00000000000E+00 -0.12000432171E+04  0.12000432171E+04  0.00000000000E+00 0. -1.
   -9000010    2    1    2    0  502 -0.11259107470E+03  0.95359252648E+02 -0.95773480174E+03  0.14169330270E+04  0.10337664704E+04 0.  0.
         13    1    3    3    0    0 -0.30355670211E+03 -0.37208562028E+03 -0.23328249909E+03  0.53386806962E+03  0.10566000000E+00 0. -1.
         -4    1    3    3    0  502  0.19096562741E+03  0.46744487293E+03 -0.72445230265E+03  0.88306495735E+03  0.00000000000E+00 0. -1.
        -13    1    1    2    0    0  0.11259107470E+03 -0.95359252648E+02  0.41552324389E+03  0.44094184939E+03  0.10566000000E+00 0.  1.
<mgrwt>
<rscale>  1 0.64022676E+03</rscale>
<asrwt>0</asrwt>
<pdfrwt beam="2">  1       21 0.18462203E+00 0.10442429E+04</pdfrwt>
<pdfrwt beam="1">  1       -4 0.10120487E+00 0.10442429E+04</pdfrwt>
<totfact> 0.46421871E+00</totfact>
</mgrwt>
</event>
<event>
 6    2  0.2345636E-005  0.1007695E+04  0.7818608E-02  0.9909071E-01
         -4   -1    0    0    0  501 -0.00000000000E+00  0.00000000000E+00  0.69036435644E+03  0.69036435644E+03  0.00000000000E+00 0. -1.
         21   -1    0    0  501  502  0.00000000000E+00 -0.00000000000E+00 -0.65526266781E+03  0.65526266781E+03  0.00000000000E+00 0. -1.
   -9000010    2    1    2    0  502 -0.12377333887E+03  0.18653478970E+02 -0.24654587929E+03  0.10374174278E+04  0.99989112263E+03 0.  0.
         13    1    3    3    0    0  0.66756399269E+02 -0.45484596564E+03  0.22855012087E+02  0.46028646737E+03  0.10566000000E+00 0. -1.
         -4    1    3    3    0  502 -0.19052973813E+03  0.47349944461E+03 -0.26940089137E+03  0.57713096038E+03  0.00000000000E+00 0. -1.
        -13    1    1    2    0    0  0.12377333887E+03 -0.18653478970E+02  0.28164756791E+03  0.30820959649E+03  0.10566000000E+00 0.  1.
<mgrwt>
<rscale>  1 0.59823659E+03</rscale>
<asrwt>0</asrwt>
<pdfrwt beam="2">  1       21 0.10080964E+00 0.10076954E+04</pdfrwt>
<pdfrwt beam="1">  1       -4 0.10620990E+00 0.10076954E+04</pdfrwt>
<totfact> 0.21510834E+01</totfact>
</mgrwt>
</event>
<event>
 6    2  0.2345636E-005  0.1035200E+04  0.7818608E-02  0.1001658E+00
         -4   -1    0    0    0  501 -0.00000000000E+00  0.00000000000E+00  0.15469775021E+03  0.15469775021E+03  0.00000000000E+00 0. -1.
         21   -1    0    0  501  502  0.00000000000E+00 -0.00000000000E+00 -0.21796133580E+04  0.21796133580E+04  0.00000000000E+00 0. -1.
   -9000010    2    1    2    0  502  0.77948660570E+02 -0.25651472570E+02 -0.19938441282E+04  0.22465646568E+04  0.10319420322E+04 0.  0.
         13    1    3    3    0    0  0.12973806239E+03  0.23077687473E+03 -0.31217079445E+02  0.26657915889E+03  0.10566000000E+00 0. -1.
         -4    1    3    3    0  502 -0.51789401825E+02 -0.25642834730E+03 -0.19626270487E+04  0.19799854979E+04  0.00000000000E+00 0. -1.
        -13    1    1    2    0    0 -0.77948660570E+02  0.25651472570E+02 -0.31071479622E+02  0.87746451436E+02  0.10566000000E+00 0.  1.
<mgrwt>
<rscale>  1 0.54929071E+03</rscale>
<asrwt>0</asrwt>
<pdfrwt beam="2">  1       21 0.33532508E+00 0.10351997E+04</pdfrwt>
<pdfrwt beam="1">  1       -4 0.23799657E-01 0.10351997E+04</pdfrwt>
<totfact> 0.10736571E+01</totfact>
</mgrwt>
</event>
<event>
 6    2  0.2345636E-005  0.1015360E+04  0.7818608E-02  0.9697470E-01
         -4   -1    0    0    0  501 -0.00000000000E+00  0.00000000000E+00  0.42279981079E+03  0.42279981079E+03  0.00000000000E+00 0. -1.
         21   -1    0    0  501  502  0.00000000000E+00 -0.00000000000E+00 -0.95939798467E+03  0.95939798467E+03  0.00000000000E+00 0. -1.
   -9000010    2    1    2    0  502 -0.17205676898E+03 -0.17449934231E+03 -0.50838021446E+03  0.11355202395E+04  0.98534370634E+03 0.  0.
         13    1    3    3    0    0  0.96243431211E+02  0.10651444967E+03 -0.69132732591E+03  0.70607478977E+03  0.10566000000E+00 0. -1.
         -4    1    3    3    0  502 -0.26830020019E+03 -0.28101379198E+03  0.18294711145E+03  0.42944544973E+03  0.00000000000E+00 0. -1.
        -13    1    1    2    0    0  0.17205676898E+03  0.17449934231E+03 -0.28217959422E+02  0.24667755596E+03  0.10566000000E+00 0.  1.
<mgrwt>
<rscale>  1 0.71167607E+03</rscale>
<asrwt>0</asrwt>
<pdfrwt beam="2">  1       21 0.14759969E+00 0.10153599E+04</pdfrwt>
<pdfrwt beam="1">  1       -4 0.65046125E-01 0.10153599E+04</pdfrwt>
<totfact> 0.24732522E+01</totfact>
</mgrwt>
</event>
<event>
 6    2  0.2345636E-005  0.1016107E+04  0.7818608E-02  0.9821949E-01
         21   -1    0    0  501  502  0.00000000000E+00  0.00000000000E+00  0.86270758786E+03  0.86270758786E+03  0.00000000000E+00 0. -1.
         -4   -1    0    0    0  501 -0.00000000000E+00 -0.00000000000E+00 -0.90778885779E+03  0.90778885779E+03  0.00000000000E+00 0. -1.
   -9000010    2    1    2    0  502  0.67410988640E+02 -0.14720501356E+03  0.54887051097E+03  0.11548729514E+04  0.10031246875E+04 0.  0.
         13    1    3    3    0    0 -0.64135001199E+02 -0.20225098106E+02  0.82279354238E+03  0.82553714485E+03  0.10566000000E+00 0. -1.
         -4    1    3    3    0  502  0.13154598984E+03 -0.12697991545E+03 -0.27392303141E+03  0.32933580660E+03  0.00000000000E+00 0. -1.
        -13    1    1    2    0    0 -0.67410988640E+02  0.14720501356E+03 -0.59395178091E+03  0.61562349420E+03  0.10566000000E+00 0.  1.
<mgrwt>
<rscale>  1 0.64197813E+03</rscale>
<asrwt>0</asrwt>
<pdfrwt beam="1">  1       21 0.13272425E+00 0.10161066E+04</pdfrwt>
<pdfrwt beam="2">  1       -4 0.13965982E+00 0.10161066E+04</pdfrwt>
<totfact> 0.53009031E+00</totfact>
</mgrwt>
</event>
<event>
 6    2  0.2345636E-005  0.1018144E+04  0.7818608E-02  0.9682329E-01
         -4   -1    0    0    0  501 -0.00000000000E+00  0.00000000000E+00  0.91095740894E+03  0.91095740894E+03  0.00000000000E+00 0. -1.
         21   -1    0    0  501  502  0.00000000000E+00 -0.00000000000E+00 -0.51879252665E+03  0.51879252665E+03  0.00000000000E+00 0. -1.
   -9000010    2    1    2    0  502 -0.11471010988E+03 -0.22857217222E+03  0.72991598238E+02  0.10207569728E+04  0.98550158642E+03 0.  0.
         13    1    3    3    0    0 -0.15552001401E+03 -0.60337676190E+03  0.13794229638E+03  0.63818342180E+03  0.10566000000E+00 0. -1.
         -4    1    3    3    0  502  0.40809904135E+02  0.37480458968E+03 -0.64950698141E+02  0.38257355098E+03  0.00000000000E+00 0. -1.
        -13    1    1    2    0    0  0.11471010988E+03  0.22857217222E+03  0.31917328405E+03  0.40899296283E+03  0.10566000000E+00 0.  1.
<mgrwt>
<rscale>  1 0.72078731E+03</rscale>
<asrwt>0</asrwt>
<pdfrwt beam="2">  1       21 0.79814235E-01 0.10181439E+04</pdfrwt>
<pdfrwt beam="1">  1       -4 0.14014729E+00 0.10181439E+04</pdfrwt>
<totfact> 0.18732201E+01</totfact>
</mgrwt>
</event>
<event>
 6    2  0.2345636E-005  0.1199182E+04  0.7818608E-02  0.9276916E-01
         21   -1    0    0  501  502  0.00000000000E+00  0.00000000000E+00  0.21861523200E+04  0.21861523200E+04  0.00000000000E+00 0. -1.
         -4   -1    0    0    0  501 -0.00000000000E+00 -0.00000000000E+00 -0.40650128208E+03  0.40650128208E+03  0.00000000000E+00 0. -1.
   -9000010    2    1    2    0  502 -0.27031274074E+03 -0.59228138083E+03  0.13821083858E+04  0.18298257164E+04  0.10070612445E+04 0.  0.
         13    1    3    3    0    0  0.13618574533E+03  0.82786886166E+02  0.88251885568E+03  0.89679416119E+03  0.10566000000E+00 0. -1.
         -4    1    3    3    0  502 -0.40649848608E+03 -0.67506826699E+03  0.49958953017E+03  0.93303155516E+03  0.00000000000E+00 0. -1.
        -13    1    1    2    0    0  0.27031274074E+03  0.59228138083E+03  0.39754265211E+03  0.76282788576E+03  0.10566000000E+00 0.  1.
<mgrwt>
<rscale>  1 0.10293606E+04</rscale>
<asrwt>0</asrwt>
<pdfrwt beam="1">  1       21 0.33633112E+00 0.11991825E+04</pdfrwt>
<pdfrwt beam="2">  1       -4 0.62538660E-01 0.11991825E+04</pdfrwt>
<totfact> 0.14372016E+00</totfact>
</mgrwt>
</event>
<event>
 6    2  0.2345636E-005  0.1037207E+04  0.7818608E-02  0.9651580E-01
         -4   -1    0    0    0  501 -0.00000000000E+00  0.00000000000E+00  0.13561379596E+04  0.13561379596E+04  0.00000000000E+00 0. -1.
         21   -1    0    0  501  502  0.00000000000E+00 -0.00000000000E+00 -0.34652408166E+03  0.34652408166E+03  0.00000000000E+00 0. -1.
   -9000010    2    1    2    0  502 -0.26370619903E+03 -0.49796764486E+02  0.55916868986E+03  0.11783324161E+04  0.10018867112E+04 0.  0.
         13    1    3    3    0    0 -0.56903128979E+03 -0.28472259139E+03  0.44523307945E+03  0.77659260169E+03  0.10566000000E+00 0. -1.
         -4    1    3    3    0  502  0.30532509076E+03  0.23492582691E+03  0.11393561041E+03  0.40173981445E+03  0.00000000000E+00 0. -1.
        -13    1    1    2    0    0  0.26370619903E+03  0.49796764486E+02  0.45044518811E+03  0.52432962515E+03  0.10566000000E+00 0.  1.
<mgrwt>
<rscale>  1 0.73974346E+03</rscale>
<asrwt>0</asrwt>
<pdfrwt beam="2">  1       21 0.53311398E-01 0.10372067E+04</pdfrwt>
<pdfrwt beam="1">  1       -4 0.20863661E+00 0.10372067E+04</pdfrwt>
<totfact> 0.15039945E+01</totfact>
</mgrwt>
</event>
<event>
 6    2  0.2345636E-005  0.1047681E+04  0.7818608E-02  0.9628495E-01
         -4   -1    0    0    0  501 -0.00000000000E+00  0.00000000000E+00  0.24523406792E+03  0.24523406792E+03  0.00000000000E+00 0. -1.
         21   -1    0    0  501  502  0.00000000000E+00 -0.00000000000E+00 -0.19245672456E+04  0.19245672456E+04  0.00000000000E+00 0. -1.
   -9000010    2    1    2    0  502  0.12916705671E+03  0.25026890644E+03 -0.15203995115E+04  0.18464152045E+04  0.10091163357E+04 0.  0.
         13    1    3    3    0    0 -0.16422268019E+03 -0.31397272585E+03 -0.85731456659E+03  0.92765092493E+03  0.10566000000E+00 0. -1.
         -4    1    3    3    0  502  0.29338973690E+03  0.56424163229E+03 -0.66308494489E+03  0.91876427960E+03  0.00000000000E+00 0. -1.
        -13    1    1    2    0    0 -0.12916705671E+03 -0.25026890644E+03 -0.15893366617E+03  0.32338610897E+03  0.10566000000E+00 0.  1.
<mgrwt>
<rscale>  1 0.75438591E+03</rscale>
<asrwt>0</asrwt>
<pdfrwt beam="2">  1       21 0.29608728E+00 0.10476805E+04</pdfrwt>
<pdfrwt beam="1">  1       -4 0.37728317E-01 0.10476805E+04</pdfrwt>
<totfact> 0.76335246E+00</totfact>
</mgrwt>
</event>
<event>
 6    2  0.2345636E-005  0.1016751E+04  0.7818608E-02  0.9968953E-01
         21   -1    0    0  501  502  0.00000000000E+00  0.00000000000E+00  0.95568943037E+03  0.95568943037E+03  0.00000000000E+00 0. -1.
         -4   -1    0    0    0  501 -0.00000000000E+00 -0.00000000000E+00 -0.33679078516E+03  0.33679078516E+03  0.00000000000E+00 0. -1.
   -9000010    2    1    2    0  502  0.73400351030E+02  0.68881971175E+02  0.62173851461E+03  0.11917805953E+04  0.10117558349E+04 0.  0.
         13    1    3    3    0    0 -0.25538101991E+03  0.18599952806E+03  0.75480379500E+03  0.81825672614E+03  0.10566000000E+00 0. -1.
         -4    1    3    3    0  502  0.32878137094E+03 -0.11711755689E+03 -0.13306528039E+03  0.37352386919E+03  0.00000000000E+00 0. -1.
        -13    1    1    2    0    0 -0.73400351030E+02 -0.68881971175E+02 -0.28398693953E+01  0.10069962019E+03  0.10566000000E+00 0.  1.
<mgrwt>
<rscale>  1 0.57032796E+03</rscale>
<asrwt>0</asrwt>
<pdfrwt beam="1">  1       21 0.14702914E+00 0.10167508E+04</pdfrwt>
<pdfrwt beam="2">  1       -4 0.51813967E-01 0.10167508E+04</pdfrwt>
<totfact> 0.40909340E+01</totfact>
</mgrwt>
</event>
<event>
 6    2  0.2345636E-005  0.1046751E+04  0.7818608E-02  0.9623718E-01
         -4   -1    0    0    0  501 -0.00000000000E+00  0.00000000000E+00  0.30567581428E+03  0.30567581428E+03  0.00000000000E+00 0. -1.
         21   -1    0    0  501  502  0.00000000000E+00 -0.00000000000E+00 -0.15109615265E+04  0.15109615265E+04  0.00000000000E+00 0. -1.
   -9000010    2    1    2    0  502 -0.21645172662E+03 -0.18848906322E+03 -0.10782329758E+04  0.15027553790E+04  0.10066319597E+04 0.  0.
         13    1    3    3    0    0 -0.45922690429E+03 -0.35297901354E+02 -0.11215493375E+04  0.12124389548E+04  0.10566000000E+00 0. -1.
         -4    1    3    3    0  502  0.24277517767E+03 -0.15319116186E+03  0.43316361777E+02  0.29031642421E+03  0.00000000000E+00 0. -1.
        -13    1    1    2    0    0  0.21645172662E+03  0.18848906322E+03 -0.12705273647E+03  0.31388196176E+03  0.10566000000E+00 0.  1.
<mgrwt>
<rscale>  1 0.75746031E+03</rscale>
<asrwt>0</asrwt>
<pdfrwt beam="2">  1       21 0.23245563E+00 0.10467509E+04</pdfrwt>
<pdfrwt beam="1">  1       -4 0.47027047E-01 0.10467509E+04</pdfrwt>
<totfact> 0.12246273E+01</totfact>
</mgrwt>
</event>
<event>
 6    2  0.2345636E-005  0.1036612E+04  0.7818608E-02  0.9659730E-01
         21   -1    0    0  501  502  0.00000000000E+00  0.00000000000E+00  0.69323027421E+03  0.69323027421E+03  0.00000000000E+00 0. -1.
         -4   -1    0    0    0  501 -0.00000000000E+00 -0.00000000000E+00 -0.18312222846E+04  0.18312222846E+04  0.00000000000E+00 0. -1.
   -9000010    2    1    2    0  502 -0.66190575924E+02  0.25299798982E+03  0.28704333692E+03  0.10756202954E+04  0.10030832306E+04 0.  0.
         13    1    3    3    0    0  0.27216283869E+02 -0.38660633782E+03  0.14506473225E+03  0.41382239458E+03  0.10566000000E+00 0. -1.
         -4    1    3    3    0  502 -0.93406859793E+02  0.63960432764E+03  0.14197860467E+03  0.66179790085E+03  0.00000000000E+00 0. -1.
        -13    1    1    2    0    0  0.66190575924E+02 -0.25299798982E+03 -0.14250353473E+04  0.14488322634E+04  0.10566000000E+00 0.  1.
<mgrwt>
<rscale>  1 0.73465884E+03</rscale>
<asrwt>0</asrwt>
<pdfrwt beam="1">  1       21 0.10665081E+00 0.10366123E+04</pdfrwt>
<pdfrwt beam="2">  1       -4 0.28172650E+00 0.10366123E+04</pdfrwt>
<totfact> 0.10391726E+00</totfact>
</mgrwt>
</event>
<event>
 6    2  0.2345636E-005  0.1012531E+04  0.7818608E-02  0.9718904E-01
         21   -1    0    0  501  502  0.00000000000E+00  0.00000000000E+00  0.50479362983E+03  0.50479362983E+03  0.00000000000E+00 0. -1.
         -4   -1    0    0    0  501 -0.00000000000E+00 -0.00000000000E+00 -0.83360887168E+03  0.83360887168E+03  0.00000000000E+00 0. -1.
   -9000010    2    1    2    0  502 -0.18355167416E+03 -0.13860782951E+03 -0.10582523792E+03  0.10180466049E+04  0.98606113463E+03 0.  0.
         13    1    3    3    0    0 -0.49527730254E+03  0.10114741321E+03  0.17486165203E+03  0.53488972146E+03  0.10566000000E+00 0. -1.
         -4    1    3    3    0  502  0.31172562838E+03 -0.23975524272E+03 -0.28068688995E+03  0.48315688341E+03  0.00000000000E+00 0. -1.
        -13    1    1    2    0    0  0.18355167416E+03  0.13860782951E+03 -0.22299000393E+03  0.32035589663E+03  0.10566000000E+00 0.  1.
<mgrwt>
<rscale>  1 0.69902353E+03</rscale>
<asrwt>0</asrwt>
<pdfrwt beam="1">  1       21 0.77660560E-01 0.10125314E+04</pdfrwt>
<pdfrwt beam="2">  1       -4 0.12824752E+00 0.10125314E+04</pdfrwt>
<totfact> 0.25151535E+01</totfact>
</mgrwt>
</event>
<event>
 6    2  0.2345636E-005  0.1053258E+04  0.7818608E-02  0.9564898E-01
         -4   -1    0    0    0  501 -0.00000000000E+00  0.00000000000E+00  0.24997866526E+03  0.24997866526E+03  0.00000000000E+00 0. -1.
         21   -1    0    0  501  502  0.00000000000E+00 -0.00000000000E+00 -0.20800389513E+04  0.20800389513E+04  0.00000000000E+00 0. -1.
   -9000010    2    1    2    0  502  0.15566476713E+03 -0.30754561620E+03 -0.16001529171E+04  0.19156829267E+04  0.99525669642E+03 0.  0.
         13    1    3    3    0    0 -0.32649482901E+02 -0.39179469892E+03 -0.10577646218E+03  0.40713357261E+03  0.10566000000E+00 0. -1.
         -4    1    3    3    0  502  0.18831425003E+03  0.84249082723E+02 -0.14943764549E+04  0.15085493540E+04  0.00000000000E+00 0. -1.
        -13    1    1    2    0    0 -0.15566476713E+03  0.30754561620E+03 -0.22990736896E+03  0.41433468987E+03  0.10566000000E+00 0.  1.
<mgrwt>
<rscale>  1 0.79663662E+03</rscale>
<asrwt>0</asrwt>
<pdfrwt beam="2">  1       21 0.32000600E+00 0.10532577E+04</pdfrwt>
<pdfrwt beam="1">  1       -4 0.38458255E-01 0.10532577E+04</pdfrwt>
<totfact> 0.52050551E+00</totfact>
</mgrwt>
</event>
<event>
 6    2  0.2345636E-005  0.1031702E+04  0.7818608E-02  0.9718504E-01
         21   -1    0    0  501  502  0.00000000000E+00  0.00000000000E+00  0.63979121950E+03  0.63979121950E+03  0.00000000000E+00 0. -1.
         -4   -1    0    0    0  501 -0.00000000000E+00 -0.00000000000E+00 -0.94841294104E+03  0.94841294104E+03  0.00000000000E+00 0. -1.
   -9000010    2    1    2    0  502 -0.12468297017E+03  0.17847405852E+03  0.18549978813E+03  0.10482459121E+04  0.10084693789E+04 0.  0.
         13    1    3    3    0    0 -0.28174802219E+03  0.53851469284E+03 -0.13477299774E+02  0.60791584219E+03  0.10566000000E+00 0. -1.
         -4    1    3    3    0  502  0.15706505203E+03 -0.36004063432E+03  0.19897708790E+03  0.44033006988E+03  0.00000000000E+00 0. -1.
        -13    1    1    2    0    0  0.12468297017E+03 -0.17847405852E+03 -0.49412150966E+03  0.53995824847E+03  0.10566000000E+00 0.  1.
<mgrwt>
<rscale>  1 0.69925683E+03</rscale>
<asrwt>0</asrwt>
<pdfrwt beam="1">  1       21 0.98429419E-01 0.10317021E+04</pdfrwt>
<pdfrwt beam="2">  1       -4 0.14590968E+00 0.10317021E+04</pdfrwt>
<totfact> 0.10147771E+01</totfact>
</mgrwt>
</event>
<event>
 6    2  0.2345636E-005  0.1035971E+04  0.7818608E-02  0.9689344E-01
         -4   -1    0    0    0  501 -0.00000000000E+00  0.00000000000E+00  0.16731050183E+04  0.16731050183E+04  0.00000000000E+00 0. -1.
         21   -1    0    0  501  502  0.00000000000E+00 -0.00000000000E+00 -0.25663990077E+03  0.25663990077E+03  0.00000000000E+00 0. -1.
   -9000010    2    1    2    0  502 -0.16858855839E+03  0.16672164770E+03  0.13092092918E+04  0.16695103457E+04  0.10084729123E+04 0.  0.
         13    1    3    3    0    0  0.13578604684E+03 -0.37502892568E+03  0.37464339882E+03  0.54721315139E+03  0.10566000000E+00 0. -1.
         -4    1    3    3    0  502 -0.30437460522E+03  0.54175057338E+03  0.93456589302E+03  0.11222971944E+04  0.00000000000E+00 0. -1.
        -13    1    1    2    0    0  0.16858855839E+03 -0.16672164770E+03  0.10725582565E+03  0.26023457328E+03  0.10566000000E+00 0.  1.
<mgrwt>
<rscale>  1 0.71654815E+03</rscale>
<asrwt>0</asrwt>
<pdfrwt beam="2">  1       21 0.39483063E-01 0.10359710E+04</pdfrwt>
<pdfrwt beam="1">  1       -4 0.25740077E+00 0.10359710E+04</pdfrwt>
<totfact> 0.14083390E+01</totfact>
</mgrwt>
</event>
<event>
 6    2  0.2345636E-005  0.1059348E+04  0.7818608E-02  0.9558915E-01
         -4   -1    0    0    0  501 -0.00000000000E+00  0.00000000000E+00  0.17200076001E+04  0.17200076001E+04  0.00000000000E+00 0. -1.
         21   -1    0    0  501  502  0.00000000000E+00 -0.00000000000E+00 -0.30504733830E+03  0.30504733830E+03  0.00000000000E+00 0. -1.
   -9000010    2    1    2    0  502 -0.29440322666E+03 -0.18150570261E+03  0.83114539004E+03  0.13464848274E+04  0.10012997308E+04 0.  0.
         13    1    3    3    0    0  0.48281768479E+01 -0.16658119479E+03 -0.20712914780E+03  0.26584789031E+03  0.10566000000E+00 0. -1.
         -4    1    3    3    0  502 -0.29923140350E+03 -0.14924507816E+02  0.10382745378E+04  0.10806369370E+04  0.00000000000E+00 0. -1.
        -13    1    1    2    0    0  0.29440322666E+03  0.18150570261E+03  0.58381487176E+03  0.67857011104E+03  0.10566000000E+00 0.  1.
<mgrwt>
<rscale>  1 0.80076199E+03</rscale>
<asrwt>0</asrwt>
<pdfrwt beam="2">  1       21 0.46930361E-01 0.10593483E+04</pdfrwt>
<pdfrwt beam="1">  1       -4 0.26461655E+00 0.10593483E+04</pdfrwt>
<totfact> 0.87921789E+00</totfact>
</mgrwt>
</event>
<event>
 6    2  0.2345636E-005  0.1086215E+04  0.7818608E-02  0.9648958E-01
         -4   -1    0    0    0  501 -0.00000000000E+00  0.00000000000E+00  0.76033061070E+03  0.76033061070E+03  0.00000000000E+00 0. -1.
         21   -1    0    0  501  502  0.00000000000E+00 -0.00000000000E+00 -0.57855278031E+03  0.57855278031E+03  0.00000000000E+00 0. -1.
   -9000010    2    1    2    0  502  0.10837264123E+03  0.20935452655E+03  0.19138181233E+03  0.11029465461E+04  0.10603254870E+04 0.  0.
         13    1    3    3    0    0  0.57232153960E+03  0.13556210812E+03 -0.18420935612E+02  0.58844572552E+03  0.10566000000E+00 0. -1.
         -4    1    3    3    0  502 -0.46394889838E+03  0.73792418435E+02  0.20980274794E+03  0.51450082057E+03  0.00000000000E+00 0. -1.
        -13    1    1    2    0    0 -0.10837264123E+03 -0.20935452655E+03 -0.96039819423E+01  0.23593684491E+03  0.10566000000E+00 0.  1.
<mgrwt>
<rscale>  1 0.74138870E+03</rscale>
<asrwt>0</asrwt>
<pdfrwt beam="2">  1       21 0.89008120E-01 0.10862155E+04</pdfrwt>
<pdfrwt beam="1">  1       -4 0.11697394E+00 0.10862155E+04</pdfrwt>
<totfact> 0.22817938E+01</totfact>
</mgrwt>
</event>
<event>
 6    2  0.2345636E-005  0.1058185E+04  0.7818608E-02  0.9524961E-01
         21   -1    0    0  501  502  0.00000000000E+00  0.00000000000E+00  0.53753403832E+03  0.53753403832E+03  0.00000000000E+00 0. -1.
         -4   -1    0    0    0  501 -0.00000000000E+00 -0.00000000000E+00 -0.10209536591E+04  0.10209536591E+04  0.00000000000E+00 0. -1.
   -9000010    2    1    2    0  502  0.27056667775E+03 -0.28137666429E+03 -0.20207285867E+03  0.10773066857E+04  0.98355330336E+03 0.  0.
         13    1    3    3    0    0  0.59317903176E+03  0.21599065524E+01  0.20547249347E+02  0.59353873466E+03  0.10566000000E+00 0. -1.
         -4    1    3    3    0  502 -0.32261235402E+03 -0.28353657084E+03 -0.22262010802E+03  0.48376795105E+03  0.00000000000E+00 0. -1.
        -13    1    1    2    0    0 -0.27056667775E+03  0.28137666429E+03 -0.28134676210E+03  0.48118101170E+03  0.10566000000E+00 0.  1.
<mgrwt>
<rscale>  1 0.82468294E+03</rscale>
<asrwt>0</asrwt>
<pdfrwt beam="1">  1       21 0.82697545E-01 0.10581854E+04</pdfrwt>
<pdfrwt beam="2">  1       -4 0.15706979E+00 0.10581854E+04</pdfrwt>
<totfact> 0.12640187E+01</totfact>
</mgrwt>
</event>
<event>
 6    2  0.2345636E-005  0.1037289E+04  0.7818608E-02  0.9648597E-01
         -4   -1    0    0    0  501 -0.00000000000E+00  0.00000000000E+00  0.39897698880E+03  0.39897698880E+03  0.00000000000E+00 0. -1.
         21   -1    0    0  501  502  0.00000000000E+00 -0.00000000000E+00 -0.14843285315E+04  0.14843285315E+04  0.00000000000E+00 0. -1.
   -9000010    2    1    2    0  502  0.20505389541E+03  0.17722796977E+03 -0.12024732447E+04  0.15880524805E+04  0.10012551741E+04 0.  0.
         13    1    3    3    0    0 -0.16108516824E+03  0.48334373177E+03 -0.86377201909E+03  0.10028318436E+04  0.10566000000E+00 0. -1.
         -4    1    3    3    0  502  0.36613906364E+03 -0.30611576200E+03 -0.33870122556E+03  0.58522063691E+03  0.00000000000E+00 0. -1.
        -13    1    1    2    0    0 -0.20505389541E+03 -0.17722796977E+03  0.11712170191E+03  0.29525303980E+03  0.10566000000E+00 0.  1.
<mgrwt>
<rscale>  1 0.74161572E+03</rscale>
<asrwt>0</asrwt>
<pdfrwt beam="2">  1       21 0.22835823E+00 0.10372891E+04</pdfrwt>
<pdfrwt beam="1">  1       -4 0.61381076E-01 0.10372891E+04</pdfrwt>
<totfact> 0.73772731E+00</totfact>
</mgrwt>
</event>
<event>
 6    2  0.2345636E-005  0.1034640E+04  0.7818608E-02  0.9578127E-01
         -4   -1    0    0    0  501 -0.00000000000E+00  0.00000000000E+00  0.47676610779E+03  0.47676610779E+03  0.00000000000E+00 0. -1.
         21   -1    0    0  501  502  0.00000000000E+00 -0.00000000000E+00 -0.12911083453E+04  0.12911083453E+04  0.00000000000E+00 0. -1.
   -9000010    2    1    2    0  502  0.32714185927E+03 -0.11700659872E+03 -0.94052127818E+03  0.13982347614E+04  0.97456032808E+03 0.  0.
         13    1    3    3    0    0  0.57318040017E+03 -0.16993509563E+03 -0.97552713669E+03  0.11441446209E+04  0.10566000000E+00 0. -1.
         -4    1    3    3    0  502 -0.24603854090E+03  0.52928496910E+02  0.35005858510E+02  0.25409014054E+03  0.00000000000E+00 0. -1.
        -13    1    1    2    0    0 -0.32714185927E+03  0.11700659872E+03  0.12617904064E+03  0.36963969171E+03  0.10566000000E+00 0.  1.
<mgrwt>
<rscale>  1 0.78760951E+03</rscale>
<asrwt>0</asrwt>
<pdfrwt beam="2">  1       21 0.19863206E+00 0.10346401E+04</pdfrwt>
<pdfrwt beam="1">  1       -4 0.73348631E-01 0.10346401E+04</pdfrwt>
<totfact> 0.78569362E+00</totfact>
</mgrwt>
</event>
<event>
 6    2  0.2345636E-005  0.1021648E+04  0.7818608E-02  0.9885031E-01
         -4   -1    0    0    0  501 -0.00000000000E+00  0.00000000000E+00  0.93989416701E+03  0.93989416701E+03  0.00000000000E+00 0. -1.
         21   -1    0    0  501  502  0.00000000000E+00 -0.00000000000E+00 -0.42678246030E+03  0.42678246030E+03  0.00000000000E+00 0. -1.
   -9000010    2    1    2    0  502  0.12306940229E+03 -0.41179094261E+02  0.21850544973E+03  0.10447532616E+04  0.10133720691E+04 0.  0.
         13    1    3    3    0    0  0.13455456673E+03  0.32969610273E+03  0.47501411666E+03  0.59366899344E+03  0.10566000000E+00 0. -1.
         -4    1    3    3    0  502 -0.11485164442E+02 -0.37087519699E+03 -0.25650866693E+03  0.45108426813E+03  0.00000000000E+00 0. -1.
        -13    1    1    2    0    0 -0.12306940229E+03  0.41179094261E+02  0.29460625699E+03  0.32192336573E+03  0.10566000000E+00 0.  1.
<mgrwt>
<rscale>  1 0.60992238E+03</rscale>
<asrwt>0</asrwt>
<pdfrwt beam="2">  1       21 0.65658840E-01 0.10216481E+04</pdfrwt>
<pdfrwt beam="1">  1       -4 0.14459910E+00 0.10216481E+04</pdfrwt>
<totfact> 0.27050249E+01</totfact>
</mgrwt>
</event>
<event>
 6    2  0.2345636E-005  0.1057246E+04  0.7818608E-02  0.1029388E+00
         21   -1    0    0  501  502  0.00000000000E+00  0.00000000000E+00  0.16163327200E+03  0.16163327200E+03  0.00000000000E+00 0. -1.
         -4   -1    0    0    0  501 -0.00000000000E+00 -0.00000000000E+00 -0.19324878078E+04  0.19324878078E+04  0.00000000000E+00 0. -1.
   -9000010    2    1    2    0  502 -0.95195112862E+01 -0.31619415661E+02 -0.15843363403E+04  0.19047023454E+04  0.10567303235E+04 0.  0.
         13    1    3    3    0    0  0.38204866129E+03 -0.15511531798E+03 -0.19528996569E+03  0.45624568308E+03  0.10566000000E+00 0. -1.
         -4    1    3    3    0  502 -0.39156817258E+03  0.12349590231E+03 -0.13890463746E+04  0.14484566623E+04  0.00000000000E+00 0. -1.
        -13    1    1    2    0    0  0.95195112862E+01  0.31619415661E+02 -0.18651819552E+03  0.18941873446E+03  0.10566000000E+00 0.  1.
<mgrwt>
<rscale>  1 0.44445858E+03</rscale>
<asrwt>0</asrwt>
<pdfrwt beam="1">  1       21 0.24866658E-01 0.10572461E+04</pdfrwt>
<pdfrwt beam="2">  1       -4 0.29730581E+00 0.10572461E+04</pdfrwt>
<totfact> 0.20389850E+01</totfact>
</mgrwt>
</event>
<event>
 6    2  0.2345636E-005  0.9985587E+03  0.7818608E-02  0.1032424E+00
         -4   -1    0    0    0  501 -0.00000000000E+00  0.00000000000E+00  0.79206882790E+03  0.79206882790E+03  0.00000000000E+00 0. -1.
         21   -1    0    0  501  502  0.00000000000E+00 -0.00000000000E+00 -0.34020314789E+03  0.34020314789E+03  0.00000000000E+00 0. -1.
   -9000010    2    1    2    0  502  0.29787925378E+02  0.19895742927E+02  0.41651503745E+03  0.10819446455E+04  0.99791596758E+03 0.  0.
         13    1    3    3    0    0  0.29132595175E+03 -0.11654664187E+03  0.63938639437E+03  0.71222812523E+03  0.10566000000E+00 0. -1.
         -4    1    3    3    0  502 -0.26153802637E+03  0.13644238479E+03 -0.22287135692E+03  0.36971652024E+03  0.00000000000E+00 0. -1.
        -13    1    1    2    0    0 -0.29787925378E+02 -0.19895742927E+02  0.35350642548E+02  0.50327330324E+02  0.10566000000E+00 0.  1.
<mgrwt>
<rscale>  1 0.43457608E+03</rscale>
<asrwt>0</asrwt>
<pdfrwt beam="2">  1       21 0.52338946E-01 0.99855868E+03</pdfrwt>
<pdfrwt beam="1">  1       -4 0.12185674E+00 0.99855868E+03</pdfrwt>
<totfact> 0.69819612E+01</totfact>
</mgrwt>
</event>
<event>
 6    2  0.2345636E-005  0.1018264E+04  0.7818608E-02  0.9882200E-01
         21   -1    0    0  501  502  0.00000000000E+00  0.00000000000E+00  0.37050249535E+03  0.37050249535E+03  0.00000000000E+00 0. -1.
         -4   -1    0    0    0  501 -0.00000000000E+00 -0.00000000000E+00 -0.97420496166E+03  0.97420496166E+03  0.00000000000E+00 0. -1.
   -9000010    2    1    2    0  502 -0.13067625785E+03 -0.20520898974E+02 -0.38401135603E+03  0.10882672364E+04  0.10096353126E+04 0.  0.
         13    1    3    3    0    0 -0.27637692666E+03  0.42714377515E+03 -0.50363075452E+02  0.51124598851E+03  0.10566000000E+00 0. -1.
         -4    1    3    3    0  502  0.14570066881E+03 -0.44766467412E+03 -0.33364828058E+03  0.57702124786E+03  0.00000000000E+00 0. -1.
        -13    1    1    2    0    0  0.13067625785E+03  0.20520898974E+02 -0.21969111028E+03  0.25644022064E+03  0.10566000000E+00 0.  1.
<mgrwt>
<rscale>  1 0.61131757E+03</rscale>
<asrwt>0</asrwt>
<pdfrwt beam="1">  1       21 0.57000385E-01 0.10182636E+04</pdfrwt>
<pdfrwt beam="2">  1       -4 0.14987768E+00 0.10182636E+04</pdfrwt>
<totfact> 0.33740056E+01</totfact>
</mgrwt>
</event>
<event>
 6    2  0.2345636E-005  0.1013697E+04  0.7818608E-02  0.9789664E-01
         -4   -1    0    0    0  501 -0.00000000000E+00  0.00000000000E+00  0.17669038792E+04  0.17669038792E+04  0.00000000000E+00 0. -1.
         21   -1    0    0  501  502  0.00000000000E+00 -0.00000000000E+00 -0.22900111326E+03  0.22900111326E+03  0.00000000000E+00 0. -1.
   -9000010    2    1    2    0  502  0.17726280867E+03  0.37952137600E+02  0.98261903137E+03  0.14117795734E+04  0.99735597211E+03 0.  0.
         13    1    3    3    0    0  0.13191208994E+03  0.49446112616E+03  0.31233781633E+03  0.59953942942E+03  0.10566000000E+00 0. -1.
         -4    1    3    3    0  502  0.45350718731E+02 -0.45650898856E+03  0.67028121504E+03  0.81224014403E+03  0.00000000000E+00 0. -1.
        -13    1    1    2    0    0 -0.17726280867E+03 -0.37952137600E+02  0.55528373461E+03  0.58412541904E+03  0.10566000000E+00 0.  1.
<mgrwt>
<rscale>  1 0.65920217E+03</rscale>
<asrwt>0</asrwt>
<pdfrwt beam="2">  1       21 0.35230942E-01 0.10136969E+04</pdfrwt>
<pdfrwt beam="1">  1       -4 0.27183136E+00 0.10136969E+04</pdfrwt>
<totfact> 0.14572119E+01</totfact>
</mgrwt>
</event>
<event>
 6    2  0.2345636E-005  0.1049996E+04  0.7818608E-02  0.9537885E-01
         21   -1    0    0  501  502  0.00000000000E+00  0.00000000000E+00  0.73725403760E+03  0.73725403760E+03  0.00000000000E+00 0. -1.
         -4   -1    0    0    0  501 -0.00000000000E+00 -0.00000000000E+00 -0.70229231358E+03  0.70229231358E+03  0.00000000000E+00 0. -1.
   -9000010    2    1    2    0  502  0.62950023265E+02  0.37678993568E+03 -0.37756320602E+02  0.10506745391E+04  0.97803787571E+03 0.  0.
         13    1    3    3    0    0  0.43367280733E+02  0.71158291003E+03 -0.53762927954E+02  0.71492756449E+03  0.10566000000E+00 0. -1.
         -4    1    3    3    0  502  0.19582742532E+02 -0.33479297435E+03  0.16006607352E+02  0.33574697461E+03  0.00000000000E+00 0. -1.
        -13    1    1    2    0    0 -0.62950023265E+02 -0.37678993568E+03  0.72718044623E+02  0.38887181209E+03  0.10566000000E+00 0.  1.
<mgrwt>
<rscale>  1 0.81547395E+03</rscale>
<asrwt>0</asrwt>
<pdfrwt beam="1">  1       21 0.11342370E+00 0.10499959E+04</pdfrwt>
<pdfrwt beam="2">  1       -4 0.10804497E+00 0.10499959E+04</pdfrwt>
<totfact> 0.15256474E+01</totfact>
</mgrwt>
</event>
<event>
 6    2  0.2345636E-005  0.1020084E+04  0.7818608E-02  0.9924222E-01
         21   -1    0    0  501  502  0.00000000000E+00  0.00000000000E+00  0.12346695646E+04  0.12346695646E+04  0.00000000000E+00 0. -1.
         -4   -1    0    0    0  501 -0.00000000000E+00 -0.00000000000E+00 -0.30140742287E+03  0.30140742287E+03  0.00000000000E+00 0. -1.
   -9000010    2    1    2    0  502  0.11064287532E+03  0.31152646759E+02  0.59979024944E+03  0.11833506809E+04  0.10135867784E+04 0.  0.
         13    1    3    3    0    0 -0.16312849880E+03 -0.38723568002E+03  0.24159334011E+02  0.42088723381E+03  0.10566000000E+00 0. -1.
         -4    1    3    3    0  502  0.27377137413E+03  0.41838832678E+03  0.57563091543E+03  0.76246344704E+03  0.00000000000E+00 0. -1.
        -13    1    1    2    0    0 -0.11064287532E+03 -0.31152646759E+02  0.33347189224E+03  0.35272630656E+03  0.10566000000E+00 0.  1.
<mgrwt>
<rscale>  1 0.59101616E+03</rscale>
<asrwt>0</asrwt>
<pdfrwt beam="1">  1       21 0.18994916E+00 0.10200836E+04</pdfrwt>
<pdfrwt beam="2">  1       -4 0.46370373E-01 0.10200836E+04</pdfrwt>
<totfact> 0.24477667E+01</totfact>
</mgrwt>
</event>
<event>
 6    2  0.2345636E-005  0.1025270E+04  0.7818608E-02  0.9706458E-01
         21   -1    0    0  501  502  0.00000000000E+00  0.00000000000E+00  0.17293490539E+04  0.17293490539E+04  0.00000000000E+00 0. -1.
         -4   -1    0    0    0  501 -0.00000000000E+00 -0.00000000000E+00 -0.23671787955E+03  0.23671787955E+03  0.00000000000E+00 0. -1.
   -9000010    2    1    2    0  502 -0.23078388714E+03  0.89339173148E+01  0.13478535992E+04  0.16934837812E+04  0.99891790203E+03 0.  0.
         13    1    3    3    0    0  0.60728233765E+02 -0.46203279748E+03  0.53017309346E+03  0.70586524530E+03  0.10566000000E+00 0. -1.
         -4    1    3    3    0  502 -0.29151212090E+03  0.47096671479E+03  0.81768050570E+03  0.98761853591E+03  0.00000000000E+00 0. -1.
        -13    1    1    2    0    0  0.23078388714E+03 -0.89339173148E+01  0.14477757517E+03  0.27258315222E+03  0.10566000000E+00 0.  1.
<mgrwt>
<rscale>  1 0.70633588E+03</rscale>
<asrwt>0</asrwt>
<pdfrwt beam="1">  1       21 0.26605369E+00 0.10252697E+04</pdfrwt>
<pdfrwt beam="2">  1       -4 0.36418136E-01 0.10252697E+04</pdfrwt>
<totfact> 0.12672992E+01</totfact>
</mgrwt>
</event>
<event>
 6    2  0.2345636E-005  0.1037680E+04  0.7818608E-02  0.9723799E-01
         -4   -1    0    0    0  501 -0.00000000000E+00  0.00000000000E+00  0.31857010784E+03  0.31857010784E+03  0.00000000000E+00 0. -1.
         21   -1    0    0  501  502  0.00000000000E+00 -0.00000000000E+00 -0.12881337330E+04  0.12881337330E+04  0.00000000000E+00 0. -1.
   -9000010    2    1    2    0  502 -0.97287720099E+02 -0.18635601067E+03 -0.92864207719E+03  0.13925355719E+04  0.10161622647E+04 0.  0.
         13    1    3    3    0    0 -0.49315107291E+03 -0.26439065182E+03 -0.78548538757E+03  0.96441054677E+03  0.10566000000E+00 0. -1.
         -4    1    3    3    0  502  0.39586335281E+03  0.78034641145E+02 -0.14315668962E+03  0.42812502508E+03  0.00000000000E+00 0. -1.
        -13    1    1    2    0    0  0.97287720099E+02  0.18635601067E+03 -0.40921547986E+02  0.21416826901E+03  0.10566000000E+00 0.  1.
<mgrwt>
<rscale>  1 0.69617315E+03</rscale>
<asrwt>0</asrwt>
<pdfrwt beam="2">  1       21 0.19817442E+00 0.10376797E+04</pdfrwt>
<pdfrwt beam="1">  1       -4 0.49010786E-01 0.10376797E+04</pdfrwt>
<totfact> 0.19053483E+01</totfact>
</mgrwt>
</event>
<event>
 6    2  0.2345636E-005  0.1023669E+04  0.7818608E-02  0.9733698E-01
         -4   -1    0    0    0  501 -0.00000000000E+00  0.00000000000E+00  0.17282902662E+04  0.17282902662E+04  0.00000000000E+00 0. -1.
         21   -1    0    0  501  502  0.00000000000E+00 -0.00000000000E+00 -0.22163440644E+03  0.22163440644E+03  0.00000000000E+00 0. -1.
   -9000010    2    1    2    0  502 -0.17985580803E+03  0.11197633762E+03  0.12911633227E+04  0.16477262998E+04  0.10015050780E+04 0.  0.
         13    1    3    3    0    0  0.37133904184E+03  0.69088622562E+02  0.88338978183E+03  0.96075149730E+03  0.10566000000E+00 0. -1.
         -4    1    3    3    0  502 -0.55119484986E+03  0.42887715061E+02  0.40777354091E+03  0.68697480251E+03  0.00000000000E+00 0. -1.
        -13    1    1    2    0    0  0.17985580803E+03 -0.11197633762E+03  0.21549253707E+03  0.30219837287E+03  0.10566000000E+00 0.  1.
<mgrwt>
<rscale>  1 0.69045397E+03</rscale>
<asrwt>0</asrwt>
<pdfrwt beam="2">  1       21 0.34097602E-01 0.10236695E+04</pdfrwt>
<pdfrwt beam="1">  1       -4 0.26589080E+00 0.10236695E+04</pdfrwt>
<totfact> 0.16934690E+01</totfact>
</mgrwt>
</event>
<event>
 6    2  0.2345636E-005  0.1035201E+04  0.7818608E-02  0.9731652E-01
         21   -1    0    0  501  502  0.00000000000E+00  0.00000000000E+00  0.97080837049E+03  0.97080837049E+03  0.00000000000E+00 0. -1.
         -4   -1    0    0    0  501 -0.00000000000E+00 -0.00000000000E+00 -0.67137146881E+03  0.67137146881E+03  0.00000000000E+00 0. -1.
   -9000010    2    1    2    0  502 -0.67399491524E+02  0.19494195626E+03  0.65935270208E+03  0.12273492084E+04  0.10144432147E+04 0.  0.
         13    1    3    3    0    0 -0.34539647456E+03  0.21825703821E+03  0.81225151080E+03  0.90922350790E+03  0.10566000000E+00 0. -1.
         -4    1    3    3    0  502  0.27799698303E+03 -0.23315081949E+02 -0.15289880871E+03  0.31812570051E+03  0.00000000000E+00 0. -1.
        -13    1    1    2    0    0  0.67399491524E+02 -0.19494195626E+03 -0.35991580041E+03  0.41483063088E+03  0.10566000000E+00 0.  1.
<mgrwt>
<rscale>  1 0.69163110E+03</rscale>
<asrwt>0</asrwt>
<pdfrwt beam="1">  1       21 0.14935513E+00 0.10352005E+04</pdfrwt>
<pdfrwt beam="2">  1       -4 0.10328792E+00 0.10352005E+04</pdfrwt>
<totfact> 0.81945088E+00</totfact>
</mgrwt>
</event>
<event>
 6    2  0.2345636E-005  0.1862542E+04  0.7818608E-02  0.8714944E-01
         -4   -1    0    0    0  501 -0.00000000000E+00  0.00000000000E+00  0.21928835756E+04  0.21928835756E+04  0.00000000000E+00 0. -1.
         21   -1    0    0  501  502  0.00000000000E+00 -0.00000000000E+00 -0.13747884876E+04  0.13747884876E+04  0.00000000000E+00 0.  1.
   -9000010    2    1    2    0  502 -0.88831087001E+03 -0.12910193289E+04  0.16471730041E+03  0.18698117469E+04  0.10065967765E+04 0.  0.
         13    1    3    3    0    0  0.64370068845E+02 -0.12829750051E+03  0.32777074006E+03  0.35782317365E+03  0.10566000000E+00 0. -1.
         -4    1    3    3    0  502 -0.95268093886E+03 -0.11627218284E+04 -0.16305343965E+03  0.15119885732E+04  0.00000000000E+00 0. -1.
        -13    1    1    2    0    0  0.88831087001E+03  0.12910193289E+04  0.65337778752E+03  0.16978603163E+04  0.10566000000E+00 0.  1.
<mgrwt>
<rscale>  1 0.17838336E+04</rscale>
<asrwt>0</asrwt>
<pdfrwt beam="2">  1       21 0.21150592E+00 0.18625424E+04</pdfrwt>
<pdfrwt beam="1">  1       -4 0.33736670E+00 0.18625424E+04</pdfrwt>
<totfact> 0.58325422E-02</totfact>
</mgrwt>
</event>
<event>
 6    2  0.2345636E-005  0.1010645E+04  0.7818608E-02  0.1000366E+00
         21   -1    0    0  501  502  0.00000000000E+00  0.00000000000E+00  0.17231782383E+03  0.17231782383E+03  0.00000000000E+00 0. -1.
         -4   -1    0    0    0  501 -0.00000000000E+00 -0.00000000000E+00 -0.20661259436E+04  0.20661259436E+04  0.00000000000E+00 0. -1.
   -9000010    2    1    2    0  502 -0.24191513356E+01 -0.91813483492E+02 -0.13470605882E+04  0.16840355763E+04  0.10064631268E+04 0.  0.
         13    1    3    3    0    0 -0.17300721256E+03 -0.16521653316E+03  0.74375820321E+02  0.25051900575E+03  0.10566000000E+00 0. -1.
         -4    1    3    3    0  502  0.17058806123E+03  0.73403049672E+02 -0.14214364086E+04  0.14335165705E+04  0.00000000000E+00 0. -1.
        -13    1    1    2    0    0  0.24191513356E+01  0.91813483492E+02 -0.54674753153E+03  0.55440819118E+03  0.10566000000E+00 0.  1.
<mgrwt>
<rscale>  1 0.55489828E+03</rscale>
<asrwt>0</asrwt>
<pdfrwt beam="1">  1       21 0.26510434E-01 0.10106451E+04</pdfrwt>
<pdfrwt beam="2">  1       -4 0.31786553E+00 0.10106451E+04</pdfrwt>
<totfact> 0.13447005E+01</totfact>
</mgrwt>
</event>
<event>
 6    2  0.2345636E-005  0.1211975E+04  0.7818608E-02  0.9258504E-01
         21   -1    0    0  501  502  0.00000000000E+00  0.00000000000E+00  0.19993857515E+04  0.19993857515E+04  0.00000000000E+00 0. -1.
         -4   -1    0    0    0  501 -0.00000000000E+00 -0.00000000000E+00 -0.70322328147E+03  0.70322328147E+03  0.00000000000E+00 0. -1.
   -9000010    2    1    2    0  502 -0.41566077725E+03  0.53166248256E+03  0.15621950717E+04  0.19772041575E+04  0.10066995387E+04 0.  0.
         13    1    3    3    0    0  0.13251342034E+03 -0.22285219058E+03  0.20532694600E+03  0.33072960457E+03  0.10566000000E+00 0. -1.
         -4    1    3    3    0  502 -0.54817419759E+03  0.75451467314E+03  0.13568681257E+04  0.16464745529E+04  0.00000000000E+00 0. -1.
        -13    1    1    2    0    0  0.41566077725E+03 -0.53166248256E+03 -0.26603260165E+03  0.72540487551E+03  0.10566000000E+00 0.  1.
<mgrwt>
<rscale>  1 0.10469452E+04</rscale>
<asrwt>0</asrwt>
<pdfrwt beam="1">  1       21 0.30759780E+00 0.12119748E+04</pdfrwt>
<pdfrwt beam="2">  1       -4 0.10818820E+00 0.12119748E+04</pdfrwt>
<totfact> 0.60833824E-01</totfact>
</mgrwt>
</event>
<event>
 6    2  0.2345636E-005  0.1026899E+04  0.7818608E-02  0.9709093E-01
         21   -1    0    0  501  502  0.00000000000E+00  0.00000000000E+00  0.39539600511E+03  0.39539600511E+03  0.00000000000E+00 0. -1.
         -4   -1    0    0    0  501 -0.00000000000E+00 -0.00000000000E+00 -0.15323035420E+04  0.15323035420E+04  0.00000000000E+00 0. -1.
   -9000010    2    1    2    0  502 -0.58229607960E+02  0.22027384507E+03 -0.31399993446E+03  0.10738329373E+04  0.10013041318E+04 0.  0.
         13    1    3    3    0    0 -0.31015824665E+03 -0.25187397526E+02  0.25673483599E+03  0.40341706723E+03  0.10566000000E+00 0. -1.
         -4    1    3    3    0  502  0.25192863869E+03  0.24546124259E+03 -0.57073477045E+03  0.67041587005E+03  0.00000000000E+00 0. -1.
        -13    1    1    2    0    0  0.58229607960E+02 -0.22027384507E+03 -0.82290760241E+03  0.85386660980E+03  0.10566000000E+00 0.  1.
<mgrwt>
<rscale>  1 0.70477980E+03</rscale>
<asrwt>0</asrwt>
<pdfrwt beam="1">  1       21 0.60830155E-01 0.10268988E+04</pdfrwt>
<pdfrwt beam="2">  1       -4 0.23573901E+00 0.10268988E+04</pdfrwt>
<totfact> 0.75583293E+00</totfact>
</mgrwt>
</event>
<event>
 6    2  0.2345636E-005  0.1050081E+04  0.7818608E-02  0.9580937E-01
         -4   -1    0    0    0  501 -0.00000000000E+00  0.00000000000E+00  0.86595839267E+03  0.86595839267E+03  0.00000000000E+00 0. -1.
         21   -1    0    0  501  502  0.00000000000E+00 -0.00000000000E+00 -0.56436064879E+03  0.56436064879E+03  0.00000000000E+00 0. -1.
   -9000010    2    1    2    0  502  0.21980251998E+03  0.24498705885E+03  0.32802230603E+03  0.11001220163E+04  0.99716498667E+03 0.  0.
         13    1    3    3    0    0  0.19660603180E+03  0.65429162726E+02 -0.34540064471E+03  0.40278595259E+03  0.10566000000E+00 0. -1.
         -4    1    3    3    0  502  0.23196488174E+02  0.17955789612E+03  0.67342295074E+03  0.69733606368E+03  0.00000000000E+00 0. -1.
        -13    1    1    2    0    0 -0.21980251998E+03 -0.24498705885E+03 -0.26424562147E+02  0.33019702518E+03  0.10566000000E+00 0.  1.
<mgrwt>
<rscale>  1 0.78570880E+03</rscale>
<asrwt>0</asrwt>
<pdfrwt beam="2">  1       21 0.86824716E-01 0.10500809E+04</pdfrwt>
<pdfrwt beam="1">  1       -4 0.13322437E+00 0.10500809E+04</pdfrwt>
<totfact> 0.17449968E+01</totfact>
</mgrwt>
</event>
<event>
 6    2  0.2345636E-005  0.1149468E+04  0.7818608E-02  0.9363648E-01
         21   -1    0    0  501  502  0.00000000000E+00  0.00000000000E+00  0.10361971813E+04  0.10361971813E+04  0.00000000000E+00 0.  1.
         -4   -1    0    0    0  501 -0.00000000000E+00 -0.00000000000E+00 -0.71393481868E+03  0.71393481868E+03  0.00000000000E+00 0. -1.
   -9000010    2    1    2    0  502 -0.31938414159E+03 -0.43443848874E+03  0.61315716429E+02  0.11511026236E+04  0.10151525022E+04 0.  0.
         13    1    3    3    0    0 -0.34200729251E+02 -0.48506033098E+03  0.45258424969E+03  0.66429340566E+03  0.10566000000E+00 0. -1.
         -4    1    3    3    0  502 -0.28518341233E+03  0.50621842239E+02 -0.39126853326E+03  0.48680921797E+03  0.00000000000E+00 0. -1.
        -13    1    1    2    0    0  0.31938414159E+03  0.43443848874E+03  0.26094664617E+03  0.59902937633E+03  0.10566000000E+00 0.  1.
<mgrwt>
<rscale>  1 0.95128687E+03</rscale>
<asrwt>0</asrwt>
<pdfrwt beam="1">  1       21 0.15941495E+00 0.11494684E+04</pdfrwt>
<pdfrwt beam="2">  1       -4 0.10983613E+00 0.11494684E+04</pdfrwt>
<totfact> 0.57851032E+00</totfact>
</mgrwt>
</event>
<event>
 6    2  0.2345636E-005  0.9868566E+03  0.7818608E-02  0.9820947E-01
         -4   -1    0    0    0  501 -0.00000000000E+00  0.00000000000E+00  0.57936501498E+03  0.57936501498E+03  0.00000000000E+00 0. -1.
         21   -1    0    0  501  502  0.00000000000E+00 -0.00000000000E+00 -0.61967203029E+03  0.61967203029E+03  0.00000000000E+00 0. -1.
   -9000010    2    1    2    0  502 -0.27823276588E+02  0.17511680957E+03 -0.13821452703E+03  0.99648847399E+03  0.97079657581E+03 0.  0.
         13    1    3    3    0    0  0.17548550996E+03 -0.29265584650E+03  0.18941378961E+03  0.39028221015E+03  0.10566000000E+00 0. -1.
         -4    1    3    3    0  502 -0.20330878655E+03  0.46777265607E+03 -0.32762831664E+03  0.60620626384E+03  0.00000000000E+00 0. -1.
        -13    1    1    2    0    0  0.27823276588E+02 -0.17511680957E+03  0.97907511720E+02  0.20254857128E+03  0.10566000000E+00 0.  1.
<mgrwt>
<rscale>  1 0.64250416E+03</rscale>
<asrwt>0</asrwt>
<pdfrwt beam="2">  1       21 0.95334158E-01 0.98685664E+03</pdfrwt>
<pdfrwt beam="1">  1       -4 0.89133079E-01 0.98685664E+03</pdfrwt>
<totfact> 0.37642086E+01</totfact>
</mgrwt>
</event>
<event>
 6    2  0.2345636E-005  0.1068982E+04  0.7818608E-02  0.9537312E-01
         -4   -1    0    0    0  501 -0.00000000000E+00  0.00000000000E+00  0.69089846704E+03  0.69089846704E+03  0.00000000000E+00 0. -1.
         21   -1    0    0  501  502  0.00000000000E+00 -0.00000000000E+00 -0.87165980185E+03  0.87165980185E+03  0.00000000000E+00 0.  1.
   -9000010    2    1    2    0  502  0.33914889780E+03 -0.12867312489E+03  0.14029056988E+03  0.10781482312E+04  0.10055562722E+04 0.  0.
         13    1    3    3    0    0  0.47197753779E+03 -0.92994861917E+02 -0.33314040415E+03  0.58514389731E+03  0.10566000000E+00 0. -1.
         -4    1    3    3    0  502 -0.13282863999E+03 -0.35678262977E+02  0.47343097403E+03  0.49300433388E+03  0.00000000000E+00 0. -1.
        -13    1    1    2    0    0 -0.33914889780E+03  0.12867312489E+03 -0.32105190469E+03  0.48441003770E+03  0.10566000000E+00 0.  1.
<mgrwt>
<rscale>  1 0.81587950E+03</rscale>
<asrwt>0</asrwt>
<pdfrwt beam="2">  1       21 0.13410151E+00 0.10689818E+04</pdfrwt>
<pdfrwt beam="1">  1       -4 0.10629207E+00 0.10689818E+04</pdfrwt>
<totfact> 0.10221124E+01</totfact>
</mgrwt>
</event>
<event>
 6    2  0.2345636E-005  0.1075763E+04  0.7818608E-02  0.9544253E-01
         -4   -1    0    0    0  501 -0.00000000000E+00  0.00000000000E+00  0.49251617569E+03  0.49251617569E+03  0.00000000000E+00 0. -1.
         21   -1    0    0  501  502  0.00000000000E+00 -0.00000000000E+00 -0.11338941474E+04  0.11338941474E+04  0.00000000000E+00 0. -1.
   -9000010    2    1    2    0  502 -0.31641524785E+03 -0.14354860487E+03 -0.68633746313E+03  0.12760588166E+04  0.10181071551E+04 0.  0.
         13    1    3    3    0    0  0.29596935147E+03 -0.17713698257E+03  0.13905146009E+02  0.34520824418E+03  0.10566000000E+00 0. -1.
         -4    1    3    3    0  502 -0.61238459932E+03  0.33588377699E+02 -0.70024260914E+03  0.93085057246E+03  0.00000000000E+00 0. -1.
        -13    1    1    2    0    0  0.31641524785E+03  0.14354860487E+03  0.44959491424E+02  0.35035150644E+03  0.10566000000E+00 0.  1.
<mgrwt>
<rscale>  1 0.81098376E+03</rscale>
<asrwt>0</asrwt>
<pdfrwt beam="2">  1       21 0.17444525E+00 0.10757634E+04</pdfrwt>
<pdfrwt beam="1">  1       -4 0.75771720E-01 0.10757634E+04</pdfrwt>
<totfact> 0.10806831E+01</totfact>
</mgrwt>
</event>
<event>
 6    2  0.2345636E-005  0.1032417E+04  0.7818608E-02  0.9701421E-01
         -4   -1    0    0    0  501 -0.00000000000E+00  0.00000000000E+00  0.12014924696E+04  0.12014924696E+04  0.00000000000E+00 0. -1.
         21   -1    0    0  501  502  0.00000000000E+00 -0.00000000000E+00 -0.67126413510E+03  0.67126413510E+03  0.00000000000E+00 0. -1.
   -9000010    2    1    2    0  502  0.34361181740E+02 -0.22746185359E+03 -0.24754205820E+03  0.10616793084E+04  0.10064622684E+04 0.  0.
         13    1    3    3    0    0 -0.46658148820E+03  0.33017570793E+02 -0.10687650550E+03  0.47980313015E+03  0.10566000000E+00 0. -1.
         -4    1    3    3    0  502  0.50094266994E+03 -0.26047942438E+03 -0.14066555270E+03  0.58187617825E+03  0.00000000000E+00 0. -1.
        -13    1    1    2    0    0 -0.34361181740E+02  0.22746185359E+03  0.77777039275E+03  0.81107729635E+03  0.10566000000E+00 0.  1.
<mgrwt>
<rscale>  1 0.70932225E+03</rscale>
<asrwt>0</asrwt>
<pdfrwt beam="2">  1       21 0.10327141E+00 0.10324175E+04</pdfrwt>
<pdfrwt beam="1">  1       -4 0.18484500E+00 0.10324175E+04</pdfrwt>
<totfact> 0.46581283E+00</totfact>
</mgrwt>
</event>
<event>
 6    2  0.2345636E-005  0.1024078E+04  0.7818608E-02  0.9744293E-01
         21   -1    0    0  501  502  0.00000000000E+00  0.00000000000E+00  0.24786893249E+03  0.24786893249E+03  0.00000000000E+00 0. -1.
         -4   -1    0    0    0  501 -0.00000000000E+00 -0.00000000000E+00 -0.15219768234E+04  0.15219768234E+04  0.00000000000E+00 0. -1.
   -9000010    2    1    2    0  502 -0.19612828813E+03  0.57145148187E+02 -0.10560699291E+04  0.14710608210E+04  0.10034960740E+04 0.  0.
         13    1    3    3    0    0 -0.88860712889E+02  0.46221771364E+03 -0.18742401715E+03  0.50662531960E+03  0.10566000000E+00 0. -1.
         -4    1    3    3    0  502 -0.10726757524E+03 -0.40507256545E+03 -0.86864591195E+03  0.96443550138E+03  0.00000000000E+00 0. -1.
        -13    1    1    2    0    0  0.19612828813E+03 -0.57145148187E+02 -0.21803796178E+03  0.29878493487E+03  0.10566000000E+00 0.  1.
<mgrwt>
<rscale>  1 0.68439740E+03</rscale>
<asrwt>0</asrwt>
<pdfrwt beam="1">  1       21 0.38133683E-01 0.10240782E+04</pdfrwt>
<pdfrwt beam="2">  1       -4 0.23415028E+00 0.10240782E+04</pdfrwt>
<totfact> 0.21148087E+01</totfact>
</mgrwt>
</event>
<event>
 6    2  0.2345636E-005  0.1046202E+04  0.7818608E-02  0.9900650E-01
         21   -1    0    0  501  502  0.00000000000E+00  0.00000000000E+00  0.13472290587E+04  0.13472290587E+04  0.00000000000E+00 0. -1.
         -4   -1    0    0    0  501 -0.00000000000E+00 -0.00000000000E+00 -0.36113174258E+03  0.36113174258E+03  0.00000000000E+00 0. -1.
   -9000010    2    1    2    0  502 -0.43566621923E+02 -0.10634280921E+03  0.11195164269E+04  0.15322712959E+04  0.10398708817E+04 0.  0.
         13    1    3    3    0    0 -0.22854899137E+03 -0.41871956120E+03  0.15482339327E+03  0.50152866983E+03  0.10566000000E+00 0. -1.
         -4    1    3    3    0  502  0.18498236945E+03  0.31237675199E+03  0.96469303358E+03  0.10307426261E+04  0.00000000000E+00 0. -1.
        -13    1    1    2    0    0  0.43566621923E+02  0.10634280921E+03 -0.13341911076E+03  0.17608950535E+03  0.10566000000E+00 0.  1.
<mgrwt>
<rscale>  1 0.60229816E+03</rscale>
<asrwt>0</asrwt>
<pdfrwt beam="1">  1       21 0.20726601E+00 0.10462018E+04</pdfrwt>
<pdfrwt beam="2">  1       -4 0.55558730E-01 0.10462018E+04</pdfrwt>
<totfact> 0.12630264E+01</totfact>
</mgrwt>
</event>
<event>
 6    2  0.2345636E-005  0.1007702E+04  0.7818608E-02  0.9795234E-01
         21   -1    0    0  501  502  0.00000000000E+00  0.00000000000E+00  0.29010378782E+03  0.29010378782E+03  0.00000000000E+00 0. -1.
         -4   -1    0    0    0  501 -0.00000000000E+00 -0.00000000000E+00 -0.12210861371E+04  0.12210861371E+04  0.00000000000E+00 0. -1.
   -9000010    2    1    2    0  502  0.16164655819E+03  0.81841579161E+02 -0.76121439128E+03  0.12628981116E+04  0.99128030185E+03 0.  0.
         13    1    3    3    0    0  0.32622633263E+03  0.44632194491E+03 -0.63850480668E+03  0.84457995354E+03  0.10566000000E+00 0. -1.
         -4    1    3    3    0  502 -0.16457977444E+03 -0.36448036575E+03 -0.12270958461E+03  0.41831815802E+03  0.00000000000E+00 0. -1.
        -13    1    1    2    0    0 -0.16164655819E+03 -0.81841579161E+02 -0.16976795801E+03  0.24829181336E+03  0.10566000000E+00 0.  1.
<mgrwt>
<rscale>  1 0.65618945E+03</rscale>
<asrwt>0</asrwt>
<pdfrwt beam="1">  1       21 0.44631352E-01 0.10077025E+04</pdfrwt>
<pdfrwt beam="2">  1       -4 0.18785940E+00 0.10077025E+04</pdfrwt>
<totfact> 0.30418069E+01</totfact>
</mgrwt>
</event>
<event>
 6    2  0.2345636E-005  0.1023185E+04  0.7818608E-02  0.9691642E-01
         21   -1    0    0  501  502  0.00000000000E+00  0.00000000000E+00  0.67094282474E+03  0.67094282474E+03  0.00000000000E+00 0. -1.
         -4   -1    0    0    0  501 -0.00000000000E+00 -0.00000000000E+00 -0.63974879801E+03  0.63974879801E+03  0.00000000000E+00 0. -1.
   -9000010    2    1    2    0  502 -0.13540361695E+03 -0.20323546054E+03  0.15834005620E+03  0.10353646973E+04  0.99361445800E+03 0.  0.
         13    1    3    3    0    0 -0.20856828317E+03  0.36020822380E+03  0.20746183049E+03  0.46507108652E+03  0.10566000000E+00 0. -1.
         -4    1    3    3    0  502  0.73164666224E+02 -0.56344368434E+03 -0.49121774290E+02  0.57029361079E+03  0.00000000000E+00 0. -1.
        -13    1    1    2    0    0  0.13540361695E+03  0.20323546054E+03 -0.12714602946E+03  0.27532692544E+03  0.10566000000E+00 0.  1.
<mgrwt>
<rscale>  1 0.71516604E+03</rscale>
<asrwt>0</asrwt>
<pdfrwt beam="1">  1       21 0.10322197E+00 0.10231855E+04</pdfrwt>
<pdfrwt beam="2">  1       -4 0.98422893E-01 0.10231855E+04</pdfrwt>
<totfact> 0.24357088E+01</totfact>
</mgrwt>
</event>
<event>
 6    2  0.2345636E-005  0.1066318E+04  0.7818608E-02  0.9532097E-01
         21   -1    0    0  501  502  0.00000000000E+00  0.00000000000E+00  0.40805689190E+03  0.40805689190E+03  0.00000000000E+00 0. -1.
         -4   -1    0    0    0  501 -0.00000000000E+00 -0.00000000000E+00 -0.14352838247E+04  0.14352838247E+04  0.00000000000E+00 0. -1.
   -9000010    2    1    2    0  502 -0.34063755985E+03 -0.14985379004E+03 -0.45184752858E+03  0.11581023818E+04  0.99927215112E+03 0.  0.
         13    1    3    3    0    0 -0.56111790413E+03 -0.41900175204E+03 -0.19905688954E+03  0.72803806698E+03  0.10566000000E+00 0. -1.
         -4    1    3    3    0  502  0.22048034428E+03  0.26914796200E+03 -0.25279063904E+03  0.43006431478E+03  0.00000000000E+00 0. -1.
        -13    1    1    2    0    0  0.34063755985E+03  0.14985379004E+03 -0.57537940425E+03  0.68523833487E+03  0.10566000000E+00 0.  1.
<mgrwt>
<rscale>  1 0.81958222E+03</rscale>
<asrwt>0</asrwt>
<pdfrwt beam="1">  1       21 0.62777984E-01 0.10663184E+04</pdfrwt>
<pdfrwt beam="2">  1       -4 0.22081290E+00 0.10663184E+04</pdfrwt>
<totfact> 0.87099685E+00</totfact>
</mgrwt>
</event>
<event>
 6    2  0.2345636E-005  0.1054194E+04  0.7818608E-02  0.9565593E-01
         -4   -1    0    0    0  501 -0.00000000000E+00  0.00000000000E+00  0.17293292371E+04  0.17293292371E+04  0.00000000000E+00 0. -1.
         21   -1    0    0  501  502  0.00000000000E+00 -0.00000000000E+00 -0.85230906611E+03  0.85230906611E+03  0.00000000000E+00 0. -1.
   -9000010    2    1    2    0  502  0.14675131141E+03  0.30997211401E+03 -0.49699144058E+03  0.11654721481E+04  0.99684812145E+03 0.  0.
         13    1    3    3    0    0 -0.16228841675E+03 -0.20489971070E+03  0.13457560574E+03  0.29399324223E+03  0.10566000000E+00 0. -1.
         -4    1    3    3    0  502  0.30903972816E+03  0.51487182470E+03 -0.63156704632E+03  0.87147890591E+03  0.00000000000E+00 0. -1.
        -13    1    1    2    0    0 -0.14675131141E+03 -0.30997211401E+03  0.13740116116E+04  0.14161661551E+04  0.10566000000E+00 0.  1.
<mgrwt>
<rscale>  1 0.79615920E+03</rscale>
<asrwt>0</asrwt>
<pdfrwt beam="2">  1       21 0.13112447E+00 0.10541939E+04</pdfrwt>
<pdfrwt beam="1">  1       -4 0.26605065E+00 0.10541939E+04</pdfrwt>
<totfact> 0.75809471E-01</totfact>
</mgrwt>
</event>
<event>
 6    2  0.2345636E-005  0.9839734E+03  0.7818608E-02  0.9912953E-01
         -4   -1    0    0    0  501 -0.00000000000E+00  0.00000000000E+00  0.88319859496E+03  0.88319859496E+03  0.00000000000E+00 0. -1.
         21   -1    0    0  501  502  0.00000000000E+00 -0.00000000000E+00 -0.36048093151E+03  0.36048093151E+03  0.00000000000E+00 0. -1.
   -9000010    2    1    2    0  502  0.75926697282E+02  0.10892920069E+03  0.39769576398E+03  0.10613037588E+04  0.97497349381E+03 0.  0.
         13    1    3    3    0    0 -0.40675436252E+03  0.14680924302E+03 -0.35998757793E+01  0.43245235060E+03  0.10566000000E+00 0. -1.
         -4    1    3    3    0  502  0.48268105981E+03 -0.37880042332E+02  0.40129563976E+03  0.62885140820E+03  0.00000000000E+00 0. -1.
        -13    1    1    2    0    0 -0.75926697282E+02 -0.10892920069E+03  0.12502189947E+03  0.18237576767E+03  0.10566000000E+00 0.  1.
<mgrwt>
<rscale>  1 0.59637639E+03</rscale>
<asrwt>0</asrwt>
<pdfrwt beam="2">  1       21 0.55458605E-01 0.98397345E+03</pdfrwt>
<pdfrwt beam="1">  1       -4 0.13587671E+00 0.98397345E+03</pdfrwt>
<totfact> 0.46592670E+01</totfact>
</mgrwt>
</event>
<event>
 6    2  0.2345636E-005  0.1154049E+04  0.7818608E-02  0.9359635E-01
         -4   -1    0    0    0  501 -0.00000000000E+00  0.00000000000E+00  0.13905283271E+04  0.13905283271E+04  0.00000000000E+00 0. -1.
         21   -1    0    0  501  502  0.00000000000E+00 -0.00000000000E+00 -0.76060968315E+03  0.76060968315E+03  0.00000000000E+00 0. -1.
   -9000010    2    1    2    0  502  0.23345480409E+03 -0.48756530417E+03 -0.18946782726E+03  0.11694989362E+04  0.10196120011E+04 0.  0.
         13    1    3    3    0    0 -0.92667836929E+02 -0.57270000020E+03  0.23633599160E+03  0.62644020490E+03  0.10566000000E+00 0. -1.
         -4    1    3    3    0  502  0.32612264102E+03  0.85134696035E+02 -0.42580381886E+03  0.54305873127E+03  0.00000000000E+00 0. -1.
        -13    1    1    2    0    0 -0.23345480409E+03  0.48756530417E+03  0.81938647120E+03  0.98163907406E+03  0.10566000000E+00 0.  1.
<mgrwt>
<rscale>  1 0.95473359E+03</rscale>
<asrwt>0</asrwt>
<pdfrwt beam="2">  1       21 0.11701687E+00 0.11540493E+04</pdfrwt>
<pdfrwt beam="1">  1       -4 0.21392743E+00 0.11540493E+04</pdfrwt>
<totfact> 0.21386240E+00</totfact>
</mgrwt>
</event>
<event>
 6    2  0.2345636E-005  0.1127345E+04  0.7818608E-02  0.9394704E-01
         -4   -1    0    0    0  501 -0.00000000000E+00  0.00000000000E+00  0.12183779003E+04  0.12183779003E+04  0.00000000000E+00 0. -1.
         21   -1    0    0  501  502  0.00000000000E+00 -0.00000000000E+00 -0.55478668344E+03  0.55478668344E+03  0.00000000000E+00 0.  1.
   -9000010    2    1    2    0  502 -0.17633751546E+03 -0.47988153217E+03  0.38722835766E+03  0.11919953783E+04  0.10047516989E+04 0.  0.
         13    1    3    3    0    0  0.21519598905E+00 -0.47227625220E+03  0.69312108726E+03  0.83872627088E+03  0.10566000000E+00 0. -1.
         -4    1    3    3    0  502 -0.17655271145E+03 -0.76052799712E+01 -0.30589272960E+03  0.35326910737E+03  0.00000000000E+00 0. -1.
        -13    1    1    2    0    0  0.17633751546E+03  0.47988153217E+03  0.27636285917E+03  0.58116920545E+03  0.10566000000E+00 0.  1.
<mgrwt>
<rscale>  1 0.92512834E+03</rscale>
<asrwt>0</asrwt>
<pdfrwt beam="2">  1       21 0.85351798E-01 0.11273452E+04</pdfrwt>
<pdfrwt beam="1">  1       -4 0.18744275E+00 0.11273452E+04</pdfrwt>
<totfact> 0.70450417E+00</totfact>
</mgrwt>
</event>
<event>
 6    2  0.2345636E-005  0.9827305E+03  0.7818608E-02  0.1008368E+00
         -4   -1    0    0    0  501 -0.00000000000E+00  0.00000000000E+00  0.27930450150E+03  0.27930450150E+03  0.00000000000E+00 0. -1.
         21   -1    0    0  501  502  0.00000000000E+00 -0.00000000000E+00 -0.11843828057E+04  0.11843828057E+04  0.00000000000E+00 0. -1.
   -9000010    2    1    2    0  502  0.77218551929E+02  0.95202086567E+01 -0.95574411005E+03  0.13708413370E+04  0.97964576663E+03 0.  0.
         13    1    3    3    0    0 -0.37241240956E+03  0.23554034887E+03 -0.63904248604E+03  0.77623808775E+03  0.10566000000E+00 0. -1.
         -4    1    3    3    0  502  0.44963096149E+03 -0.22602014022E+03 -0.31670162400E+03  0.59460324920E+03  0.00000000000E+00 0. -1.
        -13    1    1    2    0    0 -0.77218551929E+02 -0.95202086567E+01  0.50665805886E+02  0.92845970214E+02  0.10566000000E+00 0.  1.
<mgrwt>
<rscale>  1 0.52128507E+03</rscale>
<asrwt>0</asrwt>
<pdfrwt beam="2">  1       21 0.18221274E+00 0.98273047E+03</pdfrwt>
<pdfrwt beam="1">  1       -4 0.42969924E-01 0.98273047E+03</pdfrwt>
<totfact> 0.32682926E+01</totfact>
</mgrwt>
</event>
<event>
 6    2  0.2345636E-005  0.1070043E+04  0.7818608E-02  0.9533995E-01
         21   -1    0    0  501  502  0.00000000000E+00  0.00000000000E+00  0.51935003473E+03  0.51935003473E+03  0.00000000000E+00 0. -1.
         -4   -1    0    0    0  501 -0.00000000000E+00 -0.00000000000E+00 -0.17956558534E+04  0.17956558534E+04  0.00000000000E+00 0. -1.
   -9000010    2    1    2    0  502  0.32662753616E+03 -0.16480346631E+03 -0.90290251812E+02  0.10738456785E+04  0.10055577964E+04 0.  0.
         13    1    3    3    0    0  0.32041273444E+03 -0.38847333853E+03  0.32695062870E+03  0.60039368744E+03  0.10566000000E+00 0. -1.
         -4    1    3    3    0  502  0.62148017189E+01  0.22366987222E+03 -0.41724088051E+03  0.47345199110E+03  0.00000000000E+00 0. -1.
        -13    1    1    2    0    0 -0.32662753616E+03  0.16480346631E+03 -0.11860155669E+04  0.12411602096E+04  0.10566000000E+00 0.  1.
<mgrwt>
<rscale>  1 0.81823211E+03</rscale>
<asrwt>0</asrwt>
<pdfrwt beam="1">  1       21 0.79900006E-01 0.10700431E+04</pdfrwt>
<pdfrwt beam="2">  1       -4 0.27625474E+00 0.10700431E+04</pdfrwt>
<totfact> 0.22568679E+00</totfact>
</mgrwt>
</event>
<event>
 6    2  0.2345636E-005  0.1076991E+04  0.7818608E-02  0.9565448E-01
         21   -1    0    0  501  502  0.00000000000E+00  0.00000000000E+00  0.41315353079E+03  0.41315353079E+03  0.00000000000E+00 0. -1.
         -4   -1    0    0    0  501 -0.00000000000E+00 -0.00000000000E+00 -0.17314518464E+04  0.17314518464E+04  0.00000000000E+00 0. -1.
   -9000010    2    1    2    0  502  0.31876381537E+03 -0.44070357358E+02 -0.36293082737E+03  0.11364984309E+04  0.10277924555E+04 0.  0.
         13    1    3    3    0    0  0.41191236462E+03  0.25462855415E+03  0.17440199899E+03  0.51470726159E+03  0.10566000000E+00 0. -1.
         -4    1    3    3    0  502 -0.93148549252E+02 -0.29869891151E+03 -0.53733282637E+03  0.62179116933E+03  0.00000000000E+00 0. -1.
        -13    1    1    2    0    0 -0.31876381537E+03  0.44070357358E+02 -0.95536748820E+03  0.10081069462E+04  0.10566000000E+00 0.  1.
<mgrwt>
<rscale>  1 0.79625874E+03</rscale>
<asrwt>0</asrwt>
<pdfrwt beam="1">  1       21 0.63562082E-01 0.10769911E+04</pdfrwt>
<pdfrwt beam="2">  1       -4 0.26637721E+00 0.10769911E+04</pdfrwt>
<totfact> 0.43937474E+00</totfact>
</mgrwt>
</event>
<event>
 6    2  0.2345636E-005  0.1042358E+04  0.7818608E-02  0.9707017E-01
         -4   -1    0    0    0  501 -0.00000000000E+00  0.00000000000E+00  0.17162362859E+04  0.17162362859E+04  0.00000000000E+00 0. -1.
         21   -1    0    0  501  502  0.00000000000E+00 -0.00000000000E+00 -0.37377901410E+03  0.37377901410E+03  0.00000000000E+00 0. -1.
   -9000010    2    1    2    0  502  0.20886513976E+03 -0.67077715055E+02  0.39049311792E+03  0.11131018812E+04  0.10190126870E+04 0.  0.
         13    1    3    3    0    0 -0.10091924060E+03  0.42908875460E+03  0.70617593209E+02  0.44641763863E+03  0.10566000000E+00 0. -1.
         -4    1    3    3    0  502  0.30978438036E+03 -0.49616646965E+03  0.31987552471E+03  0.66668424252E+03  0.00000000000E+00 0. -1.
        -13    1    1    2    0    0 -0.20886513976E+03  0.67077715055E+02  0.95196415384E+03  0.97691341880E+03  0.10566000000E+00 0.  1.
<mgrwt>
<rscale>  1 0.70600551E+03</rscale>
<asrwt>0</asrwt>
<pdfrwt beam="2">  1       21 0.57504465E-01 0.10423583E+04</pdfrwt>
<pdfrwt beam="1">  1       -4 0.26403635E+00 0.10423583E+04</pdfrwt>
<totfact> 0.57070967E+00</totfact>
</mgrwt>
</event>
<event>
 6    2  0.2345636E-005  0.1096061E+04  0.7818608E-02  0.9475902E-01
         21   -1    0    0  501  502  0.00000000000E+00  0.00000000000E+00  0.74534373678E+03  0.74534373678E+03  0.00000000000E+00 0.  1.
         -4   -1    0    0    0  501 -0.00000000000E+00 -0.00000000000E+00 -0.80865708922E+03  0.80865708922E+03  0.00000000000E+00 0. -1.
   -9000010    2    1    2    0  502  0.36958008958E+03  0.19323163349E+03 -0.20195797954E+03  0.11145122021E+04  0.10136185260E+04 0.  0.
         13    1    3    3    0    0  0.41160942610E+03 -0.29831719141E+03 -0.32843578632E+03  0.60521528669E+03  0.10566000000E+00 0. -1.
         -4    1    3    3    0  502 -0.42029336517E+02  0.49154882490E+03  0.12647780678E+03  0.50929691536E+03  0.00000000000E+00 0. -1.
        -13    1    1    2    0    0 -0.36958008958E+03 -0.19323163349E+03  0.13864462710E+03  0.43948862395E+03  0.10566000000E+00 0.  1.
<mgrwt>
<rscale>  1 0.86083984E+03</rscale>
<asrwt>0</asrwt>
<pdfrwt beam="1">  1       21 0.11466827E+00 0.10960613E+04</pdfrwt>
<pdfrwt beam="2">  1       -4 0.12440878E+00 0.10960613E+04</pdfrwt>
<totfact> 0.10385686E+01</totfact>
</mgrwt>
</event>
<event>
 6    2  0.2345636E-005  0.1211724E+04  0.7818608E-02  0.9248610E-01
         -4   -1    0    0    0  501 -0.00000000000E+00  0.00000000000E+00  0.10386178138E+04  0.10386178138E+04  0.00000000000E+00 0. -1.
         21   -1    0    0  501  502  0.00000000000E+00 -0.00000000000E+00 -0.95665110365E+03  0.95665110365E+03  0.00000000000E+00 0.  1.
   -9000010    2    1    2    0  502  0.30490901946E+03  0.63054636618E+03  0.32389196596E+03  0.12542654961E+04  0.98879608563E+03 0.  0.
         13    1    3    3    0    0  0.17608353940E+03 -0.43773870452E+02  0.51137465423E+03  0.54261000059E+03  0.10566000000E+00 0. -1.
         -4    1    3    3    0  502  0.12882548006E+03  0.67432023663E+03 -0.18748268828E+03  0.71165549548E+03  0.00000000000E+00 0. -1.
        -13    1    1    2    0    0 -0.30490901946E+03 -0.63054636618E+03 -0.24192525576E+03  0.74100342144E+03  0.10566000000E+00 0.  1.
<mgrwt>
<rscale>  1 0.10565481E+04</rscale>
<asrwt>0</asrwt>
<pdfrwt beam="2">  1       21 0.14717709E+00 0.12117244E+04</pdfrwt>
<pdfrwt beam="1">  1       -4 0.15978736E+00 0.12117244E+04</pdfrwt>
<totfact> 0.27159749E+00</totfact>
</mgrwt>
</event>
<event>
 6    2  0.2345636E-005  0.1009294E+04  0.7818608E-02  0.1004715E+00
         21   -1    0    0  501  502  0.00000000000E+00  0.00000000000E+00  0.72148207570E+03  0.72148207570E+03  0.00000000000E+00 0. -1.
         -4   -1    0    0    0  501 -0.00000000000E+00 -0.00000000000E+00 -0.47413999830E+03  0.47413999830E+03  0.00000000000E+00 0. -1.
   -9000010    2    1    2    0  502 -0.47352476330E+02 -0.65052172131E+02  0.34723405874E+03  0.10673549262E+04  0.10060820070E+04 0.  0.
         13    1    3    3    0    0 -0.44563229737E+03 -0.24518690496E+03  0.37104303539E+03  0.62958534616E+03  0.10566000000E+00 0. -1.
         -4    1    3    3    0  502  0.39827982104E+03  0.18013473283E+03 -0.23808976650E+02  0.43776958002E+03  0.00000000000E+00 0. -1.
        -13    1    1    2    0    0  0.47352476330E+02  0.65052172131E+02 -0.99891981334E+02  0.12826714783E+03  0.10566000000E+00 0.  1.
<mgrwt>
<rscale>  1 0.53630323E+03</rscale>
<asrwt>0</asrwt>
<pdfrwt beam="1">  1       21 0.11099724E+00 0.10092943E+04</pdfrwt>
<pdfrwt beam="2">  1       -4 0.72944615E-01 0.10092943E+04</pdfrwt>
<totfact> 0.40757921E+01</totfact>
</mgrwt>
</event>
<event>
 6    2  0.2345636E-005  0.1034463E+04  0.7818608E-02  0.9590012E-01
         21   -1    0    0  501  502  0.00000000000E+00  0.00000000000E+00  0.42669974811E+03  0.42669974811E+03  0.00000000000E+00 0. -1.
         -4   -1    0    0    0  501 -0.00000000000E+00 -0.00000000000E+00 -0.12408747928E+04  0.12408747928E+04  0.00000000000E+00 0. -1.
   -9000010    2    1    2    0  502 -0.33350050426E+03 -0.11607121341E+02 -0.34229718159E+03  0.10896246811E+04  0.97916151554E+03 0.  0.
         13    1    3    3    0    0  0.16809763117E+03 -0.75288117471E+01  0.25757315453E+03  0.30766448887E+03  0.10566000000E+00 0. -1.
         -4    1    3    3    0  502 -0.50159813543E+03 -0.40783095936E+01 -0.59987033612E+03  0.78196019223E+03  0.00000000000E+00 0. -1.
        -13    1    1    2    0    0  0.33350050426E+03  0.11607121341E+02 -0.47187786312E+03  0.57794985983E+03  0.10566000000E+00 0.  1.
<mgrwt>
<rscale>  1 0.77960785E+03</rscale>
<asrwt>0</asrwt>
<pdfrwt beam="1">  1       21 0.65646117E-01 0.10344634E+04</pdfrwt>
<pdfrwt beam="2">  1       -4 0.19090381E+00 0.10344634E+04</pdfrwt>
<totfact> 0.12412952E+01</totfact>
</mgrwt>
</event>
<event>
 6    2  0.2345636E-005  0.1066160E+04  0.7818608E-02  0.9527151E-01
         21   -1    0    0  501  502  0.00000000000E+00  0.00000000000E+00  0.35714496959E+04  0.35714496959E+04  0.00000000000E+00 0. -1.
         -4   -1    0    0    0  501 -0.00000000000E+00 -0.00000000000E+00 -0.24596783431E+03  0.24596783431E+03  0.00000000000E+00 0. -1.
   -9000010    2    1    2    0  502 -0.13671664424E+03  0.35323154948E+03  0.32639739051E+04  0.34336894908E+04  0.99661120695E+03 0.  0.
         13    1    3    3    0    0 -0.10324671970E+03 -0.22686063445E+03  0.21295909688E+03  0.32783718627E+03  0.10566000000E+00 0. -1.
         -4    1    3    3    0  502 -0.33469924537E+02  0.58009218393E+03  0.30510148082E+04  0.31058523045E+04  0.00000000000E+00 0. -1.
        -13    1    1    2    0    0  0.13671664424E+03 -0.35323154948E+03  0.61507956530E+02  0.38372803942E+03  0.10566000000E+00 0.  1.
<mgrwt>
<rscale>  1 0.82311355E+03</rscale>
<asrwt>0</asrwt>
<pdfrwt beam="1">  1       21 0.54945376E+00 0.10661603E+04</pdfrwt>
<pdfrwt beam="2">  1       -4 0.37841208E-01 0.10661603E+04</pdfrwt>
<totfact> 0.14707087E-01</totfact>
</mgrwt>
</event>
<event>
 6    2  0.2345636E-005  0.1182777E+04  0.7818608E-02  0.9298221E-01
         -4   -1    0    0    0  501 -0.00000000000E+00  0.00000000000E+00  0.39872015807E+03  0.39872015807E+03  0.00000000000E+00 0. -1.
         21   -1    0    0  501  502  0.00000000000E+00 -0.00000000000E+00 -0.20697967839E+04  0.20697967839E+04  0.00000000000E+00 0. -1.
   -9000010    2    1    2    0  502 -0.50249009722E+03 -0.37596169047E+03 -0.11895710406E+04  0.16775105386E+04  0.10025561609E+04 0.  0.
         13    1    3    3    0    0 -0.49656319213E+03 -0.61036122177E+03 -0.12087128145E+04  0.14422560466E+04  0.10566000000E+00 0. -1.
         -4    1    3    3    0  502 -0.59269050947E+01  0.23439953131E+03  0.19141773890E+02  0.23525449196E+03  0.00000000000E+00 0. -1.
        -13    1    1    2    0    0  0.50249009722E+03  0.37596169047E+03 -0.48150558525E+03  0.79100640345E+03  0.10566000000E+00 0.  1.
<mgrwt>
<rscale>  1 0.10094684E+04</rscale>
<asrwt>0</asrwt>
<pdfrwt beam="2">  1       21 0.31843027E+00 0.11827774E+04</pdfrwt>
<pdfrwt beam="1">  1       -4 0.61341564E-01 0.11827774E+04</pdfrwt>
<totfact> 0.19484562E+00</totfact>
</mgrwt>
</event>
<event>
 6    2  0.2345636E-005  0.9405172E+03  0.7818608E-02  0.1026047E+00
         21   -1    0    0  501  502  0.00000000000E+00  0.00000000000E+00  0.64045341153E+03  0.64045341153E+03  0.00000000000E+00 0. -1.
         -4   -1    0    0    0  501 -0.00000000000E+00 -0.00000000000E+00 -0.46784254758E+03  0.46784254758E+03  0.00000000000E+00 0. -1.
   -9000010    2    1    2    0  502 -0.20250541782E+02 -0.47694982706E+02  0.28648949486E+03  0.98318301190E+03  0.93908876492E+03 0.  0.
         13    1    3    3    0    0  0.26858859194E+03 -0.10970683086E+03  0.52743337407E+03  0.60196461333E+03  0.10566000000E+00 0. -1.
         -4    1    3    3    0  502 -0.28883913372E+03  0.62011848156E+02 -0.24094387921E+03  0.38121839857E+03  0.00000000000E+00 0. -1.
        -13    1    1    2    0    0  0.20250541782E+02  0.47694982706E+02 -0.11387863091E+03  0.12511294721E+03  0.10566000000E+00 0.  1.
<mgrwt>
<rscale>  1 0.45566032E+03</rscale>
<asrwt>0</asrwt>
<pdfrwt beam="1">  1       21 0.98531294E-01 0.94051720E+03</pdfrwt>
<pdfrwt beam="2">  1       -4 0.71975777E-01 0.94051720E+03</pdfrwt>
<totfact> 0.56959746E+01</totfact>
</mgrwt>
</event>
<event>
 6    2  0.2345636E-005  0.1073035E+04  0.7818608E-02  0.9553712E-01
         21   -1    0    0  501  502  0.00000000000E+00  0.00000000000E+00  0.59210665766E+03  0.59210665766E+03  0.00000000000E+00 0. -1.
         -4   -1    0    0    0  501 -0.00000000000E+00 -0.00000000000E+00 -0.10697718685E+04  0.10697718685E+04  0.00000000000E+00 0. -1.
   -9000010    2    1    2    0  502 -0.10545500536E+03 -0.32200318671E+03  0.39174221602E+01  0.10730418306E+04  0.10181338879E+04 0.  0.
         13    1    3    3    0    0  0.15220119498E+03  0.14431911075E+03  0.37090865894E+03  0.42610615335E+03  0.10566000000E+00 0. -1.
         -4    1    3    3    0  502 -0.25765620034E+03 -0.46632229746E+03 -0.36699123678E+03  0.64693567730E+03  0.00000000000E+00 0. -1.
        -13    1    1    2    0    0  0.10545500536E+03  0.32200318671E+03 -0.48158263303E+03  0.58883669554E+03  0.10566000000E+00 0.  1.
<mgrwt>
<rscale>  1 0.80437077E+03</rscale>
<asrwt>0</asrwt>
<pdfrwt beam="1">  1       21 0.91093333E-01 0.10730347E+04</pdfrwt>
<pdfrwt beam="2">  1       -4 0.16458028E+00 0.10730347E+04</pdfrwt>
<totfact> 0.87960991E+00</totfact>
</mgrwt>
</event>
<event>
 6    2  0.2345636E-005  0.1016122E+04  0.7818608E-02  0.9752914E-01
         -4   -1    0    0    0  501 -0.00000000000E+00  0.00000000000E+00  0.86421263144E+03  0.86421263144E+03  0.00000000000E+00 0. -1.
         21   -1    0    0  501  502  0.00000000000E+00 -0.00000000000E+00 -0.95079824001E+03  0.95079824001E+03  0.00000000000E+00 0. -1.
   -9000010    2    1    2    0  502  0.97926500135E+02 -0.17806967926E+03 -0.65663311585E+03  0.12098228165E+04  0.99559318422E+03 0.  0.
         13    1    3    3    0    0 -0.19287496992E+03 -0.87652207771E+02  0.20570370672E+03  0.29529254930E+03  0.10566000000E+00 0. -1.
         -4    1    3    3    0  502  0.29080147006E+03 -0.90417471492E+02 -0.86233682256E+03  0.91453026723E+03  0.00000000000E+00 0. -1.
        -13    1    1    2    0    0 -0.97926500135E+02  0.17806967926E+03  0.57004750728E+03  0.60518805492E+03  0.10566000000E+00 0.  1.
<mgrwt>
<rscale>  1 0.67951824E+03</rscale>
<asrwt>0</asrwt>
<pdfrwt beam="2">  1       21 0.14627665E+00 0.10161221E+04</pdfrwt>
<pdfrwt beam="1">  1       -4 0.13295579E+00 0.10161221E+04</pdfrwt>
<totfact> 0.46254291E+00</totfact>
</mgrwt>
</event>
<event>
 6    2  0.2345636E-005  0.1009086E+04  0.7818608E-02  0.9974638E-01
         -4   -1    0    0    0  501 -0.00000000000E+00  0.00000000000E+00  0.18849006617E+03  0.18849006617E+03  0.00000000000E+00 0. -1.
         21   -1    0    0  501  502  0.00000000000E+00 -0.00000000000E+00 -0.19828154337E+04  0.19828154337E+04  0.00000000000E+00 0. -1.
   -9000010    2    1    2    0  502 -0.89622978499E+02  0.46854611506E+02 -0.11974880420E+04  0.15659606088E+04  0.10040056696E+04 0.  0.
         13    1    3    3    0    0  0.32162979442E+02  0.51848087373E+03 -0.56272423674E+03  0.76584296787E+03  0.10566000000E+00 0. -1.
         -4    1    3    3    0  502 -0.12178595794E+03 -0.47162626222E+03 -0.63476380527E+03  0.80011764088E+03  0.00000000000E+00 0. -1.
        -13    1    1    2    0    0  0.89622978499E+02 -0.46854611506E+02 -0.59683732548E+03  0.60534489107E+03  0.10566000000E+00 0.  1.
<mgrwt>
<rscale>  1 0.56776447E+03</rscale>
<asrwt>0</asrwt>
<pdfrwt beam="2">  1       21 0.30504854E+00 0.10090862E+04</pdfrwt>
<pdfrwt beam="1">  1       -4 0.28998470E-01 0.10090862E+04</pdfrwt>
<totfact> 0.11392933E+01</totfact>
</mgrwt>
</event>
<event>
 6    2  0.2345636E-005  0.9252999E+03  0.7818608E-02  0.9701103E-01
         -4   -1    0    0    0  501 -0.00000000000E+00  0.00000000000E+00  0.10220047312E+04  0.10220047312E+04  0.00000000000E+00 0. -1.
         21   -1    0    0  501  502  0.00000000000E+00 -0.00000000000E+00 -0.58748090797E+03  0.58748090797E+03  0.00000000000E+00 0. -1.
   -9000010    2    1    2    0  502  0.31134841760E+03  0.73397371129E+02 -0.15555027332E+03  0.93828338813E+03  0.86824813140E+03 0.  0.
         13    1    3    3    0    0  0.40145923765E+03  0.20555221973E+03  0.24051085955E+03  0.51114256256E+03  0.10566000000E+00 0. -1.
         -4    1    3    3    0  502 -0.90110820044E+02 -0.13215484860E+03 -0.39606113287E+03  0.42714082557E+03  0.00000000000E+00 0. -1.
        -13    1    1    2    0    0 -0.31134841760E+03 -0.73397371129E+02  0.59007409660E+03  0.67120225109E+03  0.10566000000E+00 0.  1.
<mgrwt>
<rscale>  1 0.70951177E+03</rscale>
<asrwt>0</asrwt>
<pdfrwt beam="2">  1       21 0.90381679E-01 0.92529986E+03</pdfrwt>
<pdfrwt beam="1">  1       -4 0.15723150E+00 0.92529986E+03</pdfrwt>
<totfact> 0.10343350E+01</totfact>
</mgrwt>
</event>
<event>
 6    2  0.2345636E-005  0.1045136E+04  0.7818608E-02  0.9816907E-01
         -4   -1    0    0    0  501 -0.00000000000E+00  0.00000000000E+00  0.15024837322E+04  0.15024837322E+04  0.00000000000E+00 0. -1.
         21   -1    0    0  501  502  0.00000000000E+00 -0.00000000000E+00 -0.23916941985E+03  0.23916941985E+03  0.00000000000E+00 0. -1.
   -9000010    2    1    2    0  502 -0.89505735027E+02  0.12193597209E+03  0.10640306973E+04  0.14914659656E+04  0.10341323628E+04 0.  0.
         13    1    3    3    0    0 -0.31475760707E+03  0.40382679346E+03  0.10021456118E+04  0.11253640606E+04  0.10566000000E+00 0. -1.
         -4    1    3    3    0  502  0.22525187204E+03 -0.28189082137E+03  0.61885085449E+02  0.36610190498E+03  0.00000000000E+00 0. -1.
        -13    1    1    2    0    0  0.89505735027E+02 -0.12193597209E+03  0.19928361504E+03  0.25018718648E+03  0.10566000000E+00 0.  1.
<mgrwt>
<rscale>  1 0.64463049E+03</rscale>
<asrwt>0</asrwt>
<pdfrwt beam="2">  1       21 0.36795296E-01 0.10451361E+04</pdfrwt>
<pdfrwt beam="1">  1       -4 0.23115134E+00 0.10451361E+04</pdfrwt>
<totfact> 0.23735421E+01</totfact>
</mgrwt>
</event>
<event>
 6    2  0.2345636E-005  0.1012895E+04  0.7818608E-02  0.9748805E-01
         -4   -1    0    0    0  501 -0.00000000000E+00  0.00000000000E+00  0.96517487596E+03  0.96517487596E+03  0.00000000000E+00 0. -1.
         21   -1    0    0  501  502  0.00000000000E+00 -0.00000000000E+00 -0.60410657517E+03  0.60410657517E+03  0.00000000000E+00 0. -1.
   -9000010    2    1    2    0  502  0.45700438798E+02 -0.20290269476E+03 -0.14398669667E+03  0.10230776473E+04  0.99131108640E+03 0.  0.
         13    1    3    3    0    0  0.37956033408E+03  0.24657241089E+03 -0.78185209329E+02  0.45932226066E+03  0.10566000000E+00 0. -1.
         -4    1    3    3    0  502 -0.33385989528E+03 -0.44947510565E+03 -0.65801487341E+02  0.56375538668E+03  0.00000000000E+00 0. -1.
        -13    1    1    2    0    0 -0.45700438798E+02  0.20290269476E+03  0.50505499746E+03  0.54620380379E+03  0.10566000000E+00 0.  1.
<mgrwt>
<rscale>  1 0.68183861E+03</rscale>
<asrwt>0</asrwt>
<pdfrwt beam="2">  1       21 0.92939473E-01 0.10128947E+04</pdfrwt>
<pdfrwt beam="1">  1       -4 0.14848844E+00 0.10128947E+04</pdfrwt>
<totfact> 0.11168624E+01</totfact>
</mgrwt>
</event>
<event>
 6    2  0.2345636E-005  0.1002169E+04  0.7818608E-02  0.9900428E-01
         -4   -1    0    0    0  501 -0.00000000000E+00  0.00000000000E+00  0.82242434631E+03  0.82242434631E+03  0.00000000000E+00 0. -1.
         21   -1    0    0  501  502  0.00000000000E+00 -0.00000000000E+00 -0.48654875186E+03  0.48654875186E+03  0.00000000000E+00 0. -1.
   -9000010    2    1    2    0  502  0.51472978643E+02  0.12028709409E+03  0.60379211190E+02  0.10039866708E+04  0.99359203572E+03 0.  0.
         13    1    3    3    0    0  0.69655257071E+02  0.25199724042E+02 -0.46444165611E+03  0.47031153932E+03  0.10566000000E+00 0. -1.
         -4    1    3    3    0  502 -0.18182278428E+02  0.95087370049E+02  0.52482086730E+03  0.53367513146E+03  0.00000000000E+00 0. -1.
        -13    1    1    2    0    0 -0.51472978643E+02 -0.12028709409E+03  0.27549638326E+03  0.30498642739E+03  0.10566000000E+00 0.  1.
<mgrwt>
<rscale>  1 0.60240555E+03</rscale>
<asrwt>0</asrwt>
<pdfrwt beam="2">  1       21 0.74853654E-01 0.10021694E+04</pdfrwt>
<pdfrwt beam="1">  1       -4 0.12652682E+00 0.10021694E+04</pdfrwt>
<totfact> 0.28393934E+01</totfact>
</mgrwt>
</event>
<event>
 6    2  0.2345636E-005  0.1009213E+04  0.7818608E-02  0.9839272E-01
         21   -1    0    0  501  502  0.00000000000E+00  0.00000000000E+00  0.13954107037E+04  0.13954107037E+04  0.00000000000E+00 0. -1.
         -4   -1    0    0    0  501 -0.00000000000E+00 -0.00000000000E+00 -0.24331896213E+03  0.24331896213E+03  0.00000000000E+00 0. -1.
   -9000010    2    1    2    0  502  0.12252731599E+03 -0.96821191974E+02  0.99963979326E+03  0.14204892157E+04  0.99705697389E+03 0.  0.
         13    1    3    3    0    0  0.15325511657E+03  0.15975717522E+03  0.11155268939E+04  0.11372817364E+04  0.10566000000E+00 0. -1.
         -4    1    3    3    0  502 -0.30727800574E+02 -0.25657836720E+03 -0.11588710061E+03  0.28320747930E+03  0.00000000000E+00 0. -1.
        -13    1    1    2    0    0 -0.12252731599E+03  0.96821191974E+02  0.15245194830E+03  0.21824045016E+03  0.10566000000E+00 0.  1.
<mgrwt>
<rscale>  1 0.63296898E+03</rscale>
<asrwt>0</asrwt>
<pdfrwt beam="1">  1       21 0.21467857E+00 0.10092125E+04</pdfrwt>
<pdfrwt beam="2">  1       -4 0.37433687E-01 0.10092125E+04</pdfrwt>
<totfact> 0.25744112E+01</totfact>
</mgrwt>
</event>
<event>
 6    2  0.2345636E-005  0.1006413E+04  0.7818608E-02  0.1023203E+00
         21   -1    0    0  501  502  0.00000000000E+00  0.00000000000E+00  0.81122197864E+03  0.81122197864E+03  0.00000000000E+00 0. -1.
         -4   -1    0    0    0  501 -0.00000000000E+00 -0.00000000000E+00 -0.35661001188E+03  0.35661001188E+03  0.00000000000E+00 0. -1.
   -9000010    2    1    2    0  502 -0.43405934878E+02  0.15396500931E+02  0.48024360349E+03  0.11151241221E+04  0.10053590213E+04 0.  0.
         13    1    3    3    0    0 -0.57188845254E+02  0.42575146321E+03  0.55081049100E+03  0.69851777401E+03  0.10566000000E+00 0. -1.
         -4    1    3    3    0  502  0.13782910376E+02 -0.41035496228E+03 -0.70566887509E+02  0.41660634812E+03  0.00000000000E+00 0. -1.
        -13    1    1    2    0    0  0.43405934878E+02 -0.15396500931E+02 -0.25631636731E+02  0.52707868380E+02  0.10566000000E+00 0.  1.
<mgrwt>
<rscale>  1 0.46548258E+03</rscale>
<asrwt>0</asrwt>
<pdfrwt beam="1">  1       21 0.12480338E+00 0.10064134E+04</pdfrwt>
<pdfrwt beam="2">  1       -4 0.54863079E-01 0.10064134E+04</pdfrwt>
<totfact> 0.56368024E+01</totfact>
</mgrwt>
</event>
<event>
 6    2  0.2345636E-005  0.8293319E+03  0.7818608E-02  0.9975138E-01
         21   -1    0    0  501  502  0.00000000000E+00  0.00000000000E+00  0.23461058515E+04  0.23461058515E+04  0.00000000000E+00 0. -1.
         -4   -1    0    0    0  501 -0.00000000000E+00 -0.00000000000E+00 -0.12675798915E+03  0.12675798915E+03  0.00000000000E+00 0. -1.
   -9000010    2    1    2    0  502  0.16841153968E+03 -0.68703267317E+02  0.20932224072E+04  0.22515264799E+04  0.80914081494E+03 0.  0.
         13    1    3    3    0    0  0.29524358847E+03  0.30357234368E+03  0.12792979729E+04  0.13475638238E+04  0.10566000000E+00 0. -1.
         -4    1    3    3    0  502 -0.12683204879E+03 -0.37227561100E+03  0.81392443423E+03  0.90396265619E+03  0.00000000000E+00 0. -1.
        -13    1    1    2    0    0 -0.16841153968E+03  0.68703267317E+02  0.12612545521E+03  0.22133736073E+03  0.10566000000E+00 0.  1.
<mgrwt>
<rscale>  1 0.56753969E+03</rscale>
<asrwt>0</asrwt>
<pdfrwt beam="1">  1       21 0.36093933E+00 0.82933193E+03</pdfrwt>
<pdfrwt beam="2">  1       -4 0.19501231E-01 0.82933193E+03</pdfrwt>
<totfact> 0.11210596E+01</totfact>
</mgrwt>
</event>
<event>
 6    2  0.2345636E-005  0.1059537E+04  0.7818608E-02  0.9619381E-01
         -4   -1    0    0    0  501 -0.00000000000E+00  0.00000000000E+00  0.59007340423E+03  0.59007340423E+03  0.00000000000E+00 0. -1.
         21   -1    0    0  501  502  0.00000000000E+00 -0.00000000000E+00 -0.88910959989E+03  0.88910959989E+03  0.00000000000E+00 0. -1.
   -9000010    2    1    2    0  502  0.19936423867E+03  0.19785051871E+03 -0.46041290316E+03  0.11552487819E+04  0.10216304515E+04 0.  0.
         13    1    3    3    0    0  0.75379583994E+02  0.59247254047E+03 -0.97866624091E+02  0.60521374750E+03  0.10566000000E+00 0. -1.
         -4    1    3    3    0  502  0.12398465467E+03 -0.39462202176E+03 -0.36254627906E+03  0.55003503444E+03  0.00000000000E+00 0. -1.
        -13    1    1    2    0    0 -0.19936423867E+03 -0.19785051871E+03  0.16137670750E+03  0.32393422218E+03  0.10566000000E+00 0.  1.
<mgrwt>
<rscale>  1 0.76026612E+03</rscale>
<asrwt>0</asrwt>
<pdfrwt beam="2">  1       21 0.13678609E+00 0.10595375E+04</pdfrwt>
<pdfrwt beam="1">  1       -4 0.90780524E-01 0.10595375E+04</pdfrwt>
<totfact> 0.14174885E+01</totfact>
</mgrwt>
</event>
<event>
 6    2  0.2345636E-005  0.1047963E+04  0.7818608E-02  0.9663617E-01
         -4   -1    0    0    0  501 -0.00000000000E+00  0.00000000000E+00  0.29659432465E+04  0.29659432465E+04  0.00000000000E+00 0. -1.
         21   -1    0    0  501  502  0.00000000000E+00 -0.00000000000E+00 -0.14268396594E+03  0.14268396594E+03  0.00000000000E+00 0. -1.
   -9000010    2    1    2    0  502  0.24761998618E+03  0.32959574743E+02  0.21880702415E+04  0.24260826222E+04  0.10177541535E+04 0.  0.
         13    1    3    3    0    0  0.38268609714E+03 -0.40091796623E+03  0.15219531502E+04  0.16197299983E+04  0.10566000000E+00 0. -1.
         -4    1    3    3    0  502 -0.13506611096E+03  0.43387754098E+03  0.66611709125E+03  0.80635262395E+03  0.00000000000E+00 0. -1.
        -13    1    1    2    0    0 -0.24761998618E+03 -0.32959574743E+02  0.63518903913E+03  0.68254459028E+03  0.10566000000E+00 0.  1.
<mgrwt>
<rscale>  1 0.73224959E+03</rscale>
<asrwt>0</asrwt>
<pdfrwt beam="2">  1       21 0.21951382E-01 0.10479626E+04</pdfrwt>
<pdfrwt beam="1">  1       -4 0.45629892E+00 0.10479626E+04</pdfrwt>
<totfact> 0.21983453E+00</totfact>
</mgrwt>
</event>
<event>
 6    2  0.2345636E-005  0.1009696E+04  0.7818608E-02  0.1030437E+00
         -4   -1    0    0    0  501 -0.00000000000E+00  0.00000000000E+00  0.58561719096E+03  0.58561719096E+03  0.00000000000E+00 0. -1.
         21   -1    0    0  501  502  0.00000000000E+00 -0.00000000000E+00 -0.46974993944E+03  0.46974993944E+03  0.00000000000E+00 0. -1.
   -9000010    2    1    2    0  502  0.18250106925E+02 -0.31895301827E+02  0.97807955286E+02  0.10144217274E+04  0.10090265944E+04 0.  0.
         13    1    3    3    0    0  0.16682604418E+03  0.40671487148E+02 -0.42909822581E+03  0.46218004873E+03  0.10566000000E+00 0. -1.
         -4    1    3    3    0  502 -0.14857593726E+03 -0.72566788976E+02  0.52690618109E+03  0.55224167868E+03  0.00000000000E+00 0. -1.
        -13    1    1    2    0    0 -0.18250106925E+02  0.31895301827E+02  0.18059296238E+02  0.40945402991E+02  0.10566000000E+00 0.  1.
<mgrwt>
<rscale>  1 0.44101173E+03</rscale>
<asrwt>0</asrwt>
<pdfrwt beam="2">  1       21 0.72269221E-01 0.10096955E+04</pdfrwt>
<pdfrwt beam="1">  1       -4 0.90094953E-01 0.10096955E+04</pdfrwt>
<totfact> 0.70687355E+01</totfact>
</mgrwt>
</event>
<event>
 6    2  0.2345636E-005  0.1028316E+04  0.7818608E-02  0.9738387E-01
         21   -1    0    0  501  502  0.00000000000E+00  0.00000000000E+00  0.13497199545E+04  0.13497199545E+04  0.00000000000E+00 0. -1.
         -4   -1    0    0    0  501 -0.00000000000E+00 -0.00000000000E+00 -0.32102231406E+03  0.32102231406E+03  0.00000000000E+00 0. -1.
   -9000010    2    1    2    0  502  0.22313024135E+02 -0.20455606550E+03  0.10427409133E+04  0.14644941663E+04  0.10075184842E+04 0.  0.
         13    1    3    3    0    0 -0.18281591029E+03  0.36600609238E+03  0.53601721553E+03  0.67431193317E+03  0.10566000000E+00 0. -1.
         -4    1    3    3    0  502  0.20512893442E+03 -0.57056215788E+03  0.50672369772E+03  0.79018223315E+03  0.00000000000E+00 0. -1.
        -13    1    1    2    0    0 -0.22313024135E+02  0.20455606550E+03 -0.14043272858E+02  0.20624810219E+03  0.10566000000E+00 0.  1.
<mgrwt>
<rscale>  1 0.68776534E+03</rscale>
<asrwt>0</asrwt>
<pdfrwt beam="1">  1       21 0.20764922E+00 0.10283164E+04</pdfrwt>
<pdfrwt beam="2">  1       -4 0.49388049E-01 0.10283164E+04</pdfrwt>
<totfact> 0.16168056E+01</totfact>
</mgrwt>
</event>
<event>
 6    2  0.2345636E-005  0.1014544E+04  0.7818608E-02  0.9777601E-01
         21   -1    0    0  501  502  0.00000000000E+00  0.00000000000E+00  0.10052060969E+04  0.10052060969E+04  0.00000000000E+00 0. -1.
         -4   -1    0    0    0  501 -0.00000000000E+00 -0.00000000000E+00 -0.40620175294E+03  0.40620175294E+03  0.00000000000E+00 0. -1.
   -9000010    2    1    2    0  502 -0.12276127059E+02 -0.18775829250E+03  0.66379777681E+03  0.12124051368E+04  0.99694275035E+03 0.  0.
         13    1    3    3    0    0 -0.20275270122E+03 -0.49048050321E+03  0.66993736198E+03  0.85469050657E+03  0.10566000000E+00 0. -1.
         -4    1    3    3    0  502  0.19047657416E+03  0.30272221071E+03 -0.61395851664E+01  0.35771463021E+03  0.00000000000E+00 0. -1.
        -13    1    1    2    0    0  0.12276127059E+02  0.18775829250E+03 -0.64793432856E+02  0.19900271306E+03  0.10566000000E+00 0.  1.
<mgrwt>
<rscale>  1 0.66578562E+03</rscale>
<asrwt>0</asrwt>
<pdfrwt beam="1">  1       21 0.15464709E+00 0.10145436E+04</pdfrwt>
<pdfrwt beam="2">  1       -4 0.62492577E-01 0.10145436E+04</pdfrwt>
<totfact> 0.23715955E+01</totfact>
</mgrwt>
</event>
<event>
 6    2  0.2345636E-005  0.1002624E+04  0.7818608E-02  0.9935001E-01
         21   -1    0    0  501  502  0.00000000000E+00  0.00000000000E+00  0.12669028692E+04  0.12669028692E+04  0.00000000000E+00 0. -1.
         -4   -1    0    0    0  501 -0.00000000000E+00 -0.00000000000E+00 -0.28565767987E+03  0.28565767987E+03  0.00000000000E+00 0. -1.
   -9000010    2    1    2    0  502 -0.26090446271E+02  0.11400696918E+03  0.10191103111E+04  0.14296293527E+04  0.99577907166E+03 0.  0.
         13    1    3    3    0    0  0.44059632196E+03  0.25614124324E+03  0.44835748133E+03  0.67879149792E+03  0.10566000000E+00 0. -1.
         -4    1    3    3    0  502 -0.46668676823E+03 -0.14213427407E+03  0.57075282980E+03  0.75083785482E+03  0.00000000000E+00 0. -1.
        -13    1    1    2    0    0  0.26090446271E+02 -0.11400696918E+03 -0.37865121837E+02  0.12293119630E+03  0.10566000000E+00 0.  1.
<mgrwt>
<rscale>  1 0.58594592E+03</rscale>
<asrwt>0</asrwt>
<pdfrwt beam="1">  1       21 0.19490813E+00 0.10026237E+04</pdfrwt>
<pdfrwt beam="2">  1       -4 0.43947336E-01 0.10026237E+04</pdfrwt>
<totfact> 0.25311627E+01</totfact>
</mgrwt>
</event>
<event>
 6    2  0.2345636E-005  0.1013697E+04  0.7818608E-02  0.9890044E-01
         -4   -1    0    0    0  501 -0.00000000000E+00  0.00000000000E+00  0.41964775531E+03  0.41964775531E+03  0.00000000000E+00 0. -1.
         21   -1    0    0  501  502  0.00000000000E+00 -0.00000000000E+00 -0.79768160807E+03  0.79768160807E+03  0.00000000000E+00 0. -1.
   -9000010    2    1    2    0  502 -0.11496207291E+03 -0.62227807349E+02 -0.38983985968E+03  0.10860739971E+04  0.10052328252E+04 0.  0.
         13    1    3    3    0    0 -0.11483100708E+03  0.44503609809E+03 -0.34913115234E+03  0.57717922822E+03  0.10566000000E+00 0. -1.
         -4    1    3    3    0  502 -0.13106582255E+00 -0.50726390544E+03 -0.40708707340E+02  0.50889476888E+03  0.00000000000E+00 0. -1.
        -13    1    1    2    0    0  0.11496207291E+03  0.62227807349E+02  0.11806006921E+02  0.13125536628E+03  0.10566000000E+00 0.  1.
<mgrwt>
<rscale>  1 0.60746240E+03</rscale>
<asrwt>0</asrwt>
<pdfrwt beam="2">  1       21 0.12272025E+00 0.10136970E+04</pdfrwt>
<pdfrwt beam="1">  1       -4 0.64561193E-01 0.10136970E+04</pdfrwt>
<totfact> 0.41321582E+01</totfact>
</mgrwt>
</event>
<event>
 6    2  0.2345636E-005  0.1035508E+04  0.7818608E-02  0.9751118E-01
         -4   -1    0    0    0  501 -0.00000000000E+00  0.00000000000E+00  0.73822910081E+03  0.73822910081E+03  0.00000000000E+00 0. -1.
         21   -1    0    0  501  502  0.00000000000E+00 -0.00000000000E+00 -0.51907034990E+03  0.51907034990E+03  0.00000000000E+00 0. -1.
   -9000010    2    1    2    0  502  0.17409451661E+03  0.83692349195E+02  0.24016460928E+03  0.10629941052E+04  0.10173318624E+04 0.  0.
         13    1    3    3    0    0 -0.89091464898E+02 -0.42856124263E+03 -0.33038337011E+01  0.43773616972E+03  0.10566000000E+00 0. -1.
         -4    1    3    3    0  502  0.26318598151E+03  0.51225359183E+03  0.24346844298E+03  0.62525793552E+03  0.00000000000E+00 0. -1.
        -13    1    1    2    0    0 -0.17409451661E+03 -0.83692349195E+02 -0.21005858365E+02  0.19430534547E+03  0.10566000000E+00 0.  1.
<mgrwt>
<rscale>  1 0.68053149E+03</rscale>
<asrwt>0</asrwt>
<pdfrwt beam="2">  1       21 0.79856977E-01 0.10355083E+04</pdfrwt>
<pdfrwt beam="1">  1       -4 0.11357371E+00 0.10355083E+04</pdfrwt>
<totfact> 0.31935223E+01</totfact>
</mgrwt>
</event>
<event>
 6    2  0.2345636E-005  0.1000747E+04  0.7818608E-02  0.9761641E-01
         21   -1    0    0  501  502  0.00000000000E+00  0.00000000000E+00  0.28081506638E+03  0.28081506638E+03  0.00000000000E+00 0. -1.
         -4   -1    0    0    0  501 -0.00000000000E+00 -0.00000000000E+00 -0.20567125192E+04  0.20567125192E+04  0.00000000000E+00 0. -1.
   -9000010    2    1    2    0  502 -0.90953802244E+02  0.18557782774E+03 -0.65112382677E+03  0.11939247501E+04  0.97917431890E+03 0.  0.
         13    1    3    3    0    0  0.18959946637E+03 -0.13262555946E+03 -0.72703422588E+03  0.76296544708E+03  0.10566000000E+00 0. -1.
         -4    1    3    3    0  502 -0.28055326861E+03  0.31820338721E+03  0.75910399115E+02  0.43095930301E+03  0.00000000000E+00 0. -1.
        -13    1    1    2    0    0  0.90953802244E+02 -0.18557782774E+03 -0.11247736261E+04  0.11436028355E+04  0.10566000000E+00 0.  1.
<mgrwt>
<rscale>  1 0.67462362E+03</rscale>
<asrwt>0</asrwt>
<pdfrwt beam="1">  1       21 0.43202317E-01 0.10007468E+04</pdfrwt>
<pdfrwt beam="2">  1       -4 0.31641732E+00 0.10007468E+04</pdfrwt>
<totfact> 0.50531182E+00</totfact>
</mgrwt>
</event>
<event>
 6    2  0.2345636E-005  0.1021599E+04  0.7818608E-02  0.9709565E-01
         -4   -1    0    0    0  501 -0.00000000000E+00  0.00000000000E+00  0.10544104332E+04  0.10544104332E+04  0.00000000000E+00 0. -1.
         21   -1    0    0  501  502  0.00000000000E+00 -0.00000000000E+00 -0.50969436984E+03  0.50969436984E+03  0.00000000000E+00 0. -1.
   -9000010    2    1    2    0  502 -0.13253374272E+03 -0.18924581975E+03  0.55534358565E+02  0.10231076453E+04  0.99513115495E+03 0.  0.
         13    1    3    3    0    0 -0.46814709080E+03  0.17486654772E+03 -0.88232406993E+02  0.50746918817E+03  0.10566000000E+00 0. -1.
         -4    1    3    3    0  502  0.33561334808E+03 -0.36411236746E+03  0.14376676556E+03  0.51563845709E+03  0.00000000000E+00 0. -1.
        -13    1    1    2    0    0  0.13253374272E+03  0.18924581975E+03  0.48918170481E+03  0.54099715779E+03  0.10566000000E+00 0.  1.
<mgrwt>
<rscale>  1 0.70450153E+03</rscale>
<asrwt>0</asrwt>
<pdfrwt beam="2">  1       21 0.78414518E-01 0.10215993E+04</pdfrwt>
<pdfrwt beam="1">  1       -4 0.16221699E+00 0.10215993E+04</pdfrwt>
<totfact> 0.13160559E+01</totfact>
</mgrwt>
</event>
<event>
 6    2  0.2345636E-005  0.9989707E+03  0.7818608E-02  0.9863302E-01
         21   -1    0    0  501  502  0.00000000000E+00  0.00000000000E+00  0.10079435641E+04  0.10079435641E+04  0.00000000000E+00 0. -1.
         -4   -1    0    0    0  501 -0.00000000000E+00 -0.00000000000E+00 -0.33395856504E+03  0.33395856504E+03  0.00000000000E+00 0. -1.
   -9000010    2    1    2    0  502 -0.14211958762E+03 -0.44495682341E+02  0.64798992251E+03  0.11907280636E+04  0.98780794628E+03 0.  0.
         13    1    3    3    0    0  0.89584983534E+02 -0.38255151441E+03 -0.34737131061E+02  0.39443353038E+03  0.10566000000E+00 0. -1.
         -4    1    3    3    0  502 -0.23170457115E+03  0.33805583207E+03  0.68272705357E+03  0.79629453317E+03  0.00000000000E+00 0. -1.
        -13    1    1    2    0    0  0.14211958762E+03  0.44495682341E+02  0.25995076525E+02  0.15117406556E+03  0.10566000000E+00 0.  1.
<mgrwt>
<rscale>  1 0.62073251E+03</rscale>
<asrwt>0</asrwt>
<pdfrwt beam="1">  1       21 0.15506824E+00 0.99897066E+03</pdfrwt>
<pdfrwt beam="2">  1       -4 0.51378241E-01 0.99897066E+03</pdfrwt>
<totfact> 0.35961472E+01</totfact>
</mgrwt>
</event>
<event>
 6    2  0.2345636E-005  0.1025452E+04  0.7818608E-02  0.9781543E-01
         21   -1    0    0  501  502  0.00000000000E+00  0.00000000000E+00  0.79825464413E+03  0.79825464413E+03  0.00000000000E+00 0. -1.
         -4   -1    0    0    0  501 -0.00000000000E+00 -0.00000000000E+00 -0.50916756987E+03  0.50916756987E+03  0.00000000000E+00 0. -1.
   -9000010    2    1    2    0  502 -0.11261019431E+03 -0.14025036949E+03  0.39476122488E+03  0.10988119092E+04  0.10095543398E+04 0.  0.
         13    1    3    3    0    0  0.13084627485E+03 -0.51816700503E+03  0.36719481184E+03  0.64842103124E+03  0.10566000000E+00 0. -1.
         -4    1    3    3    0  502 -0.24345646916E+03  0.37791663554E+03  0.27566413044E+02  0.45039087793E+03  0.00000000000E+00 0. -1.
        -13    1    1    2    0    0  0.11261019431E+03  0.14025036949E+03 -0.10567415062E+03  0.20861030482E+03  0.10566000000E+00 0.  1.
<mgrwt>
<rscale>  1 0.66362504E+03</rscale>
<asrwt>0</asrwt>
<pdfrwt beam="1">  1       21 0.12280841E+00 0.10254517E+04</pdfrwt>
<pdfrwt beam="2">  1       -4 0.78333472E-01 0.10254517E+04</pdfrwt>
<totfact> 0.26679244E+01</totfact>
</mgrwt>
</event>
<event>
 6    2  0.2345636E-005  0.1009117E+04  0.7818608E-02  0.9861506E-01
         21   -1    0    0  501  502  0.00000000000E+00  0.00000000000E+00  0.29223564992E+03  0.29223564992E+03  0.00000000000E+00 0. -1.
         -4   -1    0    0    0  501 -0.00000000000E+00 -0.00000000000E+00 -0.12329196545E+04  0.12329196545E+04  0.00000000000E+00 0. -1.
   -9000010    2    1    2    0  502 -0.83423317275E+02 -0.11898818712E+03 -0.65048027460E+03  0.12006004483E+04  0.99859862326E+03 0.  0.
         13    1    3    3    0    0 -0.34777897611E+03 -0.34374437088E+03 -0.69603994811E+03  0.85063624968E+03  0.10566000000E+00 0. -1.
         -4    1    3    3    0  502  0.26435565884E+03  0.22475618375E+03  0.45559673507E+02  0.34996419866E+03  0.00000000000E+00 0. -1.
        -13    1    1    2    0    0  0.83423317275E+02  0.11898818712E+03 -0.29020372996E+03  0.32455485606E+03  0.10566000000E+00 0.  1.
<mgrwt>
<rscale>  1 0.62163691E+03</rscale>
<asrwt>0</asrwt>
<pdfrwt beam="1">  1       21 0.44959332E-01 0.10091169E+04</pdfrwt>
<pdfrwt beam="2">  1       -4 0.18967994E+00 0.10091169E+04</pdfrwt>
<totfact> 0.29102690E+01</totfact>
</mgrwt>
</event>
<event>
 6    2  0.2345636E-005  0.9804450E+03  0.7818608E-02  0.9862970E-01
         -4   -1    0    0    0  501 -0.00000000000E+00  0.00000000000E+00  0.90449398908E+03  0.90449398908E+03  0.00000000000E+00 0. -1.
         21   -1    0    0  501  502  0.00000000000E+00 -0.00000000000E+00 -0.37458737102E+03  0.37458737102E+03  0.00000000000E+00 0. -1.
   -9000010    2    1    2    0  502 -0.73802297933E+02  0.13935836300E+03  0.35291010708E+03  0.10420258633E+04  0.96768012458E+03 0.  0.
         13    1    3    3    0    0 -0.36128104546E+03  0.43106310542E+03  0.13631632261E+03  0.57872406692E+03  0.10566000000E+00 0. -1.
         -4    1    3    3    0  502  0.28747874752E+03 -0.29170474242E+03  0.21659378446E+03  0.46330179634E+03  0.00000000000E+00 0. -1.
        -13    1    1    2    0    0  0.73802297933E+02 -0.13935836300E+03  0.17699651098E+03  0.23705549684E+03  0.10566000000E+00 0.  1.
<mgrwt>
<rscale>  1 0.62089982E+03</rscale>
<asrwt>0</asrwt>
<pdfrwt beam="2">  1       21 0.57628827E-01 0.98044498E+03</pdfrwt>
<pdfrwt beam="1">  1       -4 0.13915292E+00 0.98044498E+03</pdfrwt>
<totfact> 0.40239655E+01</totfact>
</mgrwt>
</event>
<event>
 6    2  0.2345636E-005  0.7572242E+03  0.7818608E-02  0.1022958E+00
         21   -1    0    0  501  502  0.00000000000E+00  0.00000000000E+00  0.17831183691E+04  0.17831183691E+04  0.00000000000E+00 0. -1.
         -4   -1    0    0    0  501 -0.00000000000E+00 -0.00000000000E+00 -0.10519039962E+03  0.10519039962E+03  0.00000000000E+00 0. -1.
   -9000010    2    1    2    0  502 -0.10306709601E+02  0.10843998282E+03  0.14718202099E+04  0.16551867452E+04  0.74934836560E+03 0.  0.
         13    1    3    3    0    0  0.31366044911E+03 -0.49834326063E+02  0.10661096426E+04  0.11124100497E+04  0.10566000000E+00 0. -1.
         -4    1    3    3    0  502 -0.32396715871E+03  0.15827430888E+03  0.40571056729E+03  0.54277669551E+03  0.00000000000E+00 0. -1.
        -13    1    1    2    0    0  0.10306709601E+02 -0.10843998282E+03  0.20610775955E+03  0.23312202352E+03  0.10566000000E+00 0.  1.
<mgrwt>
<rscale>  1 0.46634139E+03</rscale>
<asrwt>0</asrwt>
<pdfrwt beam="1">  1       21 0.27432588E+00 0.75722416E+03</pdfrwt>
<pdfrwt beam="2">  1       -4 0.16183140E-01 0.75722416E+03</pdfrwt>
<totfact> 0.55157672E+01</totfact>
</mgrwt>
</event>
<event>
 6    2  0.2345636E-005  0.1028507E+04  0.7818608E-02  0.9667942E-01
         21   -1    0    0  501  502  0.00000000000E+00  0.00000000000E+00  0.41200374771E+03  0.41200374771E+03  0.00000000000E+00 0. -1.
         -4   -1    0    0    0  501 -0.00000000000E+00 -0.00000000000E+00 -0.10081008503E+04  0.10081008503E+04  0.00000000000E+00 0. -1.
   -9000010    2    1    2    0  502  0.15982412821E+03 -0.20560497400E+03 -0.47844635123E+03  0.11343444403E+04  0.99499208079E+03 0.  0.
         13    1    3    3    0    0  0.45045925999E+03  0.15884446783E+03 -0.16280548397E+02  0.47792277335E+03  0.10566000000E+00 0. -1.
         -4    1    3    3    0  502 -0.29063513178E+03 -0.36444944183E+03 -0.46216580283E+03  0.65642166691E+03  0.00000000000E+00 0. -1.
        -13    1    1    2    0    0 -0.15982412821E+03  0.20560497400E+03 -0.11765075135E+03  0.28576015774E+03  0.10566000000E+00 0.  1.
<mgrwt>
<rscale>  1 0.72957998E+03</rscale>
<asrwt>0</asrwt>
<pdfrwt beam="1">  1       21 0.63385193E-01 0.10285069E+04</pdfrwt>
<pdfrwt beam="2">  1       -4 0.15509244E+00 0.10285069E+04</pdfrwt>
<totfact> 0.24254595E+01</totfact>
</mgrwt>
</event>
<event>
 6    2  0.2345636E-005  0.1056418E+04  0.7818608E-02  0.9587926E-01
         21   -1    0    0  501  502  0.00000000000E+00  0.00000000000E+00  0.30690087154E+03  0.30690087154E+03  0.00000000000E+00 0. -1.
         -4   -1    0    0    0  501 -0.00000000000E+00 -0.00000000000E+00 -0.15473622237E+04  0.15473622237E+04  0.00000000000E+00 0. -1.
   -9000010    2    1    2    0  502 -0.44594281046E+02  0.31241215055E+03 -0.87777497375E+03  0.13735018011E+04  0.10081806839E+04 0.  0.
         13    1    3    3    0    0  0.47196291688E+03  0.21931126144E+03 -0.33772893689E+03  0.62040895406E+03  0.10566000000E+00 0. -1.
         -4    1    3    3    0  502 -0.51655719793E+03  0.93100889109E+02 -0.54004603686E+03  0.75309284701E+03  0.00000000000E+00 0. -1.
        -13    1    1    2    0    0  0.44594281046E+02 -0.31241215055E+03 -0.36268637839E+03  0.48076129414E+03  0.10566000000E+00 0.  1.
<mgrwt>
<rscale>  1 0.78100482E+03</rscale>
<asrwt>0</asrwt>
<pdfrwt beam="1">  1       21 0.47215518E-01 0.10564177E+04</pdfrwt>
<pdfrwt beam="2">  1       -4 0.23805573E+00 0.10564177E+04</pdfrwt>
<totfact> 0.12684542E+01</totfact>
</mgrwt>
</event>
<event>
 6    2  0.2345636E-005  0.1019757E+04  0.7818608E-02  0.9755417E-01
         21   -1    0    0  501  502  0.00000000000E+00  0.00000000000E+00  0.17365131650E+03  0.17365131650E+03  0.00000000000E+00 0. -1.
         -4   -1    0    0    0  501 -0.00000000000E+00 -0.00000000000E+00 -0.21404772165E+04  0.21404772165E+04  0.00000000000E+00 0. -1.
   -9000010    2    1    2    0  502  0.15511363630E+03  0.12528942106E+03 -0.16599759144E+04  0.19481850893E+04  0.10000737105E+04 0.  0.
         13    1    3    3    0    0  0.32633083417E+03  0.37816321263E+03 -0.36751176000E+03  0.62013235169E+03  0.10566000000E+00 0. -1.
         -4    1    3    3    0  502 -0.17121719787E+03 -0.25287379157E+03 -0.12924641544E+04  0.13280527376E+04  0.00000000000E+00 0. -1.
        -13    1    1    2    0    0 -0.15511363630E+03 -0.12528942106E+03 -0.30684998553E+03  0.36594344369E+03  0.10566000000E+00 0.  1.
<mgrwt>
<rscale>  1 0.67811030E+03</rscale>
<asrwt>0</asrwt>
<pdfrwt beam="1">  1       21 0.26715588E-01 0.10197574E+04</pdfrwt>
<pdfrwt beam="2">  1       -4 0.32930418E+00 0.10197574E+04</pdfrwt>
<totfact> 0.11204770E+01</totfact>
</mgrwt>
</event>
<event>
 6    2  0.2345636E-005  0.1003761E+04  0.7818608E-02  0.1049646E+00
         -4   -1    0    0    0  501 -0.00000000000E+00  0.00000000000E+00  0.40727863450E+03  0.40727863450E+03  0.00000000000E+00 0. -1.
         21   -1    0    0  501  502  0.00000000000E+00 -0.00000000000E+00 -0.68356865484E+03  0.68356865484E+03  0.00000000000E+00 0. -1.
   -9000010    2    1    2    0  502  0.52424434948E+01  0.20736470032E+02 -0.31033628439E+03  0.10506397818E+04  0.10035326887E+04 0.  0.
         13    1    3    3    0    0 -0.31724803887E+03  0.59046520515E+02  0.24646427068E+03  0.40605105299E+03  0.10566000000E+00 0. -1.
         -4    1    3    3    0  502  0.32249048236E+03 -0.38310050483E+02 -0.55680055506E+03  0.64458872880E+03  0.00000000000E+00 0. -1.
        -13    1    1    2    0    0 -0.52424434948E+01 -0.20736470032E+02  0.34046264048E+02  0.40207507543E+02  0.10566000000E+00 0.  1.
<mgrwt>
<rscale>  1 0.38350495E+03</rscale>
<asrwt>0</asrwt>
<pdfrwt beam="2">  1       21 0.10516441E+00 0.10037606E+04</pdfrwt>
<pdfrwt beam="1">  1       -4 0.62658252E-01 0.10037606E+04</pdfrwt>
<totfact> 0.65546020E+01</totfact>
</mgrwt>
</event>
<event>
 6    2  0.2345636E-005  0.1132656E+04  0.7818608E-02  0.9376743E-01
         -4   -1    0    0    0  501 -0.00000000000E+00  0.00000000000E+00  0.10850956415E+04  0.10850956415E+04  0.00000000000E+00 0. -1.
         21   -1    0    0  501  502  0.00000000000E+00 -0.00000000000E+00 -0.64290252403E+03  0.64290252403E+03  0.00000000000E+00 0.  1.
   -9000010    2    1    2    0  502 -0.49371437968E+03  0.21282857257E+03  0.28825340725E+03  0.11687599913E+04  0.99692527325E+03 0.  0.
         13    1    3    3    0    0  0.75322871206E+02  0.29175877356E+03  0.47687836757E+03  0.56410079374E+03  0.10566000000E+00 0. -1.
         -4    1    3    3    0  502 -0.56903725088E+03 -0.78930200992E+02 -0.18862496032E+03  0.60465919755E+03  0.00000000000E+00 0. -1.
        -13    1    1    2    0    0  0.49371437968E+03 -0.21282857257E+03  0.15393971024E+03  0.55923817426E+03  0.10566000000E+00 0.  1.
<mgrwt>
<rscale>  1 0.94014569E+03</rscale>
<asrwt>0</asrwt>
<pdfrwt beam="2">  1       21 0.98908081E-01 0.11326561E+04</pdfrwt>
<pdfrwt beam="1">  1       -4 0.16693779E+00 0.11326561E+04</pdfrwt>
<totfact> 0.68656754E+00</totfact>
</mgrwt>
</event>
<event>
 6    2  0.2345636E-005  0.1414571E+04  0.7818608E-02  0.9020701E-01
         -4   -1    0    0    0  501 -0.00000000000E+00  0.00000000000E+00  0.16829828901E+04  0.16829828901E+04  0.00000000000E+00 0. -1.
         21   -1    0    0  501  502  0.00000000000E+00 -0.00000000000E+00 -0.91889748768E+03  0.91889748768E+03  0.00000000000E+00 0.  1.
   -9000010    2    1    2    0  502 -0.20215616659E+03 -0.10246073004E+04  0.63152969883E+03  0.15491419196E+04  0.95410884643E+03 0.  0.
         13    1    3    3    0    0 -0.11748808831E+03 -0.11914964881E+04  0.42507413531E+03  0.12704941416E+04  0.10566000000E+00 0. -1.
         -4    1    3    3    0  502 -0.84668078286E+02  0.16688918777E+03  0.20645556353E+03  0.27864777800E+03  0.00000000000E+00 0. -1.
        -13    1    1    2    0    0  0.20215616659E+03  0.10246073004E+04  0.13255570356E+03  0.10527384582E+04  0.10566000000E+00 0.  1.
<mgrwt>
<rscale>  1 0.13112368E+04</rscale>
<asrwt>0</asrwt>
<pdfrwt beam="2">  1       21 0.14136884E+00 0.14145709E+04</pdfrwt>
<pdfrwt beam="1">  1       -4 0.25892044E+00 0.14145709E+04</pdfrwt>
<totfact> 0.64915382E-01</totfact>
</mgrwt>
</event>
<event>
 6    2  0.2345636E-005  0.1082243E+04  0.7818608E-02  0.9494742E-01
         -4   -1    0    0    0  501 -0.00000000000E+00  0.00000000000E+00  0.68895499139E+03  0.68895499139E+03  0.00000000000E+00 0. -1.
         21   -1    0    0  501  502  0.00000000000E+00 -0.00000000000E+00 -0.85924265401E+03  0.85924265401E+03  0.00000000000E+00 0. -1.
   -9000010    2    1    2    0  502 -0.19675673760E+02  0.40502759157E+03  0.56250587214E+02  0.10837042957E+04  0.10034024068E+04 0.  0.
         13    1    3    3    0    0  0.20543848951E+03  0.64140506124E+03  0.23279445541E+03  0.71259995453E+03  0.10566000000E+00 0. -1.
         -4    1    3    3    0  502 -0.22511416327E+03 -0.23637746967E+03 -0.17654386820E+03  0.37110434122E+03  0.00000000000E+00 0. -1.
        -13    1    1    2    0    0  0.19675673760E+02 -0.40502759157E+03 -0.22653824984E+03  0.46449334966E+03  0.10566000000E+00 0.  1.
<mgrwt>
<rscale>  1 0.84672599E+03</rscale>
<asrwt>0</asrwt>
<pdfrwt beam="2">  1       21 0.13219118E+00 0.10822434E+04</pdfrwt>
<pdfrwt beam="1">  1       -4 0.10599308E+00 0.10822434E+04</pdfrwt>
<totfact> 0.10679445E+01</totfact>
</mgrwt>
</event>
<event>
 6    2  0.2345636E-005  0.1027598E+04  0.7818608E-02  0.9742603E-01
         -4   -1    0    0    0  501 -0.00000000000E+00  0.00000000000E+00  0.10050138387E+04  0.10050138387E+04  0.00000000000E+00 0. -1.
         21   -1    0    0  501  502  0.00000000000E+00 -0.00000000000E+00 -0.40386946818E+03  0.40386946818E+03  0.00000000000E+00 0. -1.
   -9000010    2    1    2    0  502 -0.16185379858E+03  0.12307218226E+03  0.34960521813E+03  0.10854403127E+04  0.10072802240E+04 0.  0.
         13    1    3    3    0    0 -0.38947728547E+03 -0.13238576483E+03  0.55160624560E+03  0.68810464900E+03  0.10566000000E+00 0. -1.
         -4    1    3    3    0  502  0.22762348689E+03  0.25545794710E+03 -0.20200102747E+03  0.39733566366E+03  0.00000000000E+00 0. -1.
        -13    1    1    2    0    0  0.16185379858E+03 -0.12307218226E+03  0.25153915241E+03  0.32344299423E+03  0.10566000000E+00 0.  1.
<mgrwt>
<rscale>  1 0.68535901E+03</rscale>
<asrwt>0</asrwt>
<pdfrwt beam="2">  1       21 0.62133765E-01 0.10275976E+04</pdfrwt>
<pdfrwt beam="1">  1       -4 0.15461751E+00 0.10275976E+04</pdfrwt>
<totfact> 0.25580557E+01</totfact>
</mgrwt>
</event>
<event>
 6    2  0.2345636E-005  0.1000166E+04  0.7818608E-02  0.9857583E-01
         21   -1    0    0  501  502  0.00000000000E+00  0.00000000000E+00  0.60621130792E+03  0.60621130792E+03  0.00000000000E+00 0. -1.
         -4   -1    0    0    0  501 -0.00000000000E+00 -0.00000000000E+00 -0.65795143249E+03  0.65795143249E+03  0.00000000000E+00 0. -1.
   -9000010    2    1    2    0  502  0.68494991744E+02 -0.13475891786E+03  0.15075666208E+03  0.10114643241E+04  0.98867637675E+03 0.  0.
         13    1    3    3    0    0  0.12157773258E+03 -0.19721183270E+03  0.55372876287E+03  0.60024095662E+03  0.10566000000E+00 0. -1.
         -4    1    3    3    0  502 -0.53082740837E+02  0.62452914843E+02 -0.40297210079E+03  0.41122336748E+03  0.00000000000E+00 0. -1.
        -13    1    1    2    0    0 -0.68494991744E+02  0.13475891786E+03 -0.20249678665E+03  0.25269841630E+03  0.10566000000E+00 0.  1.
<mgrwt>
<rscale>  1 0.62361791E+03</rscale>
<asrwt>0</asrwt>
<pdfrwt beam="1">  1       21 0.93263278E-01 0.10001662E+04</pdfrwt>
<pdfrwt beam="2">  1       -4 0.10122330E+00 0.10001662E+04</pdfrwt>
<totfact> 0.29301406E+01</totfact>
</mgrwt>
</event>
<event>
 6    2  0.2345636E-005  0.1349927E+04  0.7818608E-02  0.9094378E-01
         21   -1    0    0  501  502  0.00000000000E+00  0.00000000000E+00  0.18325683146E+04  0.18325683146E+04  0.00000000000E+00 0.  1.
         -4   -1    0    0    0  501 -0.00000000000E+00 -0.00000000000E+00 -0.97120268883E+03  0.97120268883E+03  0.00000000000E+00 0. -1.
   -9000010    2    1    2    0  502 -0.17202233847E+02  0.90435826120E+03  0.12307245180E+04  0.18267419435E+04  0.10020696121E+04 0.  0.
         13    1    3    3    0    0 -0.17222217690E+03  0.21241430948E+03  0.10636344054E+04  0.10982251484E+04  0.10566000000E+00 0. -1.
         -4    1    3    3    0  502  0.15501994306E+03  0.69194395172E+03  0.16709011265E+03  0.72851679515E+03  0.00000000000E+00 0. -1.
        -13    1    1    2    0    0  0.17202233847E+02 -0.90435826120E+03 -0.36935889224E+03  0.97702905990E+03  0.10566000000E+00 0.  1.
<mgrwt>
<rscale>  1 0.12213426E+04</rscale>
<asrwt>0</asrwt>
<pdfrwt beam="1">  1       21 0.28193359E+00 0.13499271E+04</pdfrwt>
<pdfrwt beam="2">  1       -4 0.14941580E+00 0.13499271E+04</pdfrwt>
<totfact> 0.37570419E-01</totfact>
</mgrwt>
</event>
<event>
 6    2  0.2345636E-005  0.1031043E+04  0.7818608E-02  0.9687712E-01
         -4   -1    0    0    0  501 -0.00000000000E+00  0.00000000000E+00  0.14990711098E+04  0.14990711098E+04  0.00000000000E+00 0. -1.
         21   -1    0    0  501  502  0.00000000000E+00 -0.00000000000E+00 -0.52669435471E+03  0.52669435471E+03  0.00000000000E+00 0. -1.
   -9000010    2    1    2    0  502  0.16323084932E+03  0.17844842541E+03  0.75291562032E+01  0.10310700081E+04  0.10022776675E+04 0.  0.
         13    1    3    3    0    0 -0.25817556012E+03  0.45673003403E+03 -0.22959188843E+02  0.52515148228E+03  0.10566000000E+00 0. -1.
         -4    1    3    3    0  502  0.42140640943E+03 -0.27828160862E+03  0.30488345046E+02  0.50591852585E+03  0.00000000000E+00 0. -1.
        -13    1    1    2    0    0 -0.16323084932E+03 -0.17844842541E+03  0.96484759889E+03  0.99469545638E+03  0.10566000000E+00 0.  1.
<mgrwt>
<rscale>  1 0.71753143E+03</rscale>
<asrwt>0</asrwt>
<pdfrwt beam="2">  1       21 0.81029901E-01 0.10310425E+04</pdfrwt>
<pdfrwt beam="1">  1       -4 0.23062632E+00 0.10310425E+04</pdfrwt>
<totfact> 0.42118992E+00</totfact>
</mgrwt>
</event>
<event>
 6    2  0.2345636E-005  0.1100831E+04  0.7818608E-02  0.9423462E-01
         -4   -1    0    0    0  501 -0.00000000000E+00  0.00000000000E+00  0.73442303783E+03  0.73442303783E+03  0.00000000000E+00 0. -1.
         21   -1    0    0  501  502  0.00000000000E+00 -0.00000000000E+00 -0.11435811978E+04  0.11435811978E+04  0.00000000000E+00 0. -1.
   -9000010    2    1    2    0  502 -0.49531203928E+03  0.15143158468E+02 -0.69891875134E+03  0.13039619524E+04  0.98298831161E+03 0.  0.
         13    1    3    3    0    0  0.20959573225E+03  0.24782580858E+03 -0.36956399270E+03  0.49185928703E+03  0.10566000000E+00 0. -1.
         -4    1    3    3    0  502 -0.70490777153E+03 -0.23268265011E+03 -0.32935475864E+03  0.81210266534E+03  0.00000000000E+00 0. -1.
        -13    1    1    2    0    0  0.49531203928E+03 -0.15143158468E+02  0.28976059136E+03  0.57404228326E+03  0.10566000000E+00 0.  1.
<mgrwt>
<rscale>  1 0.90169776E+03</rscale>
<asrwt>0</asrwt>
<pdfrwt beam="2">  1       21 0.17593557E+00 0.11008312E+04</pdfrwt>
<pdfrwt beam="1">  1       -4 0.11298816E+00 0.11008312E+04</pdfrwt>
<totfact> 0.40675204E+00</totfact>
</mgrwt>
</event>
<event>
 6    2  0.2345636E-005  0.1111281E+04  0.7818608E-02  0.9459116E-01
         21   -1    0    0  501  502  0.00000000000E+00  0.00000000000E+00  0.55689254666E+03  0.55689254666E+03  0.00000000000E+00 0. -1.
         -4   -1    0    0    0  501 -0.00000000000E+00 -0.00000000000E+00 -0.17728714158E+04  0.17728714158E+04  0.00000000000E+00 0. -1.
   -9000010    2    1    2    0  502  0.38034710196E+03 -0.18857018294E+03 -0.76659566580E+02  0.11139222309E+04  0.10269972812E+04 0.  0.
         13    1    3    3    0    0 -0.86234192924E+02  0.34258492132E+03  0.13146823572E+03  0.37694120564E+03  0.10566000000E+00 0. -1.
         -4    1    3    3    0  502  0.46658129488E+03 -0.53115510426E+03 -0.20812780230E+03  0.73698102527E+03  0.00000000000E+00 0. -1.
        -13    1    1    2    0    0 -0.38034710196E+03  0.18857018294E+03 -0.11393193026E+04  0.12158417316E+04  0.10566000000E+00 0.  1.
<mgrwt>
<rscale>  1 0.87366344E+03</rscale>
<asrwt>0</asrwt>
<pdfrwt beam="1">  1       21 0.85675777E-01 0.11112813E+04</pdfrwt>
<pdfrwt beam="2">  1       -4 0.27274945E+00 0.11112813E+04</pdfrwt>
<totfact> 0.19980792E+00</totfact>
</mgrwt>
</event>
<event>
 6    2  0.2345636E-005  0.1029860E+04  0.7818608E-02  0.9699613E-01
         -4   -1    0    0    0  501 -0.00000000000E+00  0.00000000000E+00  0.34289861373E+03  0.34289861373E+03  0.00000000000E+00 0. -1.
         21   -1    0    0  501  502  0.00000000000E+00 -0.00000000000E+00 -0.11734017507E+04  0.11734017507E+04  0.00000000000E+00 0. -1.
   -9000010    2    1    2    0  502 -0.21082441665E+03  0.99605499797E+02 -0.61948027628E+03  0.12018184903E+04  0.10031169826E+04 0.  0.
         13    1    3    3    0    0 -0.60763027913E+03  0.12404706947E+03 -0.46571789942E+03  0.77556134803E+03  0.10566000000E+00 0. -1.
         -4    1    3    3    0  502  0.39680586248E+03 -0.24441569668E+02 -0.15376237686E+03  0.42625714230E+03  0.00000000000E+00 0. -1.
        -13    1    1    2    0    0  0.21082441665E+03 -0.99605499797E+02 -0.21102286071E+03  0.31448187412E+03  0.10566000000E+00 0.  1.
<mgrwt>
<rscale>  1 0.71039821E+03</rscale>
<asrwt>0</asrwt>
<pdfrwt beam="2">  1       21 0.18052334E+00 0.10298601E+04</pdfrwt>
<pdfrwt beam="1">  1       -4 0.52753634E-01 0.10298601E+04</pdfrwt>
<totfact> 0.21754883E+01</totfact>
</mgrwt>
</event>
<event>
 6    2  0.2345636E-005  0.1069409E+04  0.7818608E-02  0.9505540E-01
         21   -1    0    0  501  502  0.00000000000E+00  0.00000000000E+00  0.21104291109E+04  0.21104291109E+04  0.00000000000E+00 0. -1.
         -4   -1    0    0    0  501 -0.00000000000E+00 -0.00000000000E+00 -0.34851716226E+03  0.34851716226E+03  0.00000000000E+00 0. -1.
   -9000010    2    1    2    0  502 -0.21102551072E+03  0.34532496251E+03  0.17538436180E+04  0.20541670679E+04  0.98987565406E+03 0.  0.
         13    1    3    3    0    0 -0.54600747901E+03  0.20531771434E+03  0.15047671914E+04  0.16138785092E+04  0.10566000000E+00 0. -1.
         -4    1    3    3    0  502  0.33498196829E+03  0.14000724818E+03  0.24907642657E+03  0.44028855867E+03  0.00000000000E+00 0. -1.
        -13    1    1    2    0    0  0.21102551072E+03 -0.34532496251E+03  0.80683306468E+01  0.40477920529E+03  0.10566000000E+00 0.  1.
<mgrwt>
<rscale>  1 0.83876587E+03</rscale>
<asrwt>0</asrwt>
<pdfrwt beam="1">  1       21 0.32468140E+00 0.10694087E+04</pdfrwt>
<pdfrwt beam="2">  1       -4 0.53618026E-01 0.10694087E+04</pdfrwt>
<totfact> 0.24297882E+00</totfact>
</mgrwt>
</event>
<event>
 6    2  0.2345636E-005  0.1100387E+04  0.7818608E-02  0.9472335E-01
         -4   -1    0    0    0  501 -0.00000000000E+00  0.00000000000E+00  0.51149183888E+03  0.51149183888E+03  0.00000000000E+00 0. -1.
         21   -1    0    0  501  502  0.00000000000E+00 -0.00000000000E+00 -0.12740697667E+04  0.12740697667E+04  0.00000000000E+00 0. -1.
   -9000010    2    1    2    0  502  0.40761336394E+03 -0.89643441004E+02 -0.80880327376E+03  0.13656551937E+04  0.10181683414E+04 0.  0.
         13    1    3    3    0    0  0.32870396143E+03  0.14848274233E+03 -0.99166473723E+03  0.10552214845E+04  0.10566000000E+00 0. -1.
         -4    1    3    3    0  502  0.78909402512E+02 -0.23812618333E+03  0.18286146347E+03  0.31043370921E+03  0.00000000000E+00 0. -1.
        -13    1    1    2    0    0 -0.40761336394E+03  0.89643441004E+02  0.46225345954E+02  0.41990641190E+03  0.10566000000E+00 0.  1.
<mgrwt>
<rscale>  1 0.86354562E+03</rscale>
<asrwt>0</asrwt>
<pdfrwt beam="2">  1       21 0.19601073E+00 0.11003869E+04</pdfrwt>
<pdfrwt beam="1">  1       -4 0.78691053E-01 0.11003869E+04</pdfrwt>
<totfact> 0.69223442E+00</totfact>
</mgrwt>
</event>
<event>
 6    2  0.2345636E-005  0.1002534E+04  0.7818608E-02  0.9894066E-01
         21   -1    0    0  501  502  0.00000000000E+00  0.00000000000E+00  0.40377801018E+03  0.40377801018E+03  0.00000000000E+00 0. -1.
         -4   -1    0    0    0  501 -0.00000000000E+00 -0.00000000000E+00 -0.86951163929E+03  0.86951163929E+03  0.00000000000E+00 0. -1.
   -9000010    2    1    2    0  502 -0.47287440148E+02  0.12473604541E+03 -0.27326115840E+03  0.10391084244E+04  0.99361938084E+03 0.  0.
         13    1    3    3    0    0  0.46360620800E+03  0.11443018524E+03 -0.21865983622E+03  0.52520197879E+03  0.10566000000E+00 0. -1.
         -4    1    3    3    0  502 -0.51089364815E+03  0.10305860173E+02 -0.54601322179E+02  0.51390644562E+03  0.00000000000E+00 0. -1.
        -13    1    1    2    0    0  0.47287440148E+02 -0.12473604541E+03 -0.19247247072E+03  0.23418122505E+03  0.10566000000E+00 0.  1.
<mgrwt>
<rscale>  1 0.60549730E+03</rscale>
<asrwt>0</asrwt>
<pdfrwt beam="1">  1       21 0.62119694E-01 0.10025341E+04</pdfrwt>
<pdfrwt beam="2">  1       -4 0.13377102E+00 0.10025341E+04</pdfrwt>
<totfact> 0.37656463E+01</totfact>
</mgrwt>
</event>
<event>
 6    2  0.2345636E-005  0.1010564E+04  0.7818608E-02  0.9898836E-01
         -4   -1    0    0    0  501 -0.00000000000E+00  0.00000000000E+00  0.12065852416E+03  0.12065852416E+03  0.00000000000E+00 0. -1.
         21   -1    0    0  501  502  0.00000000000E+00 -0.00000000000E+00 -0.30130306878E+04  0.30130306878E+04  0.00000000000E+00 0. -1.
   -9000010    2    1    2    0  502 -0.86774433085E+02 -0.94449222058E+02 -0.27966949504E+04  0.29736748436E+04  0.10023916261E+04 0.  0.
         13    1    3    3    0    0 -0.40373341164E+03  0.28033946830E+03 -0.17480428487E+04  0.18158316820E+04  0.10566000000E+00 0. -1.
         -4    1    3    3    0  502  0.31695897856E+03 -0.37478869036E+03 -0.10486521017E+04  0.11578431616E+04  0.00000000000E+00 0. -1.
        -13    1    1    2    0    0  0.86774433085E+02  0.94449222058E+02 -0.95677213220E+02  0.16001436835E+03  0.10566000000E+00 0.  1.
<mgrwt>
<rscale>  1 0.60317749E+03</rscale>
<asrwt>0</asrwt>
<pdfrwt beam="2">  1       21 0.46354315E+00 0.10105639E+04</pdfrwt>
<pdfrwt beam="1">  1       -4 0.18562851E-01 0.10105639E+04</pdfrwt>
<totfact> 0.24649889E+00</totfact>
</mgrwt>
</event>
<event>
 6    2  0.2345636E-005  0.1057762E+04  0.7818608E-02  0.9611260E-01
         -4   -1    0    0    0  501 -0.00000000000E+00  0.00000000000E+00  0.50439957164E+03  0.50439957164E+03  0.00000000000E+00 0. -1.
         21   -1    0    0  501  502  0.00000000000E+00 -0.00000000000E+00 -0.93672760622E+03  0.93672760622E+03  0.00000000000E+00 0. -1.
   -9000010    2    1    2    0  502  0.11985566587E+03 -0.26432366112E+03 -0.45187948140E+03  0.11502412059E+04  0.10171663519E+04 0.  0.
         13    1    3    3    0    0 -0.15572815246E+03  0.14727926423E+02  0.27952738071E+03  0.32031818090E+03  0.10566000000E+00 0. -1.
         -4    1    3    3    0  502  0.27558381833E+03 -0.27905158754E+03 -0.73140686211E+03  0.82992302497E+03  0.00000000000E+00 0. -1.
        -13    1    1    2    0    0 -0.11985566587E+03  0.26432366112E+03  0.19551446823E+02  0.29088597200E+03  0.10566000000E+00 0.  1.
<mgrwt>
<rscale>  1 0.76555388E+03</rscale>
<asrwt>0</asrwt>
<pdfrwt beam="2">  1       21 0.14411194E+00 0.10577617E+04</pdfrwt>
<pdfrwt beam="1">  1       -4 0.77599935E-01 0.10577617E+04</pdfrwt>
<totfact> 0.17693936E+01</totfact>
</mgrwt>
</event>
<event>
 6    2  0.2345636E-005  0.1049966E+04  0.7818608E-02  0.9828684E-01
         -4   -1    0    0    0  501 -0.00000000000E+00  0.00000000000E+00  0.23376994706E+04  0.23376994706E+04  0.00000000000E+00 0. -1.
         21   -1    0    0  501  502  0.00000000000E+00 -0.00000000000E+00 -0.15240635144E+03  0.15240635144E+03  0.00000000000E+00 0. -1.
   -9000010    2    1    2    0  502 -0.58424876063E+02  0.13112109848E+03  0.19392976389E+04  0.22052900990E+04  0.10401071483E+04 0.  0.
         13    1    3    3    0    0 -0.14344519086E+03  0.19675869986E+03  0.20421276271E+04  0.20565932425E+04  0.10566000000E+00 0. -1.
         -4    1    3    3    0  502  0.85020314795E+02 -0.65637601380E+02 -0.10282998822E+03  0.14869685646E+03  0.00000000000E+00 0. -1.
        -13    1    1    2    0    0  0.58424876063E+02 -0.13112109848E+03  0.24599548032E+03  0.28481572307E+03  0.10566000000E+00 0.  1.
<mgrwt>
<rscale>  1 0.63845655E+03</rscale>
<asrwt>0</asrwt>
<pdfrwt beam="2">  1       21 0.23447133E-01 0.10499662E+04</pdfrwt>
<pdfrwt beam="1">  1       -4 0.35964605E+00 0.10499662E+04</pdfrwt>
<totfact> 0.92134059E+00</totfact>
</mgrwt>
</event>
<event>
 6    2  0.2345636E-005  0.1024322E+04  0.7818608E-02  0.9843660E-01
         21   -1    0    0  501  502  0.00000000000E+00  0.00000000000E+00  0.15101686397E+04  0.15101686397E+04  0.00000000000E+00 0. -1.
         -4   -1    0    0    0  501 -0.00000000000E+00 -0.00000000000E+00 -0.22929659929E+03  0.22929659929E+03  0.00000000000E+00 0. -1.
   -9000010    2    1    2    0  502 -0.20304584052E+02 -0.14583003274E+03  0.11707678564E+04  0.15556130781E+04  0.10136843692E+04 0.  0.
         13    1    3    3    0    0 -0.33676781899E+03  0.30800804128E+03  0.40024966497E+03  0.60702662452E+03  0.10566000000E+00 0. -1.
         -4    1    3    3    0  502  0.31646323494E+03 -0.45383807401E+03  0.77051819146E+03  0.94858645355E+03  0.00000000000E+00 0. -1.
        -13    1    1    2    0    0  0.20304584052E+02  0.14583003274E+03  0.11010418396E+03  0.18385216091E+03  0.10566000000E+00 0.  1.
<mgrwt>
<rscale>  1 0.63071238E+03</rscale>
<asrwt>0</asrwt>
<pdfrwt beam="1">  1       21 0.23233363E+00 0.10243216E+04</pdfrwt>
<pdfrwt beam="2">  1       -4 0.35276401E-01 0.10243216E+04</pdfrwt>
<totfact> 0.22159512E+01</totfact>
</mgrwt>
</event>
<event>
 6    2  0.2345636E-005  0.9919214E+03  0.7818608E-02  0.9799928E-01
         -4   -1    0    0    0  501 -0.00000000000E+00  0.00000000000E+00  0.50034821078E+03  0.50034821078E+03  0.00000000000E+00 0. -1.
         21   -1    0    0  501  502  0.00000000000E+00 -0.00000000000E+00 -0.10494645991E+04  0.10494645991E+04  0.00000000000E+00 0. -1.
   -9000010    2    1    2    0  502 -0.16955721587E+03  0.79010165502E+02 -0.77337190330E+03  0.12577806150E+04  0.97412305130E+03 0.  0.
         13    1    3    3    0    0 -0.22661377635E+03 -0.82533457725E+02 -0.96852142993E+03  0.99809786428E+03  0.10566000000E+00 0. -1.
         -4    1    3    3    0  502  0.57056560477E+02  0.16154362323E+03  0.19514952664E+03  0.25968275077E+03  0.00000000000E+00 0. -1.
        -13    1    1    2    0    0  0.16955721587E+03 -0.79010165502E+02  0.22425551493E+03  0.29203219488E+03  0.10566000000E+00 0.  1.
<mgrwt>
<rscale>  1 0.65366381E+03</rscale>
<asrwt>0</asrwt>
<pdfrwt beam="2">  1       21 0.16145609E+00 0.99192136E+03</pdfrwt>
<pdfrwt beam="1">  1       -4 0.76976649E-01 0.99192136E+03</pdfrwt>
<totfact> 0.13195218E+01</totfact>
</mgrwt>
</event>
<event>
 6    2  0.2345636E-005  0.1021742E+04  0.7818608E-02  0.9710967E-01
         21   -1    0    0  501  502  0.00000000000E+00  0.00000000000E+00  0.25595424733E+03  0.25595424733E+03  0.00000000000E+00 0. -1.
         -4   -1    0    0    0  501 -0.00000000000E+00 -0.00000000000E+00 -0.15370238040E+04  0.15370238040E+04  0.00000000000E+00 0. -1.
   -9000010    2    1    2    0  502 -0.37014611782E+02  0.22686122020E+03 -0.10907332632E+04  0.14945421110E+04  0.99555058902E+03 0.  0.
         13    1    3    3    0    0  0.22880836146E+03  0.51469037183E+03 -0.89268515465E+03  0.10555312604E+04  0.10566000000E+00 0. -1.
         -4    1    3    3    0  502 -0.26582297325E+03 -0.28782915163E+03 -0.19804810854E+03  0.43901085058E+03  0.00000000000E+00 0. -1.
        -13    1    1    2    0    0  0.37014611782E+02 -0.22686122020E+03 -0.19033629343E+03  0.29843594032E+03  0.10566000000E+00 0.  1.
<mgrwt>
<rscale>  1 0.70367544E+03</rscale>
<asrwt>0</asrwt>
<pdfrwt beam="1">  1       21 0.39377576E-01 0.10217422E+04</pdfrwt>
<pdfrwt beam="2">  1       -4 0.23646520E+00 0.10217422E+04</pdfrwt>
<totfact> 0.19134725E+01</totfact>
</mgrwt>
</event>
<event>
 6    2  0.2345636E-005  0.1038133E+04  0.7818608E-02  0.9662514E-01
         21   -1    0    0  501  502  0.00000000000E+00  0.00000000000E+00  0.16236241230E+03  0.16236241230E+03  0.00000000000E+00 0. -1.
         -4   -1    0    0    0  501 -0.00000000000E+00 -0.00000000000E+00 -0.28916992606E+04  0.28916992606E+04  0.00000000000E+00 0. -1.
   -9000010    2    1    2    0  502 -0.25169765177E+02 -0.25669545473E+03 -0.16915831199E+04  0.19847353029E+04  0.10055817707E+04 0.  0.
         13    1    3    3    0    0  0.22007631053E+03 -0.52031767841E+03 -0.14361524377E+04  0.15432750580E+04  0.10566000000E+00 0. -1.
         -4    1    3    3    0  502 -0.24524607571E+03  0.26362222368E+03 -0.25543068211E+03  0.44146024491E+03  0.00000000000E+00 0. -1.
        -13    1    1    2    0    0  0.25169765177E+02  0.25669545473E+03 -0.10377537284E+04  0.10693263700E+04  0.10566000000E+00 0.  1.
<mgrwt>
<rscale>  1 0.73293226E+03</rscale>
<asrwt>0</asrwt>
<pdfrwt beam="1">  1       21 0.24978834E-01 0.10381333E+04</pdfrwt>
<pdfrwt beam="2">  1       -4 0.44487679E+00 0.10381333E+04</pdfrwt>
<totfact> 0.20790769E+00</totfact>
</mgrwt>
</event>
<event>
 6    2  0.2345636E-005  0.1100292E+04  0.7818608E-02  0.9465746E-01
         21   -1    0    0  501  502  0.00000000000E+00  0.00000000000E+00  0.72241121706E+03  0.72241121706E+03  0.00000000000E+00 0. -1.
         -4   -1    0    0    0  501 -0.00000000000E+00 -0.00000000000E+00 -0.13711295306E+04  0.13711295306E+04  0.00000000000E+00 0. -1.
   -9000010    2    1    2    0  502 -0.40534189274E+03  0.13509926767E+03  0.22307391499E+03  0.11226774396E+04  0.10139471385E+04 0.  0.
         13    1    3    3    0    0 -0.68800525553E+03 -0.77719339353E+02 -0.21230576667E+02  0.69270648611E+03  0.10566000000E+00 0. -1.
         -4    1    3    3    0  502  0.28266336279E+03  0.21281860703E+03  0.24430449166E+03  0.42997095344E+03  0.00000000000E+00 0. -1.
        -13    1    1    2    0    0  0.40534189274E+03 -0.13509926767E+03 -0.87179222848E+03  0.97086330806E+03  0.10566000000E+00 0.  1.
<mgrwt>
<rscale>  1 0.86857009E+03</rscale>
<asrwt>0</asrwt>
<pdfrwt beam="1">  1       21 0.11114019E+00 0.11002921E+04</pdfrwt>
<pdfrwt beam="2">  1       -4 0.21094301E+00 0.11002921E+04</pdfrwt>
<totfact> 0.25691605E+00</totfact>
</mgrwt>
</event>
<event>
 6    2  0.2345636E-005  0.1058170E+04  0.7818608E-02  0.9549772E-01
         21   -1    0    0  501  502  0.00000000000E+00  0.00000000000E+00  0.44394268447E+03  0.44394268447E+03  0.00000000000E+00 0. -1.
         -4   -1    0    0    0  501 -0.00000000000E+00 -0.00000000000E+00 -0.13311718176E+04  0.13311718176E+04  0.00000000000E+00 0. -1.
   -9000010    2    1    2    0  502  0.35417504283E+03  0.53297487042E+02 -0.32220827018E+03  0.11061382919E+04  0.99571239234E+03 0.  0.
         13    1    3    3    0    0 -0.34336675296E+03  0.78594704341E+01 -0.18393274582E+02  0.34394886542E+03  0.10566000000E+00 0. -1.
         -4    1    3    3    0  502  0.69754179578E+03  0.45438016608E+02 -0.30381499560E+03  0.76218942644E+03  0.00000000000E+00 0. -1.
        -13    1    1    2    0    0 -0.35417504283E+03 -0.53297487042E+02 -0.56502086291E+03  0.66897621017E+03  0.10566000000E+00 0.  1.
<mgrwt>
<rscale>  1 0.80711739E+03</rscale>
<asrwt>0</asrwt>
<pdfrwt beam="1">  1       21 0.68298874E-01 0.10581700E+04</pdfrwt>
<pdfrwt beam="2">  1       -4 0.20479567E+00 0.10581700E+04</pdfrwt>
<totfact> 0.91417469E+00</totfact>
</mgrwt>
</event>
<event>
 6    2  0.2345636E-005  0.1301718E+04  0.7818608E-02  0.9150328E-01
         -4   -1    0    0    0  501 -0.00000000000E+00  0.00000000000E+00  0.19917085005E+04  0.19917085005E+04  0.00000000000E+00 0. -1.
         21   -1    0    0  501  502  0.00000000000E+00 -0.00000000000E+00 -0.57588896081E+03  0.57588896081E+03  0.00000000000E+00 0. -1.
   -9000010    2    1    2    0  502 -0.81552801273E+03 -0.79001835051E+01  0.67747584483E+03  0.14674612082E+04  0.10145543479E+04 0.  0.
         13    1    3    3    0    0 -0.91315840483E+03  0.22194664989E+03  0.25006695454E+03  0.97244644100E+03  0.10566000000E+00 0. -1.
         -4    1    3    3    0  502  0.97630392099E+02 -0.22984683339E+03  0.42740889029E+03  0.49501476724E+03  0.00000000000E+00 0. -1.
        -13    1    1    2    0    0  0.81552801273E+03  0.79001835051E+01  0.73834369486E+03  0.11001362531E+04  0.10566000000E+00 0.  1.
<mgrwt>
<rscale>  1 0.11581169E+04</rscale>
<asrwt>0</asrwt>
<pdfrwt beam="2">  1       21 0.88598303E-01 0.13017177E+04</pdfrwt>
<pdfrwt beam="1">  1       -4 0.30641669E+00 0.13017177E+04</pdfrwt>
<totfact> 0.11102966E+00</totfact>
</mgrwt>
</event>
<event>
 6    2  0.2345636E-005  0.1028768E+04  0.7818608E-02  0.9671233E-01
         -4   -1    0    0    0  501 -0.00000000000E+00  0.00000000000E+00  0.13407316143E+04  0.13407316143E+04  0.00000000000E+00 0. -1.
         21   -1    0    0  501  502  0.00000000000E+00 -0.00000000000E+00 -0.36416103924E+03  0.36416103924E+03  0.00000000000E+00 0. -1.
   -9000010    2    1    2    0  502  0.18783768552E+03 -0.17590720118E+03  0.45827285009E+03  0.11262227283E+04  0.99606088621E+03 0.  0.
         13    1    3    3    0    0 -0.35154628481E+03 -0.22833218404E+03  0.42003291836E+01  0.41921120043E+03  0.10566000000E+00 0. -1.
         -4    1    3    3    0  502  0.53938397033E+03  0.52424982861E+02  0.45407252091E+03  0.70701152786E+03  0.00000000000E+00 0. -1.
        -13    1    1    2    0    0 -0.18783768552E+03  0.17590720118E+03  0.51829772493E+03  0.57866992523E+03  0.10566000000E+00 0.  1.
<mgrwt>
<rscale>  1 0.72755687E+03</rscale>
<asrwt>0</asrwt>
<pdfrwt beam="2">  1       21 0.56024776E-01 0.10287680E+04</pdfrwt>
<pdfrwt beam="1">  1       -4 0.20626640E+00 0.10287680E+04</pdfrwt>
<totfact> 0.13988905E+01</totfact>
</mgrwt>
</event>
<event>
 6    2  0.2345636E-005  0.9903160E+03  0.7818608E-02  0.9748241E-01
         21   -1    0    0  501  502  0.00000000000E+00  0.00000000000E+00  0.31412504132E+03  0.31412504132E+03  0.00000000000E+00 0. -1.
         -4   -1    0    0    0  501 -0.00000000000E+00 -0.00000000000E+00 -0.12123368537E+04  0.12123368537E+04  0.00000000000E+00 0. -1.
   -9000010    2    1    2    0  502  0.80001896820E+02 -0.20810736333E+03 -0.61391854815E+03  0.11651702546E+04  0.96489209778E+03 0.  0.
         13    1    3    3    0    0  0.58908653784E+02 -0.58881252955E+03 -0.26519041817E+03  0.64845693264E+03  0.10566000000E+00 0. -1.
         -4    1    3    3    0  502  0.21093243036E+02  0.38070516621E+03 -0.34872812998E+03  0.51671332199E+03  0.00000000000E+00 0. -1.
        -13    1    1    2    0    0 -0.80001896820E+02  0.20810736333E+03 -0.28429326423E+03  0.36129164040E+03  0.10566000000E+00 0.  1.
<mgrwt>
<rscale>  1 0.68215758E+03</rscale>
<asrwt>0</asrwt>
<pdfrwt beam="1">  1       21 0.48326929E-01 0.99031598E+03</pdfrwt>
<pdfrwt beam="2">  1       -4 0.18651336E+00 0.99031598E+03</pdfrwt>
<totfact> 0.26250628E+01</totfact>
</mgrwt>
</event>
<event>
 6    2  0.2345636E-005  0.1027285E+04  0.7818608E-02  0.9760863E-01
         -4   -1    0    0    0  501 -0.00000000000E+00  0.00000000000E+00  0.31856208334E+03  0.31856208334E+03  0.00000000000E+00 0. -1.
         21   -1    0    0  501  502  0.00000000000E+00 -0.00000000000E+00 -0.11762684063E+04  0.11762684063E+04  0.00000000000E+00 0. -1.
   -9000010    2    1    2    0  502  0.77013564569E+02 -0.17539109878E+03 -0.77172911990E+03  0.12848656896E+04  0.10092674963E+04 0.  0.
         13    1    3    3    0    0  0.96828900216E+02  0.17371698750E+03 -0.89291178003E+03  0.91479226371E+03  0.10566000000E+00 0. -1.
         -4    1    3    3    0  502 -0.19815335647E+02 -0.34910808628E+03  0.12118266013E+03  0.37007342589E+03  0.00000000000E+00 0. -1.
        -13    1    1    2    0    0 -0.77013564569E+02  0.17539109878E+03 -0.85977203099E+02  0.20996480009E+03  0.10566000000E+00 0.  1.
<mgrwt>
<rscale>  1 0.67505824E+03</rscale>
<asrwt>0</asrwt>
<pdfrwt beam="2">  1       21 0.18096437E+00 0.10272848E+04</pdfrwt>
<pdfrwt beam="1">  1       -4 0.49009550E-01 0.10272848E+04</pdfrwt>
<totfact> 0.25246409E+01</totfact>
</mgrwt>
</event>
<event>
 6    2  0.2345636E-005  0.1037588E+04  0.7818608E-02  0.9645583E-01
         21   -1    0    0  501  502  0.00000000000E+00  0.00000000000E+00  0.52965195627E+03  0.52965195627E+03  0.00000000000E+00 0. -1.
         -4   -1    0    0    0  501 -0.00000000000E+00 -0.00000000000E+00 -0.82168565597E+03  0.82168565597E+03  0.00000000000E+00 0. -1.
   -9000010    2    1    2    0  502 -0.18085605623E+03 -0.20526917061E+03 -0.16857199469E+03  0.10511923986E+04  0.10008719179E+04 0.  0.
         13    1    3    3    0    0  0.11386176118E+03 -0.40017382738E+03  0.26392915154E+03  0.49270904292E+03  0.10566000000E+00 0. -1.
         -4    1    3    3    0  502 -0.29471781741E+03  0.19490465676E+03 -0.43250114623E+03  0.55848335572E+03  0.00000000000E+00 0. -1.
        -13    1    1    2    0    0  0.18085605623E+03  0.20526917061E+03 -0.12346170500E+03  0.30014521360E+03  0.10566000000E+00 0.  1.
<mgrwt>
<rscale>  1 0.74351306E+03</rscale>
<asrwt>0</asrwt>
<pdfrwt beam="1">  1       21 0.81484916E-01 0.10375880E+04</pdfrwt>
<pdfrwt beam="2">  1       -4 0.12641318E+00 0.10375880E+04</pdfrwt>
<totfact> 0.23253224E+01</totfact>
</mgrwt>
</event>
<event>
 6    2  0.2345636E-005  0.1029469E+04  0.7818608E-02  0.9623831E-01
         -4   -1    0    0    0  501 -0.00000000000E+00  0.00000000000E+00  0.48299137619E+03  0.48299137619E+03  0.00000000000E+00 0. -1.
         21   -1    0    0  501  502  0.00000000000E+00 -0.00000000000E+00 -0.10112584261E+04  0.10112584261E+04  0.00000000000E+00 0. -1.
   -9000010    2    1    2    0  502 -0.29530467783E+03  0.61308546926E+02 -0.58977497677E+03  0.11864400771E+04  0.98429769011E+03 0.  0.
         13    1    3    3    0    0 -0.37003298078E+03  0.67919925108E+02  0.17716303379E+03  0.41584164630E+03  0.10566000000E+00 0. -1.
         -4    1    3    3    0  502  0.74728302953E+02 -0.66113781821E+01 -0.76693801055E+03  0.77059843084E+03  0.00000000000E+00 0. -1.
        -13    1    1    2    0    0  0.29530467783E+03 -0.61308546926E+02  0.61507926855E+02  0.30780972516E+03  0.10566000000E+00 0.  1.
<mgrwt>
<rscale>  1 0.75738775E+03</rscale>
<asrwt>0</asrwt>
<pdfrwt beam="2">  1       21 0.15557822E+00 0.10294686E+04</pdfrwt>
<pdfrwt beam="1">  1       -4 0.74306366E-01 0.10294686E+04</pdfrwt>
<totfact> 0.15824165E+01</totfact>
</mgrwt>
</event>
<event>
 6    2  0.2345636E-005  0.1108274E+04  0.7818608E-02  0.9434966E-01
         21   -1    0    0  501  502  0.00000000000E+00  0.00000000000E+00  0.91192283904E+03  0.91192283904E+03  0.00000000000E+00 0. -1.
         -4   -1    0    0    0  501 -0.00000000000E+00 -0.00000000000E+00 -0.67984124694E+03  0.67984124694E+03  0.00000000000E+00 0. -1.
   -9000010    2    1    2    0  502 -0.30151942346E+03  0.35553829669E+03  0.14910252505E+03  0.11182590914E+04  0.10054602873E+04 0.  0.
         13    1    3    3    0    0 -0.48218893643E+03  0.62157571960E+03  0.10802985185E+03  0.79406108434E+03  0.10566000000E+00 0. -1.
         -4    1    3    3    0  502  0.18066951297E+03 -0.26603742291E+03  0.41072673205E+02  0.32419800707E+03  0.00000000000E+00 0. -1.
        -13    1    1    2    0    0  0.30151942346E+03 -0.35553829669E+03  0.82979067048E+02  0.47350499456E+03  0.10566000000E+00 0.  1.
<mgrwt>
<rscale>  1 0.89253101E+03</rscale>
<asrwt>0</asrwt>
<pdfrwt beam="1">  1       21 0.14029582E+00 0.11082743E+04</pdfrwt>
<pdfrwt beam="2">  1       -4 0.10459096E+00 0.11082743E+04</pdfrwt>
<totfact> 0.93684415E+00</totfact>
</mgrwt>
</event>
<event>
 6    2  0.2345636E-005  0.1030484E+04  0.7818608E-02  0.9663533E-01
         -4   -1    0    0    0  501 -0.00000000000E+00  0.00000000000E+00  0.30222644448E+04  0.30222644448E+04  0.00000000000E+00 0. -1.
         21   -1    0    0  501  502  0.00000000000E+00 -0.00000000000E+00 -0.17754829847E+03  0.17754829847E+03  0.00000000000E+00 0. -1.
   -9000010    2    1    2    0  502  0.92038565155E+01 -0.26264495959E+03  0.14400568739E+04  0.17707799345E+04  0.99640889727E+03 0.  0.
         13    1    3    3    0    0 -0.26558882923E+03  0.58213689639E+02  0.19409523343E+01  0.27190078766E+03  0.10566000000E+00 0. -1.
         -4    1    3    3    0  502  0.27479268574E+03 -0.32085864923E+03  0.14381159216E+04  0.14988791469E+04  0.00000000000E+00 0. -1.
        -13    1    1    2    0    0 -0.92038565155E+01  0.26264495959E+03  0.14046592724E+04  0.14290328088E+04  0.10566000000E+00 0.  1.
<mgrwt>
<rscale>  1 0.73230149E+03</rscale>
<asrwt>0</asrwt>
<pdfrwt beam="2">  1       21 0.27315125E-01 0.10304842E+04</pdfrwt>
<pdfrwt beam="1">  1       -4 0.46496372E+00 0.10304842E+04</pdfrwt>
<totfact> 0.12311942E+00</totfact>
</mgrwt>
</event>
<event>
 6    2  0.2345636E-005  0.1006685E+04  0.7818608E-02  0.9922006E-01
         21   -1    0    0  501  502  0.00000000000E+00  0.00000000000E+00  0.52771674439E+03  0.52771674439E+03  0.00000000000E+00 0. -1.
         -4   -1    0    0    0  501 -0.00000000000E+00 -0.00000000000E+00 -0.79113223114E+03  0.79113223114E+03  0.00000000000E+00 0. -1.
   -9000010    2    1    2    0  502 -0.11869875106E+03  0.20450260160E+02  0.24258171815E+02  0.10069776052E+04  0.99945376671E+03 0.  0.
         13    1    3    3    0    0 -0.45552792169E+03  0.18933337762E+03  0.26486139663E+03  0.55991462377E+03  0.10566000000E+00 0. -1.
         -4    1    3    3    0  502  0.33682917063E+03 -0.16888311746E+03 -0.24060322481E+03  0.44706298140E+03  0.00000000000E+00 0. -1.
        -13    1    1    2    0    0  0.11869875106E+03 -0.20450260160E+02 -0.28767365857E+03  0.31187137035E+03  0.10566000000E+00 0.  1.
<mgrwt>
<rscale>  1 0.59206560E+03</rscale>
<asrwt>0</asrwt>
<pdfrwt beam="1">  1       21 0.81187192E-01 0.10066854E+04</pdfrwt>
<pdfrwt beam="2">  1       -4 0.12171265E+00 0.10066854E+04</pdfrwt>
<totfact> 0.25901598E+01</totfact>
</mgrwt>
</event>
<event>
 6    2  0.2345636E-005  0.1486564E+04  0.7818608E-02  0.8976872E-01
         -4   -1    0    0    0  501 -0.00000000000E+00  0.00000000000E+00  0.83392046211E+03  0.83392046211E+03  0.00000000000E+00 0. -1.
         21   -1    0    0  501  502  0.00000000000E+00 -0.00000000000E+00 -0.20024124911E+04  0.20024124911E+04  0.00000000000E+00 0.  1.
   -9000010    2    1    2    0  502 -0.10332820986E+04  0.26985392519E+03 -0.89022755034E+03  0.17327369368E+04  0.10341079075E+04 0.  0.
         13    1    3    3    0    0  0.17583780978E+03  0.13442533058E+03 -0.31992742669E+03  0.38902785808E+03  0.10566000000E+00 0. -1.
         -4    1    3    3    0  502 -0.12091199084E+04  0.13542859461E+03 -0.57030012366E+03  0.13437090787E+04  0.00000000000E+00 0. -1.
        -13    1    1    2    0    0  0.10332820986E+04 -0.26985392519E+03 -0.27826447869E+03  0.11035960165E+04  0.10566000000E+00 0.  1.
<mgrwt>
<rscale>  1 0.13685928E+04</rscale>
<asrwt>0</asrwt>
<pdfrwt beam="2">  1       21 0.30806346E+00 0.14865639E+04</pdfrwt>
<pdfrwt beam="1">  1       -4 0.12829546E+00 0.14865639E+04</pdfrwt>
<totfact> 0.37652409E-01</totfact>
</mgrwt>
</event>
<event>
 6    2  0.2345636E-005  0.1016884E+04  0.7818608E-02  0.9790939E-01
         -4   -1    0    0    0  501 -0.00000000000E+00  0.00000000000E+00  0.61011682462E+03  0.61011682462E+03  0.00000000000E+00 0. -1.
         21   -1    0    0  501  502  0.00000000000E+00 -0.00000000000E+00 -0.58707080650E+03  0.58707080650E+03  0.00000000000E+00 0. -1.
   -9000010    2    1    2    0  502 -0.44546041571E+02 -0.17319186056E+03  0.31508269781E-01  0.10168838619E+04  0.10010359720E+04 0.  0.
         13    1    3    3    0    0  0.45803809011E+03 -0.17733797141E+03 -0.10776460850E+03  0.50285273202E+03  0.10566000000E+00 0. -1.
         -4    1    3    3    0  502 -0.50258413168E+03  0.41461108508E+01  0.10779611677E+03  0.51403112984E+03  0.00000000000E+00 0. -1.
        -13    1    1    2    0    0  0.44546041571E+02  0.17319186056E+03  0.23014509850E+02  0.18030376927E+03  0.10566000000E+00 0.  1.
<mgrwt>
<rscale>  1 0.65851088E+03</rscale>
<asrwt>0</asrwt>
<pdfrwt beam="2">  1       21 0.90318586E-01 0.10168839E+04</pdfrwt>
<pdfrwt beam="1">  1       -4 0.93864126E-01 0.10168839E+04</pdfrwt>
<totfact> 0.37894327E+01</totfact>
</mgrwt>
</event>
<event>
 6    2  0.2345636E-005  0.1032788E+04  0.7818608E-02  0.9674328E-01
         21   -1    0    0  501  502  0.00000000000E+00  0.00000000000E+00  0.11125219786E+04  0.11125219786E+04  0.00000000000E+00 0. -1.
         -4   -1    0    0    0  501 -0.00000000000E+00 -0.00000000000E+00 -0.42249552922E+03  0.42249552922E+03  0.00000000000E+00 0. -1.
   -9000010    2    1    2    0  502 -0.12917107539E+03 -0.21603912413E+03  0.30838955064E+03  0.10778470762E+04  0.10016447149E+04 0.  0.
         13    1    3    3    0    0  0.13392899710E+03 -0.21960965199E+02 -0.33208831937E+03  0.35875050283E+03  0.10566000000E+00 0. -1.
         -4    1    3    3    0  502 -0.26310007249E+03 -0.19407815893E+03  0.64047787001E+03  0.71909657341E+03  0.00000000000E+00 0. -1.
        -13    1    1    2    0    0  0.12917107539E+03  0.21603912413E+03  0.38163689874E+03  0.45717043159E+03  0.10566000000E+00 0.  1.
<mgrwt>
<rscale>  1 0.72566063E+03</rscale>
<asrwt>0</asrwt>
<pdfrwt beam="1">  1       21 0.17115723E+00 0.10327876E+04</pdfrwt>
<pdfrwt beam="2">  1       -4 0.64999313E-01 0.10327876E+04</pdfrwt>
<totfact> 0.16203701E+01</totfact>
</mgrwt>
</event>
<event>
 6    2  0.2345636E-005  0.1015708E+04  0.7818608E-02  0.9845089E-01
         -4   -1    0    0    0  501 -0.00000000000E+00  0.00000000000E+00  0.13638121325E+04  0.13638121325E+04  0.00000000000E+00 0. -1.
         21   -1    0    0  501  502  0.00000000000E+00 -0.00000000000E+00 -0.46653283179E+03  0.46653283179E+03  0.00000000000E+00 0. -1.
   -9000010    2    1    2    0  502 -0.10151585808E+03 -0.11085453075E+03  0.10180910569E+03  0.10207975359E+04  0.10045239265E+04 0.  0.
         13    1    3    3    0    0  0.38615294769E+03 -0.16445088787E+03  0.27356624095E+03  0.50099570146E+03  0.10566000000E+00 0. -1.
         -4    1    3    3    0  502 -0.48766880577E+03  0.53596357121E+02 -0.17175713526E+03  0.51980183448E+03  0.00000000000E+00 0. -1.
        -13    1    1    2    0    0  0.10151585808E+03  0.11085453075E+03  0.79547019506E+03  0.80954742840E+03  0.10566000000E+00 0.  1.
<mgrwt>
<rscale>  1 0.62997927E+03</rscale>
<asrwt>0</asrwt>
<pdfrwt beam="2">  1       21 0.71774282E-01 0.10157079E+04</pdfrwt>
<pdfrwt beam="1">  1       -4 0.20981725E+00 0.10157079E+04</pdfrwt>
<totfact> 0.76032837E+00</totfact>
</mgrwt>
</event>
<event>
 6    2  0.2345636E-005  0.1012545E+04  0.7818608E-02  0.9912233E-01
         -4   -1    0    0    0  501 -0.00000000000E+00  0.00000000000E+00  0.85175717609E+03  0.85175717609E+03  0.00000000000E+00 0. -1.
         21   -1    0    0  501  502  0.00000000000E+00 -0.00000000000E+00 -0.38499704713E+03  0.38499704713E+03  0.00000000000E+00 0. -1.
   -9000010    2    1    2    0  502  0.46651556555E+02  0.11287451867E+03  0.36031608362E+03  0.10747438203E+04  0.10051515182E+04 0.  0.
         13    1    3    3    0    0 -0.45361542327E+03  0.21311015051E+03  0.20419121007E+03  0.54118106944E+03  0.10566000000E+00 0. -1.
         -4    1    3    3    0  502  0.50026697983E+03 -0.10023563184E+03  0.15612487355E+03  0.53356275089E+03  0.00000000000E+00 0. -1.
        -13    1    1    2    0    0 -0.46651556555E+02 -0.11287451867E+03  0.10644404533E+03  0.16201040289E+03  0.10566000000E+00 0.  1.
<mgrwt>
<rscale>  1 0.59672048E+03</rscale>
<asrwt>0</asrwt>
<pdfrwt beam="2">  1       21 0.59230315E-01 0.10125446E+04</pdfrwt>
<pdfrwt beam="1">  1       -4 0.13103957E+00 0.10125446E+04</pdfrwt>
<totfact> 0.44135206E+01</totfact>
</mgrwt>
</event>
<event>
 6    2  0.2345636E-005  0.1234288E+04  0.7818608E-02  0.9270798E-01
         21   -1    0    0  501  502  0.00000000000E+00  0.00000000000E+00  0.74586472994E+03  0.74586472994E+03  0.00000000000E+00 0.  1.
         -4   -1    0    0    0  501 -0.00000000000E+00 -0.00000000000E+00 -0.11973810578E+04  0.11973810578E+04  0.00000000000E+00 0. -1.
   -9000010    2    1    2    0  502  0.61000887983E+03 -0.27741900236E+02 -0.49771959121E+03  0.13308609420E+04  0.10726535364E+04 0.  0.
         13    1    3    3    0    0 -0.25045898637E+03  0.21972191508E+03 -0.78856409901E+02  0.34238248840E+03  0.10566000000E+00 0. -1.
         -4    1    3    3    0  502  0.86046786620E+03 -0.24746381532E+03 -0.41886318131E+03  0.98847845364E+03  0.00000000000E+00 0. -1.
        -13    1    1    2    0    0 -0.61000887983E+03  0.27741900236E+02  0.46203263385E+02  0.61238484567E+03  0.10566000000E+00 0.  1.
<mgrwt>
<rscale>  1 0.10351625E+04</rscale>
<asrwt>0</asrwt>
<pdfrwt beam="1">  1       21 0.11474842E+00 0.12342877E+04</pdfrwt>
<pdfrwt beam="2">  1       -4 0.18421247E+00 0.12342877E+04</pdfrwt>
<totfact> 0.35161951E+00</totfact>
</mgrwt>
</event>
<event>
 6    2  0.2345636E-005  0.1029991E+04  0.7818608E-02  0.9757956E-01
         21   -1    0    0  501  502  0.00000000000E+00  0.00000000000E+00  0.13602956889E+04  0.13602956889E+04  0.00000000000E+00 0. -1.
         -4   -1    0    0    0  501 -0.00000000000E+00 -0.00000000000E+00 -0.37230850645E+03  0.37230850645E+03  0.00000000000E+00 0. -1.
   -9000010    2    1    2    0  502  0.19179842180E+03  0.58457278593E+01  0.11028015639E+04  0.15089903306E+04  0.10119583596E+04 0.  0.
         13    1    3    3    0    0 -0.29608763400E+03 -0.25780933751E+03  0.76440318353E+03  0.85932867965E+03  0.10566000000E+00 0. -1.
         -4    1    3    3    0  502  0.48788605580E+03  0.26365506537E+03  0.33839838034E+03  0.64966165098E+03  0.00000000000E+00 0. -1.
        -13    1    1    2    0    0 -0.19179842180E+03 -0.58457278593E+01 -0.11481438143E+03  0.22361386470E+03  0.10566000000E+00 0.  1.
<mgrwt>
<rscale>  1 0.67668509E+03</rscale>
<asrwt>0</asrwt>
<pdfrwt beam="1">  1       21 0.20927626E+00 0.10299905E+04</pdfrwt>
<pdfrwt beam="2">  1       -4 0.57278233E-01 0.10299905E+04</pdfrwt>
<totfact> 0.11487492E+01</totfact>
</mgrwt>
</event>
<event>
 6    2  0.2345636E-005  0.1020233E+04  0.7818608E-02  0.9845263E-01
         21   -1    0    0  501  502  0.00000000000E+00  0.00000000000E+00  0.31637604815E+03  0.31637604815E+03  0.00000000000E+00 0. -1.
         -4   -1    0    0    0  501 -0.00000000000E+00 -0.00000000000E+00 -0.10939277480E+04  0.10939277480E+04  0.00000000000E+00 0. -1.
   -9000010    2    1    2    0  502 -0.49373289867E+02  0.13977440634E+03 -0.61938989461E+03  0.11935325475E+04  0.10094065059E+04 0.  0.
         13    1    3    3    0    0  0.37188295165E+03 -0.24122505928E+03 -0.19379350950E+03  0.48377928278E+03  0.10566000000E+00 0. -1.
         -4    1    3    3    0  502 -0.42125624152E+03  0.38099946562E+03 -0.42559638512E+03  0.70975326477E+03  0.00000000000E+00 0. -1.
        -13    1    1    2    0    0  0.49373289867E+02 -0.13977440634E+03 -0.15816180522E+03  0.21677124859E+03  0.10566000000E+00 0.  1.
<mgrwt>
<rscale>  1 0.62989013E+03</rscale>
<asrwt>0</asrwt>
<pdfrwt beam="1">  1       21 0.48673237E-01 0.10202334E+04</pdfrwt>
<pdfrwt beam="2">  1       -4 0.16829658E+00 0.10202334E+04</pdfrwt>
<totfact> 0.34628230E+01</totfact>
</mgrwt>
</event>
<event>
 6    2  0.2345636E-005  0.1020458E+04  0.7818608E-02  0.9726045E-01
         -4   -1    0    0    0  501 -0.00000000000E+00  0.00000000000E+00  0.58196020463E+03  0.58196020463E+03  0.00000000000E+00 0. -1.
         21   -1    0    0  501  502  0.00000000000E+00 -0.00000000000E+00 -0.74614592381E+03  0.74614592381E+03  0.00000000000E+00 0. -1.
   -9000010    2    1    2    0  502  0.12618160607E+03 -0.17947991213E+03 -0.30781948121E+03  0.10658743506E+04  0.99659443186E+03 0.  0.
         13    1    3    3    0    0  0.92643763150E+02 -0.41404236979E+03 -0.57123839972E+03  0.71156677221E+03  0.10566000000E+00 0. -1.
         -4    1    3    3    0  502  0.33537842916E+02  0.23456245766E+03  0.26341891851E+03  0.35430757836E+03  0.00000000000E+00 0. -1.
        -13    1    1    2    0    0 -0.12618160607E+03  0.17947991213E+03  0.14363376203E+03  0.26223177787E+03  0.10566000000E+00 0.  1.
<mgrwt>
<rscale>  1 0.69487058E+03</rscale>
<asrwt>0</asrwt>
<pdfrwt beam="2">  1       21 0.11479168E+00 0.10204584E+04</pdfrwt>
<pdfrwt beam="1">  1       -4 0.89532339E-01 0.10204584E+04</pdfrwt>
<totfact> 0.23316078E+01</totfact>
</mgrwt>
</event>
<event>
 6    2  0.2345636E-005  0.1004302E+04  0.7818608E-02  0.1036362E+00
         21   -1    0    0  501  502  0.00000000000E+00  0.00000000000E+00  0.70768534098E+03  0.70768534098E+03  0.00000000000E+00 0. -1.
         -4   -1    0    0    0  501 -0.00000000000E+00 -0.00000000000E+00 -0.38898475267E+03  0.38898475267E+03  0.00000000000E+00 0. -1.
   -9000010    2    1    2    0  502 -0.31273740233E+02  0.23089456517E+01  0.33822924280E+03  0.10597274683E+04  0.10038126859E+04 0.  0.
         13    1    3    3    0    0 -0.38203295536E+03 -0.19297659882E+03  0.47144018931E+03  0.63674563990E+03  0.10566000000E+00 0. -1.
         -4    1    3    3    0  502  0.35075921512E+03  0.19528554447E+03 -0.13321094651E+03  0.42298182838E+03  0.00000000000E+00 0. -1.
        -13    1    1    2    0    0  0.31273740233E+02 -0.23089456517E+01 -0.19528654489E+02  0.36942625358E+02  0.10566000000E+00 0.  1.
<mgrwt>
<rscale>  1 0.42217164E+03</rscale>
<asrwt>0</asrwt>
<pdfrwt beam="1">  1       21 0.10887467E+00 0.10043024E+04</pdfrwt>
<pdfrwt beam="2">  1       -4 0.59843808E-01 0.10043024E+04</pdfrwt>
<totfact> 0.66403206E+01</totfact>
</mgrwt>
</event>
<event>
 6    2  0.2345636E-005  0.9936424E+03  0.7818608E-02  0.9914320E-01
         21   -1    0    0  501  502  0.00000000000E+00  0.00000000000E+00  0.18257013318E+03  0.18257013318E+03  0.00000000000E+00 0. -1.
         -4   -1    0    0    0  501 -0.00000000000E+00 -0.00000000000E+00 -0.18796798019E+04  0.18796798019E+04  0.00000000000E+00 0. -1.
   -9000010    2    1    2    0  502 -0.65501383636E+02  0.11040885797E+03 -0.12485562988E+04  0.15956873091E+04  0.98531447254E+03 0.  0.
         13    1    3    3    0    0  0.92728870908E+02 -0.41835893985E+03 -0.41917700443E+03  0.59944325692E+03  0.10566000000E+00 0. -1.
         -4    1    3    3    0  502 -0.15823025454E+03  0.52876779783E+03 -0.82937929441E+03  0.99624405216E+03  0.00000000000E+00 0. -1.
        -13    1    1    2    0    0  0.65501383636E+02 -0.11040885797E+03 -0.44855336984E+03  0.46656262596E+03  0.10566000000E+00 0.  1.
<mgrwt>
<rscale>  1 0.59572259E+03</rscale>
<asrwt>0</asrwt>
<pdfrwt beam="1">  1       21 0.28087712E-01 0.99364237E+03</pdfrwt>
<pdfrwt beam="2">  1       -4 0.28918152E+00 0.99364237E+03</pdfrwt>
<totfact> 0.18093365E+01</totfact>
</mgrwt>
</event>
<event>
 6    2  0.2345636E-005  0.9875082E+03  0.7818608E-02  0.1035192E+00
         21   -1    0    0  501  502  0.00000000000E+00  0.00000000000E+00  0.11781371390E+04  0.11781371390E+04  0.00000000000E+00 0. -1.
         -4   -1    0    0    0  501 -0.00000000000E+00 -0.00000000000E+00 -0.25770362036E+03  0.25770362036E+03  0.00000000000E+00 0. -1.
   -9000010    2    1    2    0  502 -0.34128893069E+02 -0.77229995606E+00  0.96431459632E+03  0.13802445551E+04  0.98691793652E+03 0.  0.
         13    1    3    3    0    0  0.30517874709E+03  0.76204442787E+02 -0.40268234451E+02  0.31711626676E+03  0.10566000000E+00 0. -1.
         -4    1    3    3    0  502 -0.33930764016E+03 -0.76976742743E+02  0.10045828308E+04  0.10631282883E+04  0.00000000000E+00 0. -1.
        -13    1    1    2    0    0  0.34128893069E+02  0.77229995606E+00 -0.43881077657E+02  0.55596204275E+02  0.10566000000E+00 0.  1.
<mgrwt>
<rscale>  1 0.42580856E+03</rscale>
<asrwt>0</asrwt>
<pdfrwt beam="1">  1       21 0.18125186E+00 0.98750817E+03</pdfrwt>
<pdfrwt beam="2">  1       -4 0.39646711E-01 0.98750817E+03</pdfrwt>
<totfact> 0.39139556E+01</totfact>
</mgrwt>
</event>
<event>
 6    2  0.2345636E-005  0.1010146E+04  0.7818608E-02  0.9775400E-01
         21   -1    0    0  501  502  0.00000000000E+00  0.00000000000E+00  0.67946895482E+03  0.67946895482E+03  0.00000000000E+00 0. -1.
         -4   -1    0    0    0  501 -0.00000000000E+00 -0.00000000000E+00 -0.56815289313E+03  0.56815289313E+03  0.00000000000E+00 0. -1.
   -9000010    2    1    2    0  502  0.15415207622E+03 -0.11448983690E+03  0.20997963740E+03  0.10317392463E+04  0.99172760318E+03 0.  0.
         13    1    3    3    0    0  0.16162110216E+02 -0.16118443073E+02  0.60316079731E+03  0.60359255843E+03  0.10566000000E+00 0. -1.
         -4    1    3    3    0  502  0.13798996600E+03 -0.98371393832E+02 -0.39318115991E+03  0.42814668789E+03  0.00000000000E+00 0. -1.
        -13    1    1    2    0    0 -0.15415207622E+03  0.11448983690E+03 -0.98663575703E+02  0.21588260164E+03  0.10566000000E+00 0.  1.
<mgrwt>
<rscale>  1 0.66699618E+03</rscale>
<asrwt>0</asrwt>
<pdfrwt beam="1">  1       21 0.10453369E+00 0.10101457E+04</pdfrwt>
<pdfrwt beam="2">  1       -4 0.87408137E-01 0.10101457E+04</pdfrwt>
<totfact> 0.31296092E+01</totfact>
</mgrwt>
</event>
<event>
 6    2  0.2345636E-005  0.9702616E+03  0.7818608E-02  0.1010377E+00
         -4   -1    0    0    0  501 -0.00000000000E+00  0.00000000000E+00  0.47601395491E+03  0.47601395491E+03  0.00000000000E+00 0. -1.
         21   -1    0    0  501  502  0.00000000000E+00 -0.00000000000E+00 -0.57528238275E+03  0.57528238275E+03  0.00000000000E+00 0. -1.
   -9000010    2    1    2    0  502  0.31754166770E+02  0.69018235772E+02 -0.84820952257E+02  0.97396209756E+03  0.96728265236E+03 0.  0.
         13    1    3    3    0    0  0.31572199885E+02  0.50826170328E+03 -0.14772959616E+03  0.53023655813E+03  0.10566000000E+00 0. -1.
         -4    1    3    3    0  502  0.18196688466E+00 -0.43924346751E+03  0.62908643907E+02  0.44372553943E+03  0.00000000000E+00 0. -1.
        -13    1    1    2    0    0 -0.31754166770E+02 -0.69018235772E+02 -0.14447475587E+02  0.77334240096E+02  0.10566000000E+00 0.  1.
<mgrwt>
<rscale>  1 0.51325255E+03</rscale>
<asrwt>0</asrwt>
<pdfrwt beam="2">  1       21 0.88504981E-01 0.97026160E+03</pdfrwt>
<pdfrwt beam="1">  1       -4 0.73232917E-01 0.97026160E+03</pdfrwt>
<totfact> 0.70944642E+01</totfact>
</mgrwt>
</event>
<event>
 6    2  0.2345636E-005  0.9789887E+03  0.7818608E-02  0.1000114E+00
         21   -1    0    0  501  502  0.00000000000E+00  0.00000000000E+00  0.33562507893E+03  0.33562507893E+03  0.00000000000E+00 0. -1.
         -4   -1    0    0    0  501 -0.00000000000E+00 -0.00000000000E+00 -0.10934403047E+04  0.10934403047E+04  0.00000000000E+00 0. -1.
   -9000010    2    1    2    0  502 -0.10098385663E+03 -0.13282396289E+02 -0.40088710665E+03  0.10578890714E+04  0.97367584639E+03 0.  0.
         13    1    3    3    0    0  0.26279966056E+03  0.24297921809E+03  0.11562909883E+03  0.37612851750E+03  0.10566000000E+00 0. -1.
         -4    1    3    3    0  502 -0.36378351719E+03 -0.25626161438E+03 -0.51651620548E+03  0.68176055394E+03  0.00000000000E+00 0. -1.
        -13    1    1    2    0    0  0.10098385663E+03  0.13282396289E+02 -0.35692811910E+03  0.37117631217E+03  0.10566000000E+00 0.  1.
<mgrwt>
<rscale>  1 0.55600338E+03</rscale>
<asrwt>0</asrwt>
<pdfrwt beam="1">  1       21 0.51634629E-01 0.97898867E+03</pdfrwt>
<pdfrwt beam="2">  1       -4 0.16822158E+00 0.97898867E+03</pdfrwt>
<totfact> 0.30626371E+01</totfact>
</mgrwt>
</event>
<event>
 6    2  0.2345636E-005  0.1046375E+04  0.7818608E-02  0.9591436E-01
         -4   -1    0    0    0  501 -0.00000000000E+00  0.00000000000E+00  0.70179922963E+03  0.70179922963E+03  0.00000000000E+00 0. -1.
         21   -1    0    0  501  502  0.00000000000E+00 -0.00000000000E+00 -0.71913743200E+03  0.71913743200E+03  0.00000000000E+00 0. -1.
   -9000010    2    1    2    0  502  0.26240951962E+03  0.18464770151E+03 -0.17911838042E+03  0.10615950876E+04  0.99596546432E+03 0.  0.
         13    1    3    3    0    0  0.41605415892E+03  0.12256045769E+03 -0.52325030954E+03  0.67964183696E+03  0.10566000000E+00 0. -1.
         -4    1    3    3    0  502 -0.15364463930E+03  0.62087243817E+02  0.34413192911E+03  0.38195325063E+03  0.00000000000E+00 0. -1.
        -13    1    1    2    0    0 -0.26240951962E+03 -0.18464770151E+03  0.16178017805E+03  0.35934157404E+03  0.10566000000E+00 0.  1.
<mgrwt>
<rscale>  1 0.77865610E+03</rscale>
<asrwt>0</asrwt>
<pdfrwt beam="2">  1       21 0.11063653E+00 0.10463750E+04</pdfrwt>
<pdfrwt beam="1">  1       -4 0.10796911E+00 0.10463750E+04</pdfrwt>
<totfact> 0.16287650E+01</totfact>
</mgrwt>
</event>
<event>
 6    2  0.2345636E-005  0.1039005E+04  0.7818608E-02  0.9620991E-01
         21   -1    0    0  501  502  0.00000000000E+00  0.00000000000E+00  0.94539080195E+03  0.94539080195E+03  0.00000000000E+00 0. -1.
         -4   -1    0    0    0  501 -0.00000000000E+00 -0.00000000000E+00 -0.55017892730E+03  0.55017892730E+03  0.00000000000E+00 0. -1.
   -9000010    2    1    2    0  502 -0.28300491115E+03  0.87514524909E+02  0.53427584535E+03  0.11683246056E+04  0.99588208812E+03 0.  0.
         13    1    3    3    0    0 -0.55593383553E+03  0.99060432014E+01  0.65567931271E+03  0.85969525500E+03  0.10566000000E+00 0. -1.
         -4    1    3    3    0  502  0.27292892438E+03  0.77608481708E+02 -0.12140346736E+03  0.30862935065E+03  0.00000000000E+00 0. -1.
        -13    1    1    2    0    0  0.28300491115E+03 -0.87514524909E+02 -0.13906397070E+03  0.32724512360E+03  0.10566000000E+00 0.  1.
<mgrwt>
<rscale>  1 0.75922330E+03</rscale>
<asrwt>0</asrwt>
<pdfrwt beam="1">  1       21 0.14544474E+00 0.10390052E+04</pdfrwt>
<pdfrwt beam="2">  1       -4 0.84642912E-01 0.10390052E+04</pdfrwt>
<totfact> 0.14147787E+01</totfact>
</mgrwt>
</event>
<event>
 6    2  0.2345636E-005  0.1025598E+04  0.7818608E-02  0.9768975E-01
         -4   -1    0    0    0  501 -0.00000000000E+00  0.00000000000E+00  0.24087916445E+03  0.24087916445E+03  0.00000000000E+00 0. -1.
         21   -1    0    0  501  502  0.00000000000E+00 -0.00000000000E+00 -0.15624950239E+04  0.15624950239E+04  0.00000000000E+00 0. -1.
   -9000010    2    1    2    0  502  0.20698381995E+02  0.18625707187E+03 -0.12062130446E+04  0.15832879764E+04  0.10083306935E+04 0.  0.
         13    1    3    3    0    0  0.44260405879E+03  0.35854643071E+03 -0.65230030611E+03  0.86599630273E+03  0.10566000000E+00 0. -1.
         -4    1    3    3    0  502 -0.42190567679E+03 -0.17228935884E+03 -0.55391273849E+03  0.71729167368E+03  0.00000000000E+00 0. -1.
        -13    1    1    2    0    0 -0.20698381995E+02 -0.18625707187E+03 -0.11540281484E+03  0.22008621192E+03  0.10566000000E+00 0.  1.
<mgrwt>
<rscale>  1 0.67054408E+03</rscale>
<asrwt>0</asrwt>
<pdfrwt beam="2">  1       21 0.24038384E+00 0.10255978E+04</pdfrwt>
<pdfrwt beam="1">  1       -4 0.37058334E-01 0.10255978E+04</pdfrwt>
<totfact> 0.17803322E+01</totfact>
</mgrwt>
</event>
<event>
 6    2  0.2345636E-005  0.1062448E+04  0.7818608E-02  0.9505131E-01
         -4   -1    0    0    0  501 -0.00000000000E+00  0.00000000000E+00  0.73770641792E+03  0.73770641792E+03  0.00000000000E+00 0. -1.
         21   -1    0    0  501  502  0.00000000000E+00 -0.00000000000E+00 -0.10833479019E+04  0.10833479019E+04  0.00000000000E+00 0.  1.
   -9000010    2    1    2    0  502  0.35278605343E+03 -0.21530338371E+03 -0.70359154199E+03  0.12742986141E+04  0.97876572959E+03 0.  0.
         13    1    3    3    0    0  0.22374389231E+03  0.29390113945E+03  0.31597357578E+02  0.37072579258E+03  0.10566000000E+00 0. -1.
         -4    1    3    3    0  502  0.12904216112E+03 -0.50920452316E+03 -0.73518889957E+03  0.90357282152E+03  0.00000000000E+00 0. -1.
        -13    1    1    2    0    0 -0.35278605343E+03  0.21530338371E+03  0.35795005802E+03  0.54675570571E+03  0.10566000000E+00 0.  1.
<mgrwt>
<rscale>  1 0.83906591E+03</rscale>
<asrwt>0</asrwt>
<pdfrwt beam="2">  1       21 0.16666891E+00 0.10624481E+04</pdfrwt>
<pdfrwt beam="1">  1       -4 0.11349330E+00 0.10624481E+04</pdfrwt>
<totfact> 0.47412022E+00</totfact>
</mgrwt>
</event>
<event>
 6    2  0.2345636E-005  0.1015474E+04  0.7818608E-02  0.9911567E-01
         -4   -1    0    0    0  501 -0.00000000000E+00  0.00000000000E+00  0.25256862362E+03  0.25256862362E+03  0.00000000000E+00 0. -1.
         21   -1    0    0  501  502  0.00000000000E+00 -0.00000000000E+00 -0.18762775233E+04  0.18762775233E+04  0.00000000000E+00 0. -1.
   -9000010    2    1    2    0  502 -0.64845541818E+02 -0.10256026590E+03 -0.17037961447E+04  0.19834586289E+04  0.10081980348E+04 0.  0.
         13    1    3    3    0    0 -0.36722876278E+03  0.32225891969E+03 -0.72192070871E+03  0.87170941050E+03  0.10566000000E+00 0. -1.
         -4    1    3    3    0  502  0.30238322096E+03 -0.42481918558E+03 -0.98187543598E+03  0.11117492184E+04  0.00000000000E+00 0. -1.
        -13    1    1    2    0    0  0.64845541818E+02  0.10256026590E+03  0.80087244998E+02  0.14538751807E+03  0.10566000000E+00 0.  1.
<mgrwt>
<rscale>  1 0.59703958E+03</rscale>
<asrwt>0</asrwt>
<pdfrwt beam="2">  1       21 0.28865807E+00 0.10154737E+04</pdfrwt>
<pdfrwt beam="1">  1       -4 0.38856712E-01 0.10154737E+04</pdfrwt>
<totfact> 0.80428147E+00</totfact>
</mgrwt>
</event>
<event>
 6    2  0.2345636E-005  0.9552658E+03  0.7818608E-02  0.9891164E-01
         -4   -1    0    0    0  501 -0.00000000000E+00  0.00000000000E+00  0.38116194482E+03  0.38116194482E+03  0.00000000000E+00 0. -1.
         21   -1    0    0  501  502  0.00000000000E+00 -0.00000000000E+00 -0.85729530143E+03  0.85729530143E+03  0.00000000000E+00 0. -1.
   -9000010    2    1    2    0  502 -0.11482835236E+03  0.10507149283E+03 -0.50441553441E+03  0.10802628663E+04  0.94250053570E+03 0.  0.
         13    1    3    3    0    0 -0.45381034745E+03 -0.14256078510E+03 -0.78267705312E+02  0.48207183465E+03  0.10566000000E+00 0. -1.
         -4    1    3    3    0  502  0.33898199509E+03  0.24763227794E+03 -0.42614782909E+03  0.59819103162E+03  0.00000000000E+00 0. -1.
        -13    1    1    2    0    0  0.11482835236E+03 -0.10507149283E+03  0.28282177794E+02  0.15819437998E+03  0.10566000000E+00 0.  1.
<mgrwt>
<rscale>  1 0.60691443E+03</rscale>
<asrwt>0</asrwt>
<pdfrwt beam="2">  1       21 0.13189158E+00 0.95526584E+03</pdfrwt>
<pdfrwt beam="1">  1       -4 0.58640299E-01 0.95526584E+03</pdfrwt>
<totfact> 0.42391532E+01</totfact>
</mgrwt>
</event>
<event>
 6    2  0.2345636E-005  0.1103990E+04  0.7818608E-02  0.9581840E-01
         21   -1    0    0  501  502  0.00000000000E+00  0.00000000000E+00  0.19119630286E+04  0.19119630286E+04  0.00000000000E+00 0. -1.
         -4   -1    0    0    0  501 -0.00000000000E+00 -0.00000000000E+00 -0.25137017327E+03  0.25137017327E+03  0.00000000000E+00 0. -1.
   -9000010    2    1    2    0  502 -0.14186536613E+03 -0.24413253382E+03  0.13085104694E+04  0.17120145851E+04  0.10672712003E+04 0.  0.
         13    1    3    3    0    0 -0.25423242140E+03 -0.91639544598E+02  0.14503886386E+04  0.14753505157E+04  0.10566000000E+00 0. -1.
         -4    1    3    3    0  502  0.11236705527E+03 -0.15249298923E+03 -0.14187816913E+03  0.23666406941E+03  0.00000000000E+00 0. -1.
        -13    1    1    2    0    0  0.14186536613E+03  0.24413253382E+03  0.35208238589E+03  0.45131861672E+03  0.10566000000E+00 0.  1.
<mgrwt>
<rscale>  1 0.78509875E+03</rscale>
<asrwt>0</asrwt>
<pdfrwt beam="1">  1       21 0.29414815E+00 0.11039902E+04</pdfrwt>
<pdfrwt beam="2">  1       -4 0.38672336E-01 0.11039902E+04</pdfrwt>
<totfact> 0.74006528E+00</totfact>
</mgrwt>
</event>
<event>
 6    2  0.2345636E-005  0.1072154E+04  0.7818608E-02  0.9474603E-01
         21   -1    0    0  501  502  0.00000000000E+00  0.00000000000E+00  0.89529312982E+03  0.89529312982E+03  0.00000000000E+00 0. -1.
         -4   -1    0    0    0  501 -0.00000000000E+00 -0.00000000000E+00 -0.84459658213E+03  0.84459658213E+03  0.00000000000E+00 0. -1.
   -9000010    2    1    2    0  502 -0.15879266772E+03 -0.41849992332E+03  0.42804446780E+03  0.11544422240E+04  0.97424713757E+03 0.  0.
         13    1    3    3    0    0  0.16661343948E+03 -0.36812512799E+03  0.64427943161E+03  0.76050782063E+03  0.10566000000E+00 0. -1.
         -4    1    3    3    0  502 -0.32540610720E+03 -0.50374795336E+02 -0.21623496382E+03  0.39393440340E+03  0.00000000000E+00 0. -1.
        -13    1    1    2    0    0  0.15879266772E+03  0.41849992332E+03 -0.37734792011E+03  0.58544748793E+03  0.10566000000E+00 0.  1.
<mgrwt>
<rscale>  1 0.86182405E+03</rscale>
<asrwt>0</asrwt>
<pdfrwt beam="1">  1       21 0.13773741E+00 0.10721543E+04</pdfrwt>
<pdfrwt beam="2">  1       -4 0.12993794E+00 0.10721543E+04</pdfrwt>
<totfact> 0.57465593E+00</totfact>
</mgrwt>
</event>
<event>
 6    2  0.2345636E-005  0.1022214E+04  0.7818608E-02  0.9683677E-01
         21   -1    0    0  501  502  0.00000000000E+00  0.00000000000E+00  0.74493600740E+03  0.74493600740E+03  0.00000000000E+00 0. -1.
         -4   -1    0    0    0  501 -0.00000000000E+00 -0.00000000000E+00 -0.90217368850E+03  0.90217368850E+03  0.00000000000E+00 0. -1.
   -9000010    2    1    2    0  502 -0.54469104721E+02  0.24558663773E+03  0.35036728106E+03  0.10805918332E+04  0.99077838002E+03 0.  0.
         13    1    3    3    0    0 -0.44908155373E+03 -0.13562255799E+03  0.21170062023E+03  0.51466968427E+03  0.10566000000E+00 0. -1.
         -4    1    3    3    0  502  0.39461244901E+03  0.38120919571E+03  0.13866666083E+03  0.56592214892E+03  0.00000000000E+00 0. -1.
        -13    1    1    2    0    0  0.54469104721E+02 -0.24558663773E+03 -0.50760496216E+03  0.56651786271E+03  0.10566000000E+00 0.  1.
<mgrwt>
<rscale>  1 0.71997002E+03</rscale>
<asrwt>0</asrwt>
<pdfrwt beam="1">  1       21 0.11460554E+00 0.10222140E+04</pdfrwt>
<pdfrwt beam="2">  1       -4 0.13879595E+00 0.10222140E+04</pdfrwt>
<totfact> 0.79061542E+00</totfact>
</mgrwt>
</event>
<event>
 6    2  0.2345636E-005  0.1056070E+04  0.7818608E-02  0.9576492E-01
         -4   -1    0    0    0  501 -0.00000000000E+00  0.00000000000E+00  0.88224737207E+03  0.88224737207E+03  0.00000000000E+00 0. -1.
         21   -1    0    0  501  502  0.00000000000E+00 -0.00000000000E+00 -0.74049036024E+03  0.74049036024E+03  0.00000000000E+00 0. -1.
   -9000010    2    1    2    0  502 -0.13352290460E+03 -0.30020187446E+03 -0.27572902610E+03  0.10914711942E+04  0.10036599725E+04 0.  0.
         13    1    3    3    0    0 -0.14560918742E+03 -0.90276244407E+02 -0.64454414585E+03  0.66692503542E+03  0.10566000000E+00 0. -1.
         -4    1    3    3    0  502  0.12086282819E+02 -0.20992563005E+03  0.36881511975E+03  0.42454615879E+03  0.00000000000E+00 0. -1.
        -13    1    1    2    0    0  0.13352290460E+03  0.30020187446E+03  0.41748603793E+03  0.53126653810E+03  0.10566000000E+00 0.  1.
<mgrwt>
<rscale>  1 0.78871843E+03</rscale>
<asrwt>0</asrwt>
<pdfrwt beam="2">  1       21 0.11392159E+00 0.10560695E+04</pdfrwt>
<pdfrwt beam="1">  1       -4 0.13573036E+00 0.10560695E+04</pdfrwt>
<totfact> 0.84776838E+00</totfact>
</mgrwt>
</event>
<event>
 6    2  0.2345636E-005  0.1026944E+04  0.7818608E-02  0.9688864E-01
         21   -1    0    0  501  502  0.00000000000E+00  0.00000000000E+00  0.29104762216E+03  0.29104762216E+03  0.00000000000E+00 0. -1.
         -4   -1    0    0    0  501 -0.00000000000E+00 -0.00000000000E+00 -0.16660699576E+04  0.16660699576E+04  0.00000000000E+00 0. -1.
   -9000010    2    1    2    0  502  0.17233376323E+03  0.17245781205E+03 -0.70911312779E+03  0.12479802821E+04  0.99758344698E+03 0.  0.
         13    1    3    3    0    0  0.42659372314E+03  0.13779119052E+03 -0.84578121359E+03  0.95724317142E+03  0.10566000000E+00 0. -1.
         -4    1    3    3    0  502 -0.25425995991E+03  0.34666621530E+02  0.13666808580E+03  0.29073711070E+03  0.00000000000E+00 0. -1.
        -13    1    1    2    0    0 -0.17233376323E+03 -0.17245781205E+03 -0.66590920764E+03  0.70913729762E+03  0.10566000000E+00 0.  1.
<mgrwt>
<rscale>  1 0.71683698E+03</rscale>
<asrwt>0</asrwt>
<pdfrwt beam="1">  1       21 0.44776558E-01 0.10269437E+04</pdfrwt>
<pdfrwt beam="2">  1       -4 0.25631845E+00 0.10269437E+04</pdfrwt>
<totfact> 0.10978663E+01</totfact>
</mgrwt>
</event>
<event>
 6    2  0.2345636E-005  0.1324963E+04  0.7818608E-02  0.9118779E-01
         21   -1    0    0  501  502  0.00000000000E+00  0.00000000000E+00  0.20580115887E+04  0.20580115887E+04  0.00000000000E+00 0.  1.
         -4   -1    0    0    0  501 -0.00000000000E+00 -0.00000000000E+00 -0.59032565945E+03  0.59032565945E+03  0.00000000000E+00 0. -1.
   -9000010    2    1    2    0  502 -0.82554420230E+03  0.27962447356E+03  0.99361458192E+03  0.16561393195E+04  0.99790502150E+03 0.  0.
         13    1    3    3    0    0 -0.16559043148E+03  0.47012306404E+03  0.67336699138E+02  0.50296135891E+03  0.10566000000E+00 0. -1.
         -4    1    3    3    0  502 -0.65995377082E+03 -0.19049859048E+03  0.92627788279E+03  0.11531779606E+04  0.00000000000E+00 0. -1.
        -13    1    1    2    0    0  0.82554420230E+03 -0.27962447356E+03  0.47407134735E+03  0.99219792870E+03  0.10566000000E+00 0.  1.
<mgrwt>
<rscale>  1 0.11932572E+04</rscale>
<asrwt>0</asrwt>
<pdfrwt beam="1">  1       21 0.31661716E+00 0.13249632E+04</pdfrwt>
<pdfrwt beam="2">  1       -4 0.90819334E-01 0.13249632E+04</pdfrwt>
<totfact> 0.80005455E-01</totfact>
</mgrwt>
</event>
<event>
 6    2  0.2345636E-005  0.1026503E+04  0.7818608E-02  0.9609254E-01
         21   -1    0    0  501  502  0.00000000000E+00  0.00000000000E+00  0.83537745359E+03  0.83537745359E+03  0.00000000000E+00 0. -1.
         -4   -1    0    0    0  501 -0.00000000000E+00 -0.00000000000E+00 -0.13746009752E+04  0.13746009752E+04  0.00000000000E+00 0. -1.
   -9000010    2    1    2    0  502 -0.74731254424E+02  0.31088614646E+03  0.48622576265E+03  0.11358363515E+04  0.97543516886E+03 0.  0.
         13    1    3    3    0    0 -0.25609604396E+03  0.27818513775E+03 -0.19828385368E+03  0.42695275194E+03  0.10566000000E+00 0. -1.
         -4    1    3    3    0  502  0.18136478954E+03  0.32701008713E+02  0.68450961633E+03  0.70888359955E+03  0.00000000000E+00 0. -1.
        -13    1    1    2    0    0  0.74731254424E+02 -0.31088614646E+03 -0.10254492843E+04  0.10741420773E+04  0.10566000000E+00 0.  1.
<mgrwt>
<rscale>  1 0.76686718E+03</rscale>
<asrwt>0</asrwt>
<pdfrwt beam="1">  1       21 0.12851961E+00 0.10265032E+04</pdfrwt>
<pdfrwt beam="2">  1       -4 0.21147707E+00 0.10265032E+04</pdfrwt>
<totfact> 0.17663412E+00</totfact>
</mgrwt>
</event>
<event>
 6    2  0.2345636E-005  0.1026007E+04  0.7818608E-02  0.1008696E+00
         21   -1    0    0  501  502  0.00000000000E+00  0.00000000000E+00  0.64985692268E+03  0.64985692268E+03  0.00000000000E+00 0. -1.
         -4   -1    0    0    0  501 -0.00000000000E+00 -0.00000000000E+00 -0.52287934062E+03  0.52287934062E+03  0.00000000000E+00 0. -1.
   -9000010    2    1    2    0  502 -0.20026014032E+02  0.64644968941E+02  0.22810102450E+03  0.10510564580E+04  0.10237722341E+04 0.  0.
         13    1    3    3    0    0 -0.50132397733E+03  0.17629860412E+03  0.13471844673E+03  0.54822987798E+03  0.10566000000E+00 0. -1.
         -4    1    3    3    0  502  0.48129796330E+03 -0.11165363518E+03  0.93382577769E+02  0.50282658000E+03  0.00000000000E+00 0. -1.
        -13    1    1    2    0    0  0.20026014032E+02 -0.64644968941E+02 -0.10112344243E+03  0.12167980531E+03  0.10566000000E+00 0.  1.
<mgrwt>
<rscale>  1 0.51996139E+03</rscale>
<asrwt>0</asrwt>
<pdfrwt beam="1">  1       21 0.99977987E-01 0.10260066E+04</pdfrwt>
<pdfrwt beam="2">  1       -4 0.80442976E-01 0.10260066E+04</pdfrwt>
<totfact> 0.42354865E+01</totfact>
</mgrwt>
</event>
<event>
 6    2  0.2345636E-005  0.1010665E+04  0.7818608E-02  0.9854702E-01
         21   -1    0    0  501  502  0.00000000000E+00  0.00000000000E+00  0.77703285544E+03  0.77703285544E+03  0.00000000000E+00 0. -1.
         -4   -1    0    0    0  501 -0.00000000000E+00 -0.00000000000E+00 -0.10782798800E+04  0.10782798800E+04  0.00000000000E+00 0. -1.
   -9000010    2    1    2    0  502  0.88792031217E+02 -0.11825814861E+03  0.43794654525E+03  0.11014717978E+04  0.99978694242E+03 0.  0.
         13    1    3    3    0    0 -0.19612104541E+03  0.11570472082E+03  0.64123997302E+03  0.68047024992E+03  0.10566000000E+00 0. -1.
         -4    1    3    3    0  502  0.28491307662E+03 -0.23396286943E+03 -0.20329342777E+03  0.42100154783E+03  0.00000000000E+00 0. -1.
        -13    1    1    2    0    0 -0.88792031217E+02  0.11825814861E+03 -0.73919356976E+03  0.75384093764E+03  0.10566000000E+00 0.  1.
<mgrwt>
<rscale>  1 0.62507765E+03</rscale>
<asrwt>0</asrwt>
<pdfrwt beam="1">  1       21 0.11954352E+00 0.10106646E+04</pdfrwt>
<pdfrwt beam="2">  1       -4 0.16588921E+00 0.10106646E+04</pdfrwt>
<totfact> 0.43874559E+00</totfact>
</mgrwt>
</event>
<event>
 6    2  0.2345636E-005  0.1017239E+04  0.7818608E-02  0.1031644E+00
         -4   -1    0    0    0  501 -0.00000000000E+00  0.00000000000E+00  0.23711420444E+03  0.23711420444E+03  0.00000000000E+00 0. -1.
         21   -1    0    0  501  502  0.00000000000E+00 -0.00000000000E+00 -0.12472905929E+04  0.12472905929E+04  0.00000000000E+00 0. -1.
   -9000010    2    1    2    0  502 -0.16896787427E+02  0.30278481074E+02 -0.10273071057E+04  0.14457297346E+04  0.10166475734E+04 0.  0.
         13    1    3    3    0    0  0.37376314271E+03  0.32383020225E+03 -0.70196509820E+03  0.85867333544E+03  0.10566000000E+00 0. -1.
         -4    1    3    3    0  502 -0.39065993014E+03 -0.29355172118E+03 -0.32534200747E+03  0.58705639921E+03  0.00000000000E+00 0. -1.
        -13    1    1    2    0    0  0.16896787427E+02 -0.30278481074E+02  0.17130717177E+02  0.38675062722E+02  0.10566000000E+00 0.  1.
<mgrwt>
<rscale>  1 0.43708783E+03</rscale>
<asrwt>0</asrwt>
<pdfrwt beam="2">  1       21 0.19189085E+00 0.10172387E+04</pdfrwt>
<pdfrwt beam="1">  1       -4 0.36479110E-01 0.10172387E+04</pdfrwt>
<totfact> 0.38785808E+01</totfact>
</mgrwt>
</event>
<event>
 6    2  0.2345636E-005  0.1022225E+04  0.7818608E-02  0.9758005E-01
         -4   -1    0    0    0  501 -0.00000000000E+00  0.00000000000E+00  0.83173708128E+03  0.83173708128E+03  0.00000000000E+00 0. -1.
         21   -1    0    0  501  502  0.00000000000E+00 -0.00000000000E+00 -0.44637775091E+03  0.44637775091E+03  0.00000000000E+00 0. -1.
   -9000010    2    1    2    0  502  0.11940573637E+03 -0.15575971305E+03  0.33062124583E+03  0.10743623177E+04  0.10032074379E+04 0.  0.
         13    1    3    3    0    0  0.17719129230E+03  0.41168940476E+03  0.19058584119E+03  0.48703993069E+03  0.10566000000E+00 0. -1.
         -4    1    3    3    0  502 -0.57785555924E+02 -0.56744911781E+03  0.14003540464E+03  0.58732238705E+03  0.00000000000E+00 0. -1.
        -13    1    1    2    0    0 -0.11940573637E+03  0.15575971305E+03  0.54738084531E+02  0.20375251446E+03  0.10566000000E+00 0.  1.
<mgrwt>
<rscale>  1 0.67665776E+03</rscale>
<asrwt>0</asrwt>
<pdfrwt beam="2">  1       21 0.68673500E-01 0.10222250E+04</pdfrwt>
<pdfrwt beam="1">  1       -4 0.12795955E+00 0.10222250E+04</pdfrwt>
<totfact> 0.33583593E+01</totfact>
</mgrwt>
</event>
<event>
 6    2  0.2345636E-005  0.1027716E+04  0.7818608E-02  0.1055842E+00
         21   -1    0    0  501  502  0.00000000000E+00  0.00000000000E+00  0.43378744846E+03  0.43378744846E+03  0.00000000000E+00 0. -1.
         -4   -1    0    0    0  501 -0.00000000000E+00 -0.00000000000E+00 -0.65072697993E+03  0.65072697993E+03  0.00000000000E+00 0. -1.
   -9000010    2    1    2    0  502  0.20344498000E+01 -0.16589853545E+02 -0.17917773094E+03  0.10432188237E+04  0.10275804069E+04 0.  0.
         13    1    3    3    0    0 -0.17924993787E+03  0.40096463171E+03 -0.34525181610E+03  0.55866090233E+03  0.10566000000E+00 0. -1.
         -4    1    3    3    0  502  0.18128438767E+03 -0.41755448526E+03  0.16607408516E+03  0.48455792134E+03  0.00000000000E+00 0. -1.
        -13    1    1    2    0    0 -0.20344498000E+01  0.16589853545E+02 -0.37761800531E+02  0.41295604730E+02  0.10566000000E+00 0.  1.
<mgrwt>
<rscale>  1 0.36701015E+03</rscale>
<asrwt>0</asrwt>
<pdfrwt beam="1">  1       21 0.66736531E-01 0.10277163E+04</pdfrwt>
<pdfrwt beam="2">  1       -4 0.10011184E+00 0.10277163E+04</pdfrwt>
<totfact> 0.65908125E+01</totfact>
</mgrwt>
</event>
<event>
 6    2  0.2345636E-005  0.1184107E+04  0.7818608E-02  0.9262144E-01
         21   -1    0    0  501  502  0.00000000000E+00  0.00000000000E+00  0.73063020356E+03  0.73063020356E+03  0.00000000000E+00 0. -1.
         -4   -1    0    0    0  501 -0.00000000000E+00 -0.00000000000E+00 -0.13536663904E+04  0.13536663904E+04  0.00000000000E+00 0. -1.
   -9000010    2    1    2    0  502 -0.65627115740E+03 -0.28123909984E+03 -0.68440591767E+03  0.13676701094E+04  0.94462839499E+03 0.  0.
         13    1    3    3    0    0  0.12216924435E+03 -0.37690761269E+03 -0.28070998180E+03  0.48557468819E+03  0.10566000000E+00 0. -1.
         -4    1    3    3    0  502 -0.77844040176E+03  0.95668512848E+02 -0.40369593587E+03  0.88209542118E+03  0.00000000000E+00 0. -1.
        -13    1    1    2    0    0  0.65627115740E+03  0.28123909984E+03  0.61369730868E+02  0.71662648454E+03  0.10566000000E+00 0.  1.
<mgrwt>
<rscale>  1 0.10434388E+04</rscale>
<asrwt>0</asrwt>
<pdfrwt beam="1">  1       21 0.11240465E+00 0.11841073E+04</pdfrwt>
<pdfrwt beam="2">  1       -4 0.20825637E+00 0.11841073E+04</pdfrwt>
<totfact> 0.25710091E+00</totfact>
</mgrwt>
</event>
<event>
 6    2  0.2345636E-005  0.1102842E+04  0.7818608E-02  0.9442321E-01
         -4   -1    0    0    0  501 -0.00000000000E+00  0.00000000000E+00  0.15286401191E+04  0.15286401191E+04  0.00000000000E+00 0. -1.
         21   -1    0    0  501  502  0.00000000000E+00 -0.00000000000E+00 -0.55573882918E+03  0.55573882918E+03  0.00000000000E+00 0. -1.
   -9000010    2    1    2    0  502  0.28940336947E+03  0.35874356816E+03  0.11284706108E+03  0.11086000052E+04  0.10019023178E+04 0.  0.
         13    1    3    3    0    0 -0.25392248551E+03 -0.17877646027E+03 -0.79346286942E+02  0.32052066362E+03  0.10566000000E+00 0. -1.
         -4    1    3    3    0  502  0.54332585499E+03  0.53752002842E+03  0.19219334802E+03  0.78807934161E+03  0.00000000000E+00 0. -1.
        -13    1    1    2    0    0 -0.28940336947E+03 -0.35874356816E+03  0.86005422885E+03  0.97577894304E+03  0.10566000000E+00 0.  1.
<mgrwt>
<rscale>  1 0.88673175E+03</rscale>
<asrwt>0</asrwt>
<pdfrwt beam="2">  1       21 0.85498282E-01 0.11028416E+04</pdfrwt>
<pdfrwt beam="1">  1       -4 0.23517540E+00 0.11028416E+04</pdfrwt>
<totfact> 0.34388018E+00</totfact>
</mgrwt>
</event>
<event>
 6    2  0.2345636E-005  0.9927127E+03  0.7818608E-02  0.1004440E+00
         21   -1    0    0  501  502  0.00000000000E+00  0.00000000000E+00  0.56563916303E+03  0.56563916303E+03  0.00000000000E+00 0. -1.
         -4   -1    0    0    0  501 -0.00000000000E+00 -0.00000000000E+00 -0.52377471887E+03  0.52377471887E+03  0.00000000000E+00 0. -1.
   -9000010    2    1    2    0  502 -0.85103950088E+02 -0.56371639356E+01  0.80112360917E+02  0.99593995914E+03  0.98904193637E+03 0.  0.
         13    1    3    3    0    0  0.39509120641E+03 -0.13696529798E+03 -0.15425285375E+03  0.44570226417E+03  0.10566000000E+00 0. -1.
         -4    1    3    3    0  502 -0.48019515650E+03  0.13132813404E+03  0.23436521467E+03  0.55023769497E+03  0.00000000000E+00 0. -1.
        -13    1    1    2    0    0  0.85103950088E+02  0.56371639356E+01 -0.38247916752E+02  0.93473922769E+02  0.10566000000E+00 0.  1.
<mgrwt>
<rscale>  1 0.53745591E+03</rscale>
<asrwt>0</asrwt>
<pdfrwt beam="1">  1       21 0.87021409E-01 0.99271265E+03</pdfrwt>
<pdfrwt beam="2">  1       -4 0.80580726E-01 0.99271265E+03</pdfrwt>
<totfact> 0.59312280E+01</totfact>
</mgrwt>
</event>
<event>
 6    2  0.2345636E-005  0.9756559E+03  0.7818608E-02  0.9747019E-01
         -4   -1    0    0    0  501 -0.00000000000E+00  0.00000000000E+00  0.12669164588E+03  0.12669164588E+03  0.00000000000E+00 0. -1.
         21   -1    0    0  501  502  0.00000000000E+00 -0.00000000000E+00 -0.38228931794E+04  0.38228931794E+04  0.00000000000E+00 0. -1.
   -9000010    2    1    2    0  502  0.75778258456E+02 -0.22150149183E+03 -0.35303428233E+04  0.36626800009E+04  0.94715314694E+03 0.  0.
         13    1    3    3    0    0 -0.29490102326E+03  0.98135886258E+02 -0.25299244501E+04  0.25489438989E+04  0.10566000000E+00 0. -1.
         -4    1    3    3    0  502  0.37067928171E+03 -0.31963737809E+03 -0.10004183732E+04  0.11137361020E+04  0.00000000000E+00 0. -1.
        -13    1    1    2    0    0 -0.75778258456E+02  0.22150149183E+03 -0.16585871029E+03  0.28690482443E+03  0.10566000000E+00 0.  1.
<mgrwt>
<rscale>  1 0.68284994E+03</rscale>
<asrwt>0</asrwt>
<pdfrwt beam="2">  1       21 0.58813728E+00 0.97565585E+03</pdfrwt>
<pdfrwt beam="1">  1       -4 0.19491027E-01 0.97565585E+03</pdfrwt>
<totfact> 0.27462592E-01</totfact>
</mgrwt>
</event>
<event>
 6    2  0.2345636E-005  0.1021782E+04  0.7818608E-02  0.9794385E-01
         21   -1    0    0  501  502  0.00000000000E+00  0.00000000000E+00  0.39102862172E+03  0.39102862172E+03  0.00000000000E+00 0. -1.
         -4   -1    0    0    0  501 -0.00000000000E+00 -0.00000000000E+00 -0.91760324844E+03  0.91760324844E+03  0.00000000000E+00 0. -1.
   -9000010    2    1    2    0  502  0.80659603882E+01  0.17409563507E+03 -0.42287009708E+03  0.11058290337E+04  0.10068090101E+04 0.  0.
         13    1    3    3    0    0 -0.41680224705E+03  0.17749265742E+03 -0.49923522454E+03  0.67413913784E+03  0.10566000000E+00 0. -1.
         -4    1    3    3    0  502  0.42486820744E+03 -0.33970223496E+01  0.76365127457E+02  0.43168989581E+03  0.00000000000E+00 0. -1.
        -13    1    1    2    0    0 -0.80659603882E+01 -0.17409563507E+03 -0.10370452964E+03  0.20280283651E+03  0.10566000000E+00 0.  1.
<mgrwt>
<rscale>  1 0.65664724E+03</rscale>
<asrwt>0</asrwt>
<pdfrwt beam="1">  1       21 0.60158250E-01 0.10217821E+04</pdfrwt>
<pdfrwt beam="2">  1       -4 0.14116973E+00 0.10217821E+04</pdfrwt>
<totfact> 0.35092129E+01</totfact>
</mgrwt>
</event>
<event>
 6    2  0.2345636E-005  0.1029617E+04  0.7818608E-02  0.9562613E-01
         21   -1    0    0  501  502  0.00000000000E+00  0.00000000000E+00  0.47766341142E+03  0.47766341142E+03  0.00000000000E+00 0. -1.
         -4   -1    0    0    0  501 -0.00000000000E+00 -0.00000000000E+00 -0.10555521281E+04  0.10555521281E+04  0.00000000000E+00 0. -1.
   -9000010    2    1    2    0  502 -0.26532445306E+03  0.26061598552E+03 -0.31137360190E+03  0.10756698316E+04  0.96010119741E+03 0.  0.
         13    1    3    3    0    0 -0.57103435358E+03  0.12352633769E+03 -0.42435610640E+03  0.72209217228E+03  0.10566000000E+00 0. -1.
         -4    1    3    3    0  502  0.30570990052E+03  0.13708964783E+03  0.11298250450E+03  0.35357765928E+03  0.00000000000E+00 0. -1.
        -13    1    1    2    0    0  0.26532445306E+03 -0.26061598552E+03 -0.26651511481E+03  0.45754570797E+03  0.10566000000E+00 0.  1.
<mgrwt>
<rscale>  1 0.79820908E+03</rscale>
<asrwt>0</asrwt>
<pdfrwt beam="1">  1       21 0.73486680E-01 0.10296174E+04</pdfrwt>
<pdfrwt beam="2">  1       -4 0.16239263E+00 0.10296174E+04</pdfrwt>
<totfact> 0.15249502E+01</totfact>
</mgrwt>
</event>
<event>
 6    2  0.2345636E-005  0.1040653E+04  0.7818608E-02  0.9799771E-01
         21   -1    0    0  501  502  0.00000000000E+00  0.00000000000E+00  0.11033313165E+04  0.11033313165E+04  0.00000000000E+00 0. -1.
         -4   -1    0    0    0  501 -0.00000000000E+00 -0.00000000000E+00 -0.59946666213E+03  0.59946666213E+03  0.00000000000E+00 0. -1.
   -9000010    2    1    2    0  502 -0.26345029926E+01 -0.16205703911E+03  0.83492759937E+03  0.13341896375E+04  0.10279535340E+04 0.  0.
         13    1    3    3    0    0 -0.47686022604E+03  0.29332724203E+02  0.19748921597E+03  0.51697010114E+03  0.10566000000E+00 0. -1.
         -4    1    3    3    0  502  0.47422572305E+03 -0.19138976331E+03  0.63743838340E+03  0.81721953631E+03  0.00000000000E+00 0. -1.
        -13    1    1    2    0    0  0.26345029926E+01  0.16205703911E+03 -0.33106294496E+03  0.36860834122E+03  0.10566000000E+00 0.  1.
<mgrwt>
<rscale>  1 0.65374846E+03</rscale>
<asrwt>0</asrwt>
<pdfrwt beam="1">  1       21 0.16974328E+00 0.10406526E+04</pdfrwt>
<pdfrwt beam="2">  1       -4 0.92225640E-01 0.10406526E+04</pdfrwt>
<totfact> 0.74559522E+00</totfact>
</mgrwt>
</event>
<event>
 6    2  0.2345636E-005  0.1043769E+04  0.7818608E-02  0.9918331E-01
         21   -1    0    0  501  502  0.00000000000E+00  0.00000000000E+00  0.10597111841E+04  0.10597111841E+04  0.00000000000E+00 0. -1.
         -4   -1    0    0    0  501 -0.00000000000E+00 -0.00000000000E+00 -0.32090890078E+03  0.32090890078E+03  0.00000000000E+00 0. -1.
   -9000010    2    1    2    0  502 -0.75617149571E+02 -0.78976155827E+02  0.60002650433E+03  0.12039454843E+04  0.10380258844E+04 0.  0.
         13    1    3    3    0    0 -0.19694047798E+03 -0.73889268560E+02 -0.26054080297E+03  0.33485324704E+03  0.10566000000E+00 0. -1.
         -4    1    3    3    0  502  0.12132332841E+03 -0.50868872673E+01  0.86056730730E+03  0.86909223724E+03  0.00000000000E+00 0. -1.
        -13    1    1    2    0    0  0.75617149571E+02  0.78976155827E+02  0.13877577904E+03  0.17667460064E+03  0.10566000000E+00 0.  1.
<mgrwt>
<rscale>  1 0.59381043E+03</rscale>
<asrwt>0</asrwt>
<pdfrwt beam="1">  1       21 0.16303249E+00 0.10437686E+04</pdfrwt>
<pdfrwt beam="2">  1       -4 0.49370601E-01 0.10437686E+04</pdfrwt>
<totfact> 0.33752424E+01</totfact>
</mgrwt>
</event>
<event>
 6    2  0.2345636E-005  0.1101364E+04  0.7818608E-02  0.9461196E-01
         -4   -1    0    0    0  501 -0.00000000000E+00  0.00000000000E+00  0.25182487180E+03  0.25182487180E+03  0.00000000000E+00 0. -1.
         21   -1    0    0  501  502  0.00000000000E+00 -0.00000000000E+00 -0.23682720518E+04  0.23682720518E+04  0.00000000000E+00 0.  1.
   -9000010    2    1    2    0  502 -0.18193555745E+03  0.39282041735E+03 -0.16490343366E+04  0.19830072873E+04  0.10127167575E+04 0.  0.
         13    1    3    3    0    0  0.34520076616E+03  0.42752827680E+03 -0.10441453994E+04  0.11799083111E+04  0.10566000000E+00 0. -1.
         -4    1    3    3    0  502 -0.52713632361E+03 -0.34707859453E+02 -0.60488893717E+03  0.80309897615E+03  0.00000000000E+00 0. -1.
        -13    1    1    2    0    0  0.18193555745E+03 -0.39282041735E+03 -0.46741284345E+03  0.63708963634E+03  0.10566000000E+00 0.  1.
<mgrwt>
<rscale>  1 0.87206114E+03</rscale>
<asrwt>0</asrwt>
<pdfrwt beam="2">  1       21 0.36434956E+00 0.11013645E+04</pdfrwt>
<pdfrwt beam="1">  1       -4 0.38742287E-01 0.11013645E+04</pdfrwt>
<totfact> 0.26695936E+00</totfact>
</mgrwt>
</event>
<event>
 6    2  0.2345636E-005  0.1276155E+04  0.7818608E-02  0.9169049E-01
         21   -1    0    0  501  502  0.00000000000E+00  0.00000000000E+00  0.11170385539E+04  0.11170385539E+04  0.00000000000E+00 0. -1.
         -4   -1    0    0    0  501 -0.00000000000E+00 -0.00000000000E+00 -0.12865503423E+04  0.12865503423E+04  0.00000000000E+00 0. -1.
   -9000010    2    1    2    0  502 -0.27084337386E+03  0.75976947511E+03  0.48462922543E+03  0.13650773337E+04  0.98892105467E+03 0.  0.
         13    1    3    3    0    0 -0.35282625676E+03  0.46017159426E+03 -0.19991409867E+03  0.61335953701E+03  0.10566000000E+00 0. -1.
         -4    1    3    3    0  502  0.81982882903E+02  0.29959788085E+03  0.68454332410E+03  0.75171779669E+03  0.00000000000E+00 0. -1.
        -13    1    1    2    0    0  0.27084337386E+03 -0.75976947511E+03 -0.65414101376E+03  0.10385115625E+04  0.10566000000E+00 0.  1.
<mgrwt>
<rscale>  1 0.11378689E+04</rscale>
<asrwt>0</asrwt>
<pdfrwt beam="1">  1       21 0.17185209E+00 0.12761546E+04</pdfrwt>
<pdfrwt beam="2">  1       -4 0.19793082E+00 0.12761546E+04</pdfrwt>
<totfact> 0.92864391E-01</totfact>
</mgrwt>
</event>
<event>
 6    2  0.2345636E-005  0.1093825E+04  0.7818608E-02  0.9473569E-01
         21   -1    0    0  501  502  0.00000000000E+00  0.00000000000E+00  0.16582777921E+04  0.16582777921E+04  0.00000000000E+00 0.  1.
         -4   -1    0    0    0  501 -0.00000000000E+00 -0.00000000000E+00 -0.36047184518E+03  0.36047184518E+03  0.00000000000E+00 0. -1.
   -9000010    2    1    2    0  502 -0.37320981035E+01  0.42305240286E+03  0.74850383170E+03  0.13254098295E+04  0.10086951799E+04 0.  0.
         13    1    3    3    0    0 -0.28227004317E+02  0.71213737237E+03  0.26270276195E+03  0.75957169063E+03  0.10566000000E+00 0. -1.
         -4    1    3    3    0  502  0.24494906214E+02 -0.28908496952E+03  0.48580106976E+03  0.56583813888E+03  0.00000000000E+00 0. -1.
        -13    1    1    2    0    0  0.37320981035E+01 -0.42305240286E+03  0.54930211525E+03  0.69333980782E+03  0.10566000000E+00 0.  1.
<mgrwt>
<rscale>  1 0.86260848E+03</rscale>
<asrwt>0</asrwt>
<pdfrwt beam="1">  1       21 0.25511966E+00 0.10938250E+04</pdfrwt>
<pdfrwt beam="2">  1       -4 0.55457208E-01 0.10938250E+04</pdfrwt>
<totfact> 0.61363743E+00</totfact>
</mgrwt>
</event>
<event>
 6    2  0.2345636E-005  0.9900948E+03  0.7818608E-02  0.1003265E+00
         -4   -1    0    0    0  501 -0.00000000000E+00  0.00000000000E+00  0.22994281772E+03  0.22994281772E+03  0.00000000000E+00 0. -1.
         21   -1    0    0  501  502  0.00000000000E+00 -0.00000000000E+00 -0.13233588253E+04  0.13233588253E+04  0.00000000000E+00 0. -1.
   -9000010    2    1    2    0  502  0.39003028357E+02 -0.80206189709E+02 -0.10763997423E+04  0.14625060840E+04  0.98606965851E+03 0.  0.
         13    1    3    3    0    0  0.30688751812E+02  0.44047866777E+03 -0.32484791197E+03  0.54816916488E+03  0.10566000000E+00 0. -1.
         -4    1    3    3    0  502  0.83142765458E+01 -0.52068485748E+03 -0.75155183033E+03  0.91433691912E+03  0.00000000000E+00 0. -1.
        -13    1    1    2    0    0 -0.39003028357E+02  0.80206189709E+02 -0.17016265283E+02  0.90795559015E+02  0.10566000000E+00 0.  1.
<mgrwt>
<rscale>  1 0.54241624E+03</rscale>
<asrwt>0</asrwt>
<pdfrwt beam="2">  1       21 0.20359367E+00 0.99009476E+03</pdfrwt>
<pdfrwt beam="1">  1       -4 0.35375818E-01 0.99009476E+03</pdfrwt>
<totfact> 0.34339594E+01</totfact>
</mgrwt>
</event>
<event>
 6    2  0.2345636E-005  0.1060471E+04  0.7818608E-02  0.9568429E-01
         21   -1    0    0  501  502  0.00000000000E+00  0.00000000000E+00  0.69827283854E+03  0.69827283854E+03  0.00000000000E+00 0. -1.
         -4   -1    0    0    0  501 -0.00000000000E+00 -0.00000000000E+00 -0.72286614219E+03  0.72286614219E+03  0.00000000000E+00 0. -1.
   -9000010    2    1    2    0  502 -0.32879703863E+03  0.56539308306E+02  0.99627726641E+02  0.10651402988E+04  0.10066250475E+04 0.  0.
         13    1    3    3    0    0 -0.41951784106E+03  0.80596388394E+02 -0.38283570365E+03  0.57363244673E+03  0.10566000000E+00 0. -1.
         -4    1    3    3    0  502  0.90720802430E+02 -0.24057080087E+02  0.48246343029E+03  0.49150785209E+03  0.00000000000E+00 0. -1.
        -13    1    1    2    0    0  0.32879703863E+03 -0.56539308306E+02 -0.12422103028E+03  0.35599868191E+03  0.10566000000E+00 0.  1.
<mgrwt>
<rscale>  1 0.79421477E+03</rscale>
<asrwt>0</asrwt>
<pdfrwt beam="1">  1       21 0.10742659E+00 0.10604707E+04</pdfrwt>
<pdfrwt beam="2">  1       -4 0.11121018E+00 0.10604707E+04</pdfrwt>
<totfact> 0.16293646E+01</totfact>
</mgrwt>
</event>
<event>
 6    2  0.2345636E-005  0.1025867E+04  0.7818608E-02  0.9670693E-01
         -4   -1    0    0    0  501 -0.00000000000E+00  0.00000000000E+00  0.17153274696E+04  0.17153274696E+04  0.00000000000E+00 0. -1.
         21   -1    0    0  501  502  0.00000000000E+00 -0.00000000000E+00 -0.24201894876E+03  0.24201894876E+03  0.00000000000E+00 0. -1.
   -9000010    2    1    2    0  502  0.24469741643E+03 -0.87903204306E+02  0.11220817093E+04  0.15203520440E+04  0.99237048342E+03 0.  0.
         13    1    3    3    0    0 -0.13891449790E+03  0.15417414595E+03 -0.89978335657E+02  0.22619243369E+03  0.10566000000E+00 0. -1.
         -4    1    3    3    0  502  0.38361191433E+03 -0.24207735025E+03  0.12120600450E+04  0.12941596103E+04  0.00000000000E+00 0. -1.
        -13    1    1    2    0    0 -0.24469741643E+03  0.87903204306E+02  0.35122681153E+03  0.43699437438E+03  0.10566000000E+00 0.  1.
<mgrwt>
<rscale>  1 0.72788819E+03</rscale>
<asrwt>0</asrwt>
<pdfrwt beam="2">  1       21 0.37233686E-01 0.10258669E+04</pdfrwt>
<pdfrwt beam="1">  1       -4 0.26389653E+00 0.10258669E+04</pdfrwt>
<totfact> 0.14526936E+01</totfact>
</mgrwt>
</event>
<event>
 6    2  0.2345636E-005  0.1203941E+04  0.7818608E-02  0.9262392E-01
         21   -1    0    0  501  502  0.00000000000E+00  0.00000000000E+00  0.89664777133E+03  0.89664777133E+03  0.00000000000E+00 0.  1.
         -4   -1    0    0    0  501 -0.00000000000E+00 -0.00000000000E+00 -0.14398490608E+04  0.14398490608E+04  0.00000000000E+00 0. -1.
   -9000010    2    1    2    0  502 -0.66160242153E+03  0.15122906769E+03 -0.96020281003E+03  0.15399553867E+04  0.99442705189E+03 0.  0.
         13    1    3    3    0    0 -0.35827633842E+03 -0.35928360795E+03 -0.13816594101E+03  0.52586736354E+03  0.10566000000E+00 0. -1.
         -4    1    3    3    0  502 -0.30332608311E+03  0.51051267564E+03 -0.82203686902E+03  0.10140880232E+04  0.00000000000E+00 0. -1.
        -13    1    1    2    0    0  0.66160242153E+03 -0.15122906769E+03  0.41700152052E+03  0.79654144548E+03  0.10566000000E+00 0.  1.
<mgrwt>
<rscale>  1 0.10432009E+04</rscale>
<asrwt>0</asrwt>
<pdfrwt beam="1">  1       21 0.13794581E+00 0.12039407E+04</pdfrwt>
<pdfrwt beam="2">  1       -4 0.22151524E+00 0.12039407E+04</pdfrwt>
<totfact> 0.12272667E+00</totfact>
</mgrwt>
</event>
<event>
 6    2  0.2345636E-005  0.9822582E+03  0.7818608E-02  0.1000633E+00
         -4   -1    0    0    0  501 -0.00000000000E+00  0.00000000000E+00  0.55544082716E+03  0.55544082716E+03  0.00000000000E+00 0. -1.
         21   -1    0    0  501  502  0.00000000000E+00 -0.00000000000E+00 -0.58941446199E+03  0.58941446199E+03  0.00000000000E+00 0. -1.
   -9000010    2    1    2    0  502  0.66778023090E+02 -0.73365372684E+02 -0.14840721447E+03  0.99340616374E+03  0.97723555122E+03 0.  0.
         13    1    3    3    0    0 -0.24178002437E+03 -0.57611042925E+02  0.33655757618E+03  0.41838693299E+03  0.10566000000E+00 0. -1.
         -4    1    3    3    0  502  0.30855804746E+03 -0.15754329759E+02 -0.48496479065E+03  0.57501923075E+03  0.00000000000E+00 0. -1.
        -13    1    1    2    0    0 -0.66778023090E+02  0.73365372684E+02  0.11443357964E+03  0.15144912542E+03  0.10566000000E+00 0.  1.
<mgrwt>
<rscale>  1 0.55373697E+03</rscale>
<asrwt>0</asrwt>
<pdfrwt beam="2">  1       21 0.90679147E-01 0.98225817E+03</pdfrwt>
<pdfrwt beam="1">  1       -4 0.85452436E-01 0.98225817E+03</pdfrwt>
<totfact> 0.46935820E+01</totfact>
</mgrwt>
</event>
<event>
 6    2  0.2345636E-005  0.1013941E+04  0.7818608E-02  0.1003171E+00
         21   -1    0    0  501  502  0.00000000000E+00  0.00000000000E+00  0.80768342454E+03  0.80768342454E+03  0.00000000000E+00 0. -1.
         -4   -1    0    0    0  501 -0.00000000000E+00 -0.00000000000E+00 -0.42452408767E+03  0.42452408767E+03  0.00000000000E+00 0. -1.
   -9000010    2    1    2    0  502  0.74019781503E+02  0.38175988119E+02  0.46496345525E+03  0.11154673774E+04  0.10105147803E+04 0.  0.
         13    1    3    3    0    0 -0.39424491670E+03 -0.17232363061E+03  0.41807895045E+03  0.59992875242E+03  0.10566000000E+00 0. -1.
         -4    1    3    3    0  502  0.46826469820E+03  0.21049961873E+03  0.46884504799E+02  0.51553862499E+03  0.00000000000E+00 0. -1.
        -13    1    1    2    0    0 -0.74019781503E+02 -0.38175988119E+02 -0.81804118380E+02  0.11674013479E+03  0.10566000000E+00 0.  1.
<mgrwt>
<rscale>  1 0.54281378E+03</rscale>
<asrwt>0</asrwt>
<pdfrwt beam="1">  1       21 0.12425899E+00 0.10139411E+04</pdfrwt>
<pdfrwt beam="2">  1       -4 0.65311398E-01 0.10139411E+04</pdfrwt>
<totfact> 0.38983740E+01</totfact>
</mgrwt>
</event>
<event>
 6    2  0.2345636E-005  0.9986862E+03  0.7818608E-02  0.9781907E-01
         21   -1    0    0  501  502  0.00000000000E+00  0.00000000000E+00  0.11069767133E+04  0.11069767133E+04  0.00000000000E+00 0. -1.
         -4   -1    0    0    0  501 -0.00000000000E+00 -0.00000000000E+00 -0.32154750051E+03  0.32154750051E+03  0.00000000000E+00 0. -1.
   -9000010    2    1    2    0  502  0.18457078792E+03  0.61299060282E+02  0.65238788218E+03  0.11928889928E+04  0.97956635807E+03 0.  0.
         13    1    3    3    0    0  0.11128818057E+03 -0.39231326557E+03  0.16198384250E+02  0.40811414616E+03  0.10566000000E+00 0. -1.
         -4    1    3    3    0  502  0.73282607351E+02  0.45361232585E+03  0.63618949793E+03  0.78477484668E+03  0.00000000000E+00 0. -1.
        -13    1    1    2    0    0 -0.18457078792E+03 -0.61299060282E+02  0.13304133057E+03  0.23563522095E+03  0.10566000000E+00 0.  1.
<mgrwt>
<rscale>  1 0.66342637E+03</rscale>
<asrwt>0</asrwt>
<pdfrwt beam="1">  1       21 0.17030411E+00 0.99868624E+03</pdfrwt>
<pdfrwt beam="2">  1       -4 0.49468847E-01 0.99868624E+03</pdfrwt>
<totfact> 0.29749056E+01</totfact>
</mgrwt>
</event>
<event>
 6    2  0.2345636E-005  0.1015805E+04  0.7818608E-02  0.9736007E-01
         -4   -1    0    0    0  501 -0.00000000000E+00  0.00000000000E+00  0.25910611343E+03  0.25910611343E+03  0.00000000000E+00 0. -1.
         21   -1    0    0  501  502  0.00000000000E+00 -0.00000000000E+00 -0.14688487362E+04  0.14688487362E+04  0.00000000000E+00 0.  1.
   -9000010    2    1    2    0  502  0.19084047577E+03 -0.99374703463E+02 -0.95167335046E+03  0.13919560708E+04  0.99275582006E+03 0.  0.
         13    1    3    3    0    0  0.27502410135E+03  0.29561516098E+03 -0.89793232960E+03  0.98453494576E+03  0.10566000000E+00 0. -1.
         -4    1    3    3    0  502 -0.84183625573E+02 -0.39498986444E+03 -0.53741020861E+02  0.40742112507E+03  0.00000000000E+00 0. -1.
        -13    1    1    2    0    0 -0.19084047577E+03  0.99374703463E+02 -0.25806927234E+03  0.33599877882E+03  0.10566000000E+00 0.  1.
<mgrwt>
<rscale>  1 0.68912823E+03</rscale>
<asrwt>0</asrwt>
<pdfrwt beam="2">  1       21 0.22597673E+00 0.10158049E+04</pdfrwt>
<pdfrwt beam="1">  1       -4 0.39862478E-01 0.10158049E+04</pdfrwt>
<totfact> 0.19067161E+01</totfact>
</mgrwt>
</event>
<event>
 6    2  0.2345636E-005  0.1085576E+04  0.7818608E-02  0.9694378E-01
         -4   -1    0    0    0  501 -0.00000000000E+00  0.00000000000E+00  0.69825782630E+03  0.69825782630E+03  0.00000000000E+00 0. -1.
         21   -1    0    0  501  502  0.00000000000E+00 -0.00000000000E+00 -0.80630385296E+03  0.80630385296E+03  0.00000000000E+00 0. -1.
   -9000010    2    1    2    0  502  0.11104994496E+03 -0.16946361794E+03 -0.39334380794E+03  0.11546404835E+04  0.10665014237E+04 0.  0.
         13    1    3    3    0    0  0.17279517968E+03  0.20706984389E+03  0.27491833277E+03  0.38511841715E+03  0.10566000000E+00 0. -1.
         -4    1    3    3    0  502 -0.61745234721E+02 -0.37653346183E+03 -0.66826214071E+03  0.76952206635E+03  0.00000000000E+00 0. -1.
        -13    1    1    2    0    0 -0.11104994496E+03  0.16946361794E+03  0.28529778128E+03  0.34992119577E+03  0.10566000000E+00 0.  1.
<mgrwt>
<rscale>  1 0.71352526E+03</rscale>
<asrwt>0</asrwt>
<pdfrwt beam="2">  1       21 0.12404675E+00 0.10855760E+04</pdfrwt>
<pdfrwt beam="1">  1       -4 0.10742428E+00 0.10855760E+04</pdfrwt>
<totfact> 0.12227314E+01</totfact>
</mgrwt>
</event>
<event>
 6    2  0.2345636E-005  0.1049545E+04  0.7818608E-02  0.9573787E-01
         -4   -1    0    0    0  501 -0.00000000000E+00  0.00000000000E+00  0.17500206880E+04  0.17500206880E+04  0.00000000000E+00 0. -1.
         21   -1    0    0  501  502  0.00000000000E+00 -0.00000000000E+00 -0.46892361157E+03  0.46892361157E+03  0.00000000000E+00 0. -1.
   -9000010    2    1    2    0  502  0.28821441704E+03 -0.17629002659E+03  0.17706728785E+03  0.10643761947E+04  0.99367909089E+03 0.  0.
         13    1    3    3    0    0 -0.22687967009E+03 -0.38221506551E+03 -0.82249790859E+02  0.45202630484E+03  0.10566000000E+00 0. -1.
         -4    1    3    3    0  502  0.51509408713E+03  0.20592503892E+03  0.25931707871E+03  0.61234988982E+03  0.00000000000E+00 0. -1.
        -13    1    1    2    0    0 -0.28821441704E+03  0.17629002659E+03  0.11040297885E+04  0.11545681049E+04  0.10566000000E+00 0.  1.
<mgrwt>
<rscale>  1 0.79055690E+03</rscale>
<asrwt>0</asrwt>
<pdfrwt beam="2">  1       21 0.72142095E-01 0.10495446E+04</pdfrwt>
<pdfrwt beam="1">  1       -4 0.26923395E+00 0.10495446E+04</pdfrwt>
<totfact> 0.31725293E+00</totfact>
</mgrwt>
</event>
<event>
 6    2  0.2345636E-005  0.1401531E+04  0.7818608E-02  0.9046084E-01
         -4   -1    0    0    0  501 -0.00000000000E+00  0.00000000000E+00  0.54430899938E+03  0.54430899938E+03  0.00000000000E+00 0. -1.
         21   -1    0    0  501  502  0.00000000000E+00 -0.00000000000E+00 -0.26060631296E+04  0.26060631296E+04  0.00000000000E+00 0.  1.
   -9000010    2    1    2    0  502  0.11081143744E+03  0.96682321384E+03 -0.10941851755E+04  0.17780689574E+04  0.10085939309E+04 0.  0.
         13    1    3    3    0    0 -0.14810336960E+03  0.89694252887E+03 -0.32823817602E+03  0.96653029934E+03  0.10566000000E+00 0. -1.
         -4    1    3    3    0  502  0.25891480705E+03  0.69880684977E+02 -0.76594699953E+03  0.81153865806E+03  0.00000000000E+00 0. -1.
        -13    1    1    2    0    0 -0.11081143744E+03 -0.96682321384E+03 -0.96756895466E+03  0.13723031716E+04  0.10566000000E+00 0.  1.
<mgrwt>
<rscale>  1 0.12793732E+04</rscale>
<asrwt>0</asrwt>
<pdfrwt beam="2">  1       21 0.40093278E+00 0.14015306E+04</pdfrwt>
<pdfrwt beam="1">  1       -4 0.83739847E-01 0.14015306E+04</pdfrwt>
<totfact> 0.27465489E-01</totfact>
</mgrwt>
</event>
<event>
 6    2  0.2345636E-005  0.1047213E+04  0.7818608E-02  0.9670390E-01
         21   -1    0    0  501  502  0.00000000000E+00  0.00000000000E+00  0.15905542193E+04  0.15905542193E+04  0.00000000000E+00 0. -1.
         -4   -1    0    0    0  501 -0.00000000000E+00 -0.00000000000E+00 -0.38237008050E+03  0.38237008050E+03  0.00000000000E+00 0. -1.
   -9000010    2    1    2    0  502  0.14498866321E+03 -0.19709536471E+03  0.13354863135E+04  0.16971088722E+04  0.10182271530E+04 0.  0.
         13    1    3    3    0    0  0.56549184806E+03  0.32100531716E+02  0.77436899511E+03  0.95940545449E+03  0.10566000000E+00 0. -1.
         -4    1    3    3    0  502 -0.42050318485E+03 -0.22919589642E+03  0.56111731843E+03  0.73770341767E+03  0.00000000000E+00 0. -1.
        -13    1    1    2    0    0 -0.14498866321E+03  0.19709536471E+03 -0.12730217476E+03  0.27581542761E+03  0.10566000000E+00 0.  1.
<mgrwt>
<rscale>  1 0.72807456E+03</rscale>
<asrwt>0</asrwt>
<pdfrwt beam="1">  1       21 0.24470065E+00 0.10472129E+04</pdfrwt>
<pdfrwt beam="2">  1       -4 0.58826167E-01 0.10472129E+04</pdfrwt>
<totfact> 0.63372596E+00</totfact>
</mgrwt>
</event>
<event>
 6    2  0.2345636E-005  0.8928046E+03  0.7818608E-02  0.9860936E-01
         21   -1    0    0  501  502  0.00000000000E+00  0.00000000000E+00  0.56542041587E+03  0.56542041587E+03  0.00000000000E+00 0. -1.
         -4   -1    0    0    0  501 -0.00000000000E+00 -0.00000000000E+00 -0.56228448250E+03  0.56228448250E+03  0.00000000000E+00 0. -1.
   -9000010    2    1    2    0  502  0.20978845015E+03  0.13511787028E+02  0.95869413072E+02  0.89793703371E+03  0.86770168257E+03 0.  0.
         13    1    3    3    0    0  0.11493403796E+03  0.15673793052E+03 -0.36091236611E+03  0.40991994233E+03  0.10566000000E+00 0. -1.
         -4    1    3    3    0  502  0.94854412192E+02 -0.14322614349E+03  0.45678177918E+03  0.48801709138E+03  0.00000000000E+00 0. -1.
        -13    1    1    2    0    0 -0.20978845015E+03 -0.13511787028E+02 -0.92733479703E+02  0.22976786465E+03  0.10566000000E+00 0.  1.
<mgrwt>
<rscale>  1 0.62192417E+03</rscale>
<asrwt>0</asrwt>
<pdfrwt beam="1">  1       21 0.86987756E-01 0.89280455E+03</pdfrwt>
<pdfrwt beam="2">  1       -4 0.86505305E-01 0.89280455E+03</pdfrwt>
<totfact> 0.50804629E+01</totfact>
</mgrwt>
</event>
<event>
 6    2  0.2345636E-005  0.1101575E+04  0.7818608E-02  0.1000240E+00
         21   -1    0    0  501  502  0.00000000000E+00  0.00000000000E+00  0.19014729043E+04  0.19014729043E+04  0.00000000000E+00 0. -1.
         -4   -1    0    0    0  501 -0.00000000000E+00 -0.00000000000E+00 -0.18352241126E+03  0.18352241126E+03  0.00000000000E+00 0. -1.
   -9000010    2    1    2    0  502 -0.39742400486E+02  0.59087993371E+02  0.16643036655E+04  0.19958390335E+04  0.10992706252E+04 0.  0.
         13    1    3    3    0    0 -0.41403866778E+03  0.40970627039E+03  0.77871253395E+03  0.97246103680E+03  0.10566000000E+00 0. -1.
         -4    1    3    3    0  502  0.37429626729E+03 -0.35061827702E+03  0.88559113153E+03  0.10233779967E+04  0.00000000000E+00 0. -1.
        -13    1    1    2    0    0  0.39742400486E+02 -0.59087993371E+02  0.53646827572E+02  0.89156282054E+02  0.10566000000E+00 0.  1.
<mgrwt>
<rscale>  1 0.55545089E+03</rscale>
<asrwt>0</asrwt>
<pdfrwt beam="1">  1       21 0.29253428E+00 0.11015747E+04</pdfrwt>
<pdfrwt beam="2">  1       -4 0.28234218E-01 0.11015747E+04</pdfrwt>
<totfact> 0.14155544E+01</totfact>
</mgrwt>
</event>
<event>
 6    2  0.2345636E-005  0.1017933E+04  0.7818608E-02  0.9855653E-01
         -4   -1    0    0    0  501 -0.00000000000E+00  0.00000000000E+00  0.11796867481E+04  0.11796867481E+04  0.00000000000E+00 0. -1.
         21   -1    0    0  501  502  0.00000000000E+00 -0.00000000000E+00 -0.29816248088E+03  0.29816248088E+03  0.00000000000E+00 0. -1.
   -9000010    2    1    2    0  502  0.59910110926E+02 -0.13126501508E+03  0.65896641686E+03  0.12126102170E+04  0.10076542433E+04 0.  0.
         13    1    3    3    0    0  0.89329172594E+02  0.36963192283E+03  0.59590634405E+03  0.70690299298E+03  0.10566000000E+00 0. -1.
         -4    1    3    3    0  502 -0.29419061668E+02 -0.50089693791E+03  0.63060072813E+02  0.50570722397E+03  0.00000000000E+00 0. -1.
        -13    1    1    2    0    0 -0.59910110926E+02  0.13126501508E+03  0.22255785037E+03  0.26523901202E+03  0.10566000000E+00 0.  1.
<mgrwt>
<rscale>  1 0.62459525E+03</rscale>
<asrwt>0</asrwt>
<pdfrwt beam="2">  1       21 0.45871151E-01 0.10179326E+04</pdfrwt>
<pdfrwt beam="1">  1       -4 0.18149027E+00 0.10179326E+04</pdfrwt>
<totfact> 0.31709474E+01</totfact>
</mgrwt>
</event>
<event>
 6    2  0.2345636E-005  0.1071649E+04  0.7818608E-02  0.9506969E-01
         21   -1    0    0  501  502  0.00000000000E+00  0.00000000000E+00  0.47206262558E+03  0.47206262558E+03  0.00000000000E+00 0. -1.
         -4   -1    0    0    0  501 -0.00000000000E+00 -0.00000000000E+00 -0.11967847195E+04  0.11967847195E+04  0.00000000000E+00 0. -1.
   -9000010    2    1    2    0  502  0.27226051367E+03 -0.29326623665E+03 -0.36890034568E+03  0.11333662525E+04  0.99413315220E+03 0.  0.
         13    1    3    3    0    0  0.28828114410E+03  0.14524321524E+03  0.22606415146E+03  0.39408961083E+03  0.10566000000E+00 0. -1.
         -4    1    3    3    0  502 -0.16020630439E+02 -0.43850945189E+03 -0.59496449715E+03  0.73927664163E+03  0.00000000000E+00 0. -1.
        -13    1    1    2    0    0 -0.27226051367E+03  0.29326623665E+03 -0.35582174818E+03  0.53548109257E+03  0.10566000000E+00 0.  1.
<mgrwt>
<rscale>  1 0.83771986E+03</rscale>
<asrwt>0</asrwt>
<pdfrwt beam="1">  1       21 0.72625019E-01 0.10716490E+04</pdfrwt>
<pdfrwt beam="2">  1       -4 0.18412073E+00 0.10716490E+04</pdfrwt>
<totfact> 0.10916690E+01</totfact>
</mgrwt>
</event>
<event>
 6    2  0.2345636E-005  0.1075764E+04  0.7818608E-02  0.9479485E-01
         -4   -1    0    0    0  501 -0.00000000000E+00  0.00000000000E+00  0.57623168150E+03  0.57623168150E+03  0.00000000000E+00 0. -1.
         21   -1    0    0  501  502  0.00000000000E+00 -0.00000000000E+00 -0.10734472825E+04  0.10734472825E+04  0.00000000000E+00 0. -1.
   -9000010    2    1    2    0  502 -0.26309697036E+03  0.34714545280E+03 -0.55464274719E+03  0.12103295934E+04  0.98363568784E+03 0.  0.
         13    1    3    3    0    0 -0.61586037294E+03  0.15179503499E+03 -0.17859932019E+03  0.65895634146E+03  0.10566000000E+00 0. -1.
         -4    1    3    3    0  502  0.35276340259E+03  0.19535041781E+03 -0.37604342700E+03  0.55137325192E+03  0.00000000000E+00 0. -1.
        -13    1    1    2    0    0  0.26309697036E+03 -0.34714545280E+03  0.57427146155E+02  0.43934937065E+03  0.10566000000E+00 0.  1.
<mgrwt>
<rscale>  1 0.85813357E+03</rscale>
<asrwt>0</asrwt>
<pdfrwt beam="2">  1       21 0.16514574E+00 0.10757644E+04</pdfrwt>
<pdfrwt beam="1">  1       -4 0.88651028E-01 0.10757644E+04</pdfrwt>
<totfact> 0.88286041E+00</totfact>
</mgrwt>
</event>
<event>
 6    2  0.2345636E-005  0.9930808E+03  0.7818608E-02  0.1000253E+00
         21   -1    0    0  501  502  0.00000000000E+00  0.00000000000E+00  0.68924904107E+03  0.68924904107E+03  0.00000000000E+00 0. -1.
         -4   -1    0    0    0  501 -0.00000000000E+00 -0.00000000000E+00 -0.54557738589E+03  0.54557738589E+03  0.00000000000E+00 0. -1.
   -9000010    2    1    2    0  502  0.95485377733E+02  0.17911727371E+02  0.31160149499E+03  0.10408193920E+04  0.98831737202E+03 0.  0.
         13    1    3    3    0    0  0.30330736103E+03 -0.41315741630E+03  0.12818705314E+03  0.52832408392E+03  0.10566000000E+00 0. -1.
         -4    1    3    3    0  502 -0.20782198330E+03  0.43106914367E+03  0.18341444185E+03  0.51249530812E+03  0.00000000000E+00 0. -1.
        -13    1    1    2    0    0 -0.95485377733E+02 -0.17911727371E+02 -0.16792983980E+03  0.19400703492E+03  0.10566000000E+00 0.  1.
<mgrwt>
<rscale>  1 0.55539269E+03</rscale>
<asrwt>0</asrwt>
<pdfrwt beam="1">  1       21 0.10603831E+00 0.99308082E+03</pdfrwt>
<pdfrwt beam="2">  1       -4 0.83934983E-01 0.99308082E+03</pdfrwt>
<totfact> 0.33233504E+01</totfact>
</mgrwt>
</event>
<event>
 6    2  0.2345636E-005  0.1002986E+04  0.7818608E-02  0.9968774E-01
         21   -1    0    0  501  502  0.00000000000E+00  0.00000000000E+00  0.10214070019E+04  0.10214070019E+04  0.00000000000E+00 0. -1.
         -4   -1    0    0    0  501 -0.00000000000E+00 -0.00000000000E+00 -0.30299083182E+03  0.30299083182E+03  0.00000000000E+00 0. -1.
   -9000010    2    1    2    0  502  0.10334892844E+03  0.18091445075E+02  0.61200516830E+03  0.11749601750E+04  0.99748322558E+03 0.  0.
         13    1    3    3    0    0  0.29969098724E+03  0.29961439196E+02  0.82903863820E+03  0.88205297486E+03  0.10566000000E+00 0. -1.
         -4    1    3    3    0  502 -0.19634205880E+03 -0.11869994121E+02 -0.21703346990E+03  0.29290720010E+03  0.00000000000E+00 0. -1.
        -13    1    1    2    0    0 -0.10334892844E+03 -0.18091445075E+02  0.10641100178E+03  0.14943765876E+03  0.10566000000E+00 0.  1.
<mgrwt>
<rscale>  1 0.57040895E+03</rscale>
<asrwt>0</asrwt>
<pdfrwt beam="1">  1       21 0.15713954E+00 0.10029861E+04</pdfrwt>
<pdfrwt beam="2">  1       -4 0.46613975E-01 0.10029861E+04</pdfrwt>
<totfact> 0.42484771E+01</totfact>
</mgrwt>
</event>
<event>
 6    2  0.2345636E-005  0.1156910E+04  0.7818608E-02  0.9376212E-01
         -4   -1    0    0    0  501 -0.00000000000E+00  0.00000000000E+00  0.19645141046E+04  0.19645141046E+04  0.00000000000E+00 0. -1.
         21   -1    0    0  501  502  0.00000000000E+00 -0.00000000000E+00 -0.67976448834E+03  0.67976448834E+03  0.00000000000E+00 0. -1.
   -9000010    2    1    2    0  502 -0.48016124810E+03  0.15799983248E+03 -0.10867174843E+03  0.11620026800E+04  0.10406353388E+04 0.  0.
         13    1    3    3    0    0  0.18035450753E+03 -0.25900963190E+03 -0.20288711597E+03  0.37520251971E+03  0.10566000000E+00 0. -1.
         -4    1    3    3    0  502 -0.66051575563E+03  0.41700946438E+03  0.94215367546E+02  0.78680016033E+03  0.00000000000E+00 0. -1.
        -13    1    1    2    0    0  0.48016124810E+03 -0.15799983248E+03  0.13934213646E+04  0.14822759129E+04  0.10566000000E+00 0.  1.
<mgrwt>
<rscale>  1 0.94059470E+03</rscale>
<asrwt>0</asrwt>
<pdfrwt beam="2">  1       21 0.10457915E+00 0.11569100E+04</pdfrwt>
<pdfrwt beam="1">  1       -4 0.30223294E+00 0.11569100E+04</pdfrwt>
<totfact> 0.79961049E-01</totfact>
</mgrwt>
</event>
<event>
 6    2  0.2345636E-005  0.1175076E+04  0.7818608E-02  0.9316283E-01
         -4   -1    0    0    0  501 -0.00000000000E+00  0.00000000000E+00  0.22477240629E+04  0.22477240629E+04  0.00000000000E+00 0. -1.
         21   -1    0    0  501  502  0.00000000000E+00 -0.00000000000E+00 -0.49174276463E+03  0.49174276463E+03  0.00000000000E+00 0. -1.
   -9000010    2    1    2    0  502  0.56118831313E+03 -0.20996107700E+03  0.37395803456E+03  0.12331453847E+04  0.10108347795E+04 0.  0.
         13    1    3    3    0    0  0.36379106587E+03 -0.15918188599E+03  0.72534246492E+03  0.82692473358E+03  0.10566000000E+00 0. -1.
         -4    1    3    3    0  502  0.19739724726E+03 -0.50779191010E+02 -0.35138443036E+03  0.40622065108E+03  0.00000000000E+00 0. -1.
        -13    1    1    2    0    0 -0.56118831313E+03  0.20996107700E+03  0.13820232637E+04  0.15063214429E+04  0.10566000000E+00 0.  1.
<mgrwt>
<rscale>  1 0.99297568E+03</rscale>
<asrwt>0</asrwt>
<pdfrwt beam="2">  1       21 0.75652734E-01 0.11750757E+04</pdfrwt>
<pdfrwt beam="1">  1       -4 0.34580370E+00 0.11750757E+04</pdfrwt>
<totfact> 0.92472975E-01</totfact>
</mgrwt>
</event>
<event>
 6    2  0.2345636E-005  0.1068124E+04  0.7818608E-02  0.9577834E-01
         -4   -1    0    0    0  501 -0.00000000000E+00  0.00000000000E+00  0.45211812100E+03  0.45211812100E+03  0.00000000000E+00 0. -1.
         21   -1    0    0  501  502  0.00000000000E+00 -0.00000000000E+00 -0.11430709424E+04  0.11430709424E+04  0.00000000000E+00 0. -1.
   -9000010    2    1    2    0  502 -0.25957178933E+03 -0.18038291134E+03 -0.70326534860E+03  0.12788551923E+04  0.10202808162E+04 0.  0.
         13    1    3    3    0    0 -0.61146123929E+03 -0.31656177778E+03 -0.41413269717E+03  0.80349368904E+03  0.10566000000E+00 0. -1.
         -4    1    3    3    0  502  0.35188944996E+03  0.13617886644E+03 -0.28913265143E+03  0.47536150326E+03  0.00000000000E+00 0. -1.
        -13    1    1    2    0    0  0.25957178933E+03  0.18038291134E+03  0.12312527193E+02  0.31633387110E+03  0.10566000000E+00 0.  1.
<mgrwt>
<rscale>  1 0.78780787E+03</rscale>
<asrwt>0</asrwt>
<pdfrwt beam="2">  1       21 0.17585707E+00 0.10681238E+04</pdfrwt>
<pdfrwt beam="1">  1       -4 0.69556634E-01 0.10681238E+04</pdfrwt>
<totfact> 0.12810098E+01</totfact>
</mgrwt>
</event>
<event>
 6    2  0.2345636E-005  0.9862450E+03  0.7818608E-02  0.1003746E+00
         -4   -1    0    0    0  501 -0.00000000000E+00  0.00000000000E+00  0.22812550844E+03  0.22812550844E+03  0.00000000000E+00 0. -1.
         21   -1    0    0  501  502  0.00000000000E+00 -0.00000000000E+00 -0.13034715923E+04  0.13034715923E+04  0.00000000000E+00 0. -1.
   -9000010    2    1    2    0  502  0.52368160112E+02 -0.71822019272E+02 -0.10468512332E+04  0.14382547506E+04  0.98223133562E+03 0.  0.
         13    1    3    3    0    0 -0.38431332404E+03  0.23628486413E+03 -0.50566141670E+03  0.67765828229E+03  0.10566000000E+00 0. -1.
         -4    1    3    3    0  502  0.43668148415E+03 -0.30810688340E+03 -0.54118981647E+03  0.76059646834E+03  0.00000000000E+00 0. -1.
        -13    1    1    2    0    0 -0.52368160112E+02  0.71822019272E+02 -0.28494850694E+02  0.93342350120E+02  0.10566000000E+00 0.  1.
<mgrwt>
<rscale>  1 0.54037812E+03</rscale>
<asrwt>0</asrwt>
<pdfrwt beam="2">  1       21 0.20053409E+00 0.98624501E+03</pdfrwt>
<pdfrwt beam="1">  1       -4 0.35096232E-01 0.98624501E+03</pdfrwt>
<totfact> 0.36628640E+01</totfact>
</mgrwt>
</event>
<event>
 6    2  0.2345636E-005  0.1164229E+04  0.7818608E-02  0.9322649E-01
         -4   -1    0    0    0  501 -0.00000000000E+00  0.00000000000E+00  0.10278202255E+04  0.10278202255E+04  0.00000000000E+00 0. -1.
         21   -1    0    0  501  502  0.00000000000E+00 -0.00000000000E+00 -0.10926310234E+04  0.10926310234E+04  0.00000000000E+00 0. -1.
   -9000010    2    1    2    0  502 -0.42730455191E+03 -0.42401431627E+03 -0.60464074684E+03  0.13118761408E+04  0.99651957105E+03 0.  0.
         13    1    3    3    0    0 -0.23493373342E+03 -0.73979175647E+03 -0.29773998118E+03  0.83134518078E+03  0.10566000000E+00 0. -1.
         -4    1    3    3    0  502 -0.19237081849E+03  0.31577744020E+03 -0.30690076566E+03  0.48053095999E+03  0.00000000000E+00 0. -1.
        -13    1    1    2    0    0  0.42730455191E+03  0.42401431627E+03  0.53982994900E+03  0.80857510813E+03  0.10566000000E+00 0.  1.
<mgrwt>
<rscale>  1 0.98724255E+03</rscale>
<asrwt>0</asrwt>
<pdfrwt beam="2">  1       21 0.16809708E+00 0.11642287E+04</pdfrwt>
<pdfrwt beam="1">  1       -4 0.15812619E+00 0.11642287E+04</pdfrwt>
<totfact> 0.19244633E+00</totfact>
</mgrwt>
</event>
<event>
 6    2  0.2345636E-005  0.1014161E+04  0.7818608E-02  0.9860645E-01
         -4   -1    0    0    0  501 -0.00000000000E+00  0.00000000000E+00  0.35206860540E+03  0.35206860540E+03  0.00000000000E+00 0. -1.
         21   -1    0    0  501  502  0.00000000000E+00 -0.00000000000E+00 -0.10190973927E+04  0.10190973927E+04  0.00000000000E+00 0. -1.
   -9000010    2    1    2    0  502  0.13347232085E+03  0.52868895485E+02 -0.68880978821E+03  0.12259613022E+04  0.10039483102E+04 0.  0.
         13    1    3    3    0    0  0.73792717136E+02  0.41933334591E+03  0.19513881192E+02  0.42622367698E+03  0.10566000000E+00 0. -1.
         -4    1    3    3    0  502  0.59679603717E+02 -0.36646445043E+03 -0.70832366940E+03  0.79973762520E+03  0.00000000000E+00 0. -1.
        -13    1    1    2    0    0 -0.13347232085E+03 -0.52868895485E+02  0.21781000933E+02  0.14520469589E+03  0.10566000000E+00 0.  1.
<mgrwt>
<rscale>  1 0.62207085E+03</rscale>
<asrwt>0</asrwt>
<pdfrwt beam="2">  1       21 0.15678421E+00 0.10141608E+04</pdfrwt>
<pdfrwt beam="1">  1       -4 0.54164401E-01 0.10141608E+04</pdfrwt>
<totfact> 0.31099527E+01</totfact>
</mgrwt>
</event>
<event>
 6    2  0.2345636E-005  0.8715729E+03  0.7818608E-02  0.9705039E-01
         21   -1    0    0  501  502  0.00000000000E+00  0.00000000000E+00  0.34868907354E+03  0.34868907354E+03  0.00000000000E+00 0. -1.
         -4   -1    0    0    0  501 -0.00000000000E+00 -0.00000000000E+00 -0.11700898863E+04  0.11700898863E+04  0.00000000000E+00 0. -1.
   -9000010    2    1    2    0  502 -0.21482514156E+01  0.37773810344E+03 -0.41967692617E+03  0.96735101169E+03  0.78546073594E+03 0.  0.
         13    1    3    3    0    0  0.24999572070E+02  0.31548825380E+03  0.17983598923E+03  0.36400386135E+03  0.10566000000E+00 0. -1.
         -4    1    3    3    0  502 -0.27147823486E+02  0.62249849632E+02 -0.59951291540E+03  0.60334715034E+03  0.00000000000E+00 0. -1.
        -13    1    1    2    0    0  0.21482514156E+01 -0.37773810344E+03 -0.40172388659E+03  0.55142794814E+03  0.10566000000E+00 0.  1.
<mgrwt>
<rscale>  1 0.70717555E+03</rscale>
<asrwt>0</asrwt>
<pdfrwt beam="1">  1       21 0.53644473E-01 0.87157286E+03</pdfrwt>
<pdfrwt beam="2">  1       -4 0.18001383E+00 0.87157286E+03</pdfrwt>
<totfact> 0.23503295E+01</totfact>
</mgrwt>
</event>
<event>
 6    2  0.2345636E-005  0.1004745E+04  0.7818608E-02  0.9841630E-01
         -4   -1    0    0    0  501 -0.00000000000E+00  0.00000000000E+00  0.79075641997E+03  0.79075641997E+03  0.00000000000E+00 0. -1.
         21   -1    0    0  501  502  0.00000000000E+00 -0.00000000000E+00 -0.95861453866E+03  0.95861453866E+03  0.00000000000E+00 0. -1.
   -9000010    2    1    2    0  502 -0.20448895343E+02 -0.15570931028E+03 -0.68030805801E+03  0.12133966140E+04  0.99239545669E+03 0.  0.
         13    1    3    3    0    0 -0.41929807307E+03 -0.20726933134E+03 -0.66232033407E+03  0.81082654488E+03  0.10566000000E+00 0. -1.
         -4    1    3    3    0  502  0.39884917772E+03  0.51560021057E+02 -0.17987723939E+02  0.40257006912E+03  0.00000000000E+00 0. -1.
        -13    1    1    2    0    0  0.20448895343E+02  0.15570931028E+03  0.51244993932E+03  0.53597434463E+03  0.10566000000E+00 0.  1.
<mgrwt>
<rscale>  1 0.63175519E+03</rscale>
<asrwt>0</asrwt>
<pdfrwt beam="2">  1       21 0.14747916E+00 0.10047449E+04</pdfrwt>
<pdfrwt beam="1">  1       -4 0.12165483E+00 0.10047449E+04</pdfrwt>
<totfact> 0.56829641E+00</totfact>
</mgrwt>
</event>
<event>
 6    2  0.2345636E-005  0.1002311E+04  0.7818608E-02  0.1000158E+00
         21   -1    0    0  501  502  0.00000000000E+00  0.00000000000E+00  0.62088087382E+03  0.62088087382E+03  0.00000000000E+00 0. -1.
         -4   -1    0    0    0  501 -0.00000000000E+00 -0.00000000000E+00 -0.56393668313E+03  0.56393668313E+03  0.00000000000E+00 0. -1.
   -9000010    2    1    2    0  502 -0.74143628250E+02 -0.59035621537E+02  0.19129430251E+03  0.10204020895E+04  0.99781983941E+03 0.  0.
         13    1    3    3    0    0 -0.53688757102E+02  0.33256100373E+03  0.44143090425E+03  0.55528421392E+03  0.10566000000E+00 0. -1.
         -4    1    3    3    0  502 -0.20454871148E+02 -0.39159662526E+03 -0.25013660175E+03  0.46511787560E+03  0.00000000000E+00 0. -1.
        -13    1    1    2    0    0  0.74143628250E+02  0.59035621537E+02 -0.13435011182E+03  0.16441546743E+03  0.10566000000E+00 0.  1.
<mgrwt>
<rscale>  1 0.55581008E+03</rscale>
<asrwt>0</asrwt>
<pdfrwt beam="1">  1       21 0.95520135E-01 0.10023108E+04</pdfrwt>
<pdfrwt beam="2">  1       -4 0.86759489E-01 0.10023108E+04</pdfrwt>
<totfact> 0.39852460E+01</totfact>
</mgrwt>
</event>
<event>
 6    2  0.2345636E-005  0.1115380E+04  0.7818608E-02  0.9400271E-01
         21   -1    0    0  501  502  0.00000000000E+00  0.00000000000E+00  0.11159913820E+04  0.11159913820E+04  0.00000000000E+00 0. -1.
         -4   -1    0    0    0  501 -0.00000000000E+00 -0.00000000000E+00 -0.61671524812E+03  0.61671524812E+03  0.00000000000E+00 0. -1.
   -9000010    2    1    2    0  502 -0.41979109673E+03 -0.30258396200E+03  0.48164711571E+03  0.12149302185E+04  0.98807381952E+03 0.  0.
         13    1    3    3    0    0 -0.61644645164E+02 -0.62024726996E+03  0.36458061365E+03  0.72209817420E+03  0.10566000000E+00 0. -1.
         -4    1    3    3    0  502 -0.35814645157E+03  0.31766330796E+03  0.11706650206E+03  0.49283204431E+03  0.00000000000E+00 0. -1.
        -13    1    1    2    0    0  0.41979109673E+03  0.30258396200E+03  0.17629018151E+02  0.51777641159E+03  0.10566000000E+00 0.  1.
<mgrwt>
<rscale>  1 0.92053350E+03</rscale>
<asrwt>0</asrwt>
<pdfrwt beam="1">  1       21 0.17169098E+00 0.11153795E+04</pdfrwt>
<pdfrwt beam="2">  1       -4 0.94879269E-01 0.11153795E+04</pdfrwt>
<totfact> 0.66795946E+00</totfact>
</mgrwt>
</event>
<event>
 6    2  0.2345636E-005  0.9931063E+03  0.7818608E-02  0.1011975E+00
         21   -1    0    0  501  502  0.00000000000E+00  0.00000000000E+00  0.27200837127E+03  0.27200837127E+03  0.00000000000E+00 0. -1.
         -4   -1    0    0    0  501 -0.00000000000E+00 -0.00000000000E+00 -0.10750384357E+04  0.10750384357E+04  0.00000000000E+00 0. -1.
   -9000010    2    1    2    0  502 -0.15839371006E+02  0.65558462257E+02 -0.67025618036E+03  0.11981249714E+04  0.99081345478E+03 0.  0.
         13    1    3    3    0    0  0.15600967509E+03 -0.42762420706E+03 -0.41853118652E+03  0.61836061197E+03  0.10566000000E+00 0. -1.
         -4    1    3    3    0  502 -0.17184904610E+03  0.49318266932E+03 -0.25172499384E+03  0.57976435944E+03  0.00000000000E+00 0. -1.
        -13    1    1    2    0    0  0.15839371006E+02 -0.65558462257E+02 -0.13277388412E+03  0.14892183559E+03  0.10566000000E+00 0.  1.
<mgrwt>
<rscale>  1 0.50697204E+03</rscale>
<asrwt>0</asrwt>
<pdfrwt beam="1">  1       21 0.41847443E-01 0.99310629E+03</pdfrwt>
<pdfrwt beam="2">  1       -4 0.16539052E+00 0.99310629E+03</pdfrwt>
<totfact> 0.50277995E+01</totfact>
</mgrwt>
</event>
<event>
 6    2  0.2345636E-005  0.9958291E+03  0.7818608E-02  0.9766603E-01
         21   -1    0    0  501  502  0.00000000000E+00  0.00000000000E+00  0.89491156314E+03  0.89491156314E+03  0.00000000000E+00 0. -1.
         -4   -1    0    0    0  501 -0.00000000000E+00 -0.00000000000E+00 -0.53933460568E+03  0.53933460568E+03  0.00000000000E+00 0. -1.
   -9000010    2    1    2    0  502 -0.20477461311E+03 -0.25285592577E+02  0.56109617881E+03  0.11430243206E+04  0.97421951955E+03 0.  0.
         13    1    3    3    0    0 -0.40415144943E+03  0.31778084660E+03  0.81468040047E+02  0.52053829182E+03  0.10566000000E+00 0. -1.
         -4    1    3    3    0  502  0.19937683632E+03 -0.34306643918E+03  0.47962813876E+03  0.62248602879E+03  0.00000000000E+00 0. -1.
        -13    1    1    2    0    0  0.20477461311E+03  0.25285592577E+02 -0.20551922134E+03  0.29122184821E+03  0.10566000000E+00 0.  1.
<mgrwt>
<rscale>  1 0.67186056E+03</rscale>
<asrwt>0</asrwt>
<pdfrwt beam="1">  1       21 0.13767870E+00 0.99582914E+03</pdfrwt>
<pdfrwt beam="2">  1       -4 0.82974555E-01 0.99582914E+03</pdfrwt>
<totfact> 0.17300256E+01</totfact>
</mgrwt>
</event>
<event>
 6    2  0.2345636E-005  0.1122697E+04  0.7818608E-02  0.9384550E-01
         -4   -1    0    0    0  501 -0.00000000000E+00  0.00000000000E+00  0.67327358812E+03  0.67327358812E+03  0.00000000000E+00 0. -1.
         21   -1    0    0  501  502  0.00000000000E+00 -0.00000000000E+00 -0.10824303163E+04  0.10824303163E+04  0.00000000000E+00 0.  1.
   -9000010    2    1    2    0  502 -0.48563835208E+03  0.22873832365E+03 -0.78961331339E+02  0.11254699471E+04  0.98604354885E+03 0.  0.
         13    1    3    3    0    0  0.14864442622E+03 -0.16236951067E+03 -0.27758912412E+03  0.35428061820E+03  0.10566000000E+00 0. -1.
         -4    1    3    3    0  502 -0.63428277831E+03  0.39110783432E+03  0.19862779278E+03  0.77118932888E+03  0.00000000000E+00 0. -1.
        -13    1    1    2    0    0  0.48563835208E+03 -0.22873832365E+03 -0.33019539684E+03  0.63023395734E+03  0.10566000000E+00 0.  1.
<mgrwt>
<rscale>  1 0.93358138E+03</rscale>
<asrwt>0</asrwt>
<pdfrwt beam="2">  1       21 0.16652774E+00 0.11226966E+04</pdfrwt>
<pdfrwt beam="1">  1       -4 0.10358055E+00 0.11226966E+04</pdfrwt>
<totfact> 0.59065813E+00</totfact>
</mgrwt>
</event>
<event>
 6    2  0.2345636E-005  0.1058301E+04  0.7818608E-02  0.9826953E-01
         -4   -1    0    0    0  501 -0.00000000000E+00  0.00000000000E+00  0.15119134003E+04  0.15119134003E+04  0.00000000000E+00 0. -1.
         21   -1    0    0  501  502  0.00000000000E+00 -0.00000000000E+00 -0.29061429063E+03  0.29061429063E+03  0.00000000000E+00 0. -1.
   -9000010    2    1    2    0  502  0.11893883344E+03  0.75686166205E+02  0.71556366222E+03  0.12775103619E+04  0.10488691664E+04 0.  0.
         13    1    3    3    0    0 -0.22890895220E+03 -0.32304816727E+03  0.62621600502E+03  0.74088185488E+03  0.10566000000E+00 0. -1.
         -4    1    3    3    0  502  0.34784778564E+03  0.39873433348E+03  0.89347657198E+02  0.53662850699E+03  0.00000000000E+00 0. -1.
        -13    1    1    2    0    0 -0.11893883344E+03 -0.75686166205E+02  0.50573544742E+03  0.52501732904E+03  0.10566000000E+00 0.  1.
<mgrwt>
<rscale>  1 0.63935924E+03</rscale>
<asrwt>0</asrwt>
<pdfrwt beam="2">  1       21 0.44709892E-01 0.10583012E+04</pdfrwt>
<pdfrwt beam="1">  1       -4 0.23260206E+00 0.10583012E+04</pdfrwt>
<totfact> 0.15417750E+01</totfact>
</mgrwt>
</event>
<event>
 6    2  0.2345636E-005  0.1273704E+04  0.7818608E-02  0.9174236E-01
         -4   -1    0    0    0  501 -0.00000000000E+00  0.00000000000E+00  0.23186420562E+04  0.23186420562E+04  0.00000000000E+00 0. -1.
         21   -1    0    0  501  502  0.00000000000E+00 -0.00000000000E+00 -0.46720208112E+03  0.46720208112E+03  0.00000000000E+00 0.  1.
   -9000010    2    1    2    0  502  0.62327971864E+03  0.49447218124E+03  0.98989536128E+03  0.16131380879E+04  0.99465638215E+03 0.  0.
         13    1    3    3    0    0  0.51864664244E+03  0.16840880100E+03 -0.21110646142E+02  0.54571195196E+03  0.10566000000E+00 0. -1.
         -4    1    3    3    0  502  0.10463307620E+03  0.32606338024E+03  0.10110060074E+04  0.10674261359E+04  0.00000000000E+00 0. -1.
        -13    1    1    2    0    0 -0.62327971864E+03 -0.49447218124E+03  0.86154461378E+03  0.11727060494E+04  0.10566000000E+00 0.  1.
<mgrwt>
<rscale>  1 0.11323355E+04</rscale>
<asrwt>0</asrwt>
<pdfrwt beam="2">  1       21 0.71877245E-01 0.12737039E+04</pdfrwt>
<pdfrwt beam="1">  1       -4 0.35671415E+00 0.12737039E+04</pdfrwt>
<totfact> 0.87162125E-01</totfact>
</mgrwt>
</event>
<event>
 6    2  0.2345636E-005  0.1022217E+04  0.7818608E-02  0.9688619E-01
         -4   -1    0    0    0  501 -0.00000000000E+00  0.00000000000E+00  0.59550123516E+03  0.59550123516E+03  0.00000000000E+00 0. -1.
         21   -1    0    0  501  502  0.00000000000E+00 -0.00000000000E+00 -0.76856177795E+03  0.76856177795E+03  0.00000000000E+00 0. -1.
   -9000010    2    1    2    0  502  0.19536372995E+03 -0.15179771840E+03 -0.32631392135E+03  0.10730369945E+04  0.99182563086E+03 0.  0.
         13    1    3    3    0    0  0.57285616829E+03 -0.11141105088E+03 -0.17832596514E+02  0.58386181967E+03  0.10566000000E+00 0. -1.
         -4    1    3    3    0  502 -0.37749243834E+03 -0.40386667521E+02 -0.30848132484E+03  0.48917517485E+03  0.00000000000E+00 0. -1.
        -13    1    1    2    0    0 -0.19536372995E+03  0.15179771840E+03  0.15325337856E+03  0.29102601859E+03  0.10566000000E+00 0.  1.
<mgrwt>
<rscale>  1 0.71698443E+03</rscale>
<asrwt>0</asrwt>
<pdfrwt beam="2">  1       21 0.11824027E+00 0.10222170E+04</pdfrwt>
<pdfrwt beam="1">  1       -4 0.91615575E-01 0.10222170E+04</pdfrwt>
<totfact> 0.20469352E+01</totfact>
</mgrwt>
</event>
<event>
 6    2  0.2345636E-005  0.1057995E+04  0.7818608E-02  0.9529509E-01
         -4   -1    0    0    0  501 -0.00000000000E+00  0.00000000000E+00  0.10488468347E+04  0.10488468347E+04  0.00000000000E+00 0. -1.
         21   -1    0    0  501  502  0.00000000000E+00 -0.00000000000E+00 -0.50026249590E+03  0.50026249590E+03  0.00000000000E+00 0. -1.
   -9000010    2    1    2    0  502 -0.27712208273E+03  0.26645090766E+03  0.33744273219E+03  0.11105052676E+04  0.98567825219E+03 0.  0.
         13    1    3    3    0    0  0.82420425941E+01  0.29274572126E+03  0.63383836662E+03  0.69822566176E+03  0.10566000000E+00 0. -1.
         -4    1    3    3    0  502 -0.28536412533E+03 -0.26294813605E+02 -0.29639563443E+03  0.41227960579E+03  0.00000000000E+00 0. -1.
        -13    1    1    2    0    0  0.27712208273E+03 -0.26645090766E+03  0.21114160666E+03  0.43860406309E+03  0.10566000000E+00 0.  1.
<mgrwt>
<rscale>  1 0.82142797E+03</rscale>
<asrwt>0</asrwt>
<pdfrwt beam="2">  1       21 0.76963461E-01 0.10579954E+04</pdfrwt>
<pdfrwt beam="1">  1       -4 0.16136105E+00 0.10579954E+04</pdfrwt>
<totfact> 0.13899151E+01</totfact>
</mgrwt>
</event>
<event>
 6    2  0.2345636E-005  0.9846746E+03  0.7818608E-02  0.9884022E-01
         -4   -1    0    0    0  501 -0.00000000000E+00  0.00000000000E+00  0.39760756904E+03  0.39760756904E+03  0.00000000000E+00 0. -1.
         21   -1    0    0  501  502  0.00000000000E+00 -0.00000000000E+00 -0.93773826212E+03  0.93773826212E+03  0.00000000000E+00 0. -1.
   -9000010    2    1    2    0  502  0.13956363906E+03 -0.40864979205E+02 -0.62566147744E+03  0.11666345923E+04  0.97387680523E+03 0.  0.
         13    1    3    3    0    0  0.34625226148E+03 -0.42389053059E+03 -0.38626018914E+03  0.66990354185E+03  0.10566000000E+00 0. -1.
         -4    1    3    3    0  502 -0.20668862242E+03  0.38302555139E+03 -0.23940128830E+03  0.49673105047E+03  0.00000000000E+00 0. -1.
        -13    1    1    2    0    0 -0.13956363906E+03  0.40864979205E+02  0.85530784368E+02  0.16871123884E+03  0.10566000000E+00 0.  1.
<mgrwt>
<rscale>  1 0.61041910E+03</rscale>
<asrwt>0</asrwt>
<pdfrwt beam="2">  1       21 0.14426743E+00 0.98467456E+03</pdfrwt>
<pdfrwt beam="1">  1       -4 0.61170395E-01 0.98467456E+03</pdfrwt>
<totfact> 0.30245752E+01</totfact>
</mgrwt>
</event>
<event>
 6    2  0.2345636E-005  0.1201807E+04  0.7818608E-02  0.9261954E-01
         21   -1    0    0  501  502  0.00000000000E+00  0.00000000000E+00  0.36205511763E+03  0.36205511763E+03  0.00000000000E+00 0.  1.
         -4   -1    0    0    0  501 -0.00000000000E+00 -0.00000000000E+00 -0.25701614142E+04  0.25701614142E+04  0.00000000000E+00 0. -1.
   -9000010    2    1    2    0  502 -0.47626049253E+03  0.49009765736E+03 -0.16941384974E+04  0.20771243261E+04  0.98859518879E+03 0.  0.
         13    1    3    3    0    0 -0.54720364601E+03  0.10977278899E+03 -0.15770763034E+04  0.16729170850E+04  0.10566000000E+00 0. -1.
         -4    1    3    3    0  502  0.70943153479E+02  0.38032486837E+03 -0.11706219405E+03  0.40420724115E+03  0.00000000000E+00 0. -1.
        -13    1    1    2    0    0  0.47626049253E+03 -0.49009765736E+03 -0.51396779914E+03  0.85509220568E+03  0.10566000000E+00 0.  1.
<mgrwt>
<rscale>  1 0.10436215E+04</rscale>
<asrwt>0</asrwt>
<pdfrwt beam="1">  1       21 0.55700786E-01 0.12018071E+04</pdfrwt>
<pdfrwt beam="2">  1       -4 0.39540946E+00 0.12018071E+04</pdfrwt>
<totfact> 0.86080932E-01</totfact>
</mgrwt>
</event>
<event>
 6    2  0.2345636E-005  0.1000658E+04  0.7818608E-02  0.9953226E-01
         21   -1    0    0  501  502  0.00000000000E+00  0.00000000000E+00  0.28271692387E+03  0.28271692387E+03  0.00000000000E+00 0. -1.
         -4   -1    0    0    0  501 -0.00000000000E+00 -0.00000000000E+00 -0.12510109540E+04  0.12510109540E+04  0.00000000000E+00 0. -1.
   -9000010    2    1    2    0  502  0.81852149895E+02  0.74981321200E+02 -0.64158209474E+03  0.11886732839E+04  0.99448208555E+03 0.  0.
         13    1    3    3    0    0 -0.18739887010E+03  0.32523268252E+03 -0.72076887552E+03  0.81265147350E+03  0.10566000000E+00 0. -1.
         -4    1    3    3    0  502  0.26925102000E+03 -0.25025136132E+03  0.79186780780E+02  0.37602181035E+03  0.00000000000E+00 0. -1.
        -13    1    1    2    0    0 -0.81852149895E+02 -0.74981321200E+02 -0.32671193541E+03  0.34505459404E+03  0.10566000000E+00 0.  1.
<mgrwt>
<rscale>  1 0.57749651E+03</rscale>
<asrwt>0</asrwt>
<pdfrwt beam="1">  1       21 0.43494911E-01 0.10006581E+04</pdfrwt>
<pdfrwt beam="2">  1       -4 0.19246322E+00 0.10006581E+04</pdfrwt>
<totfact> 0.29923597E+01</totfact>
</mgrwt>
</event>
<event>
 6    2  0.2345636E-005  0.1000437E+04  0.7818608E-02  0.9914759E-01
         21   -1    0    0  501  502  0.00000000000E+00  0.00000000000E+00  0.97855149150E+03  0.97855149150E+03  0.00000000000E+00 0. -1.
         -4   -1    0    0    0  501 -0.00000000000E+00 -0.00000000000E+00 -0.40229060840E+03  0.40229060840E+03  0.00000000000E+00 0. -1.
   -9000010    2    1    2    0  502 -0.12246292921E+03 -0.27902986550E+02  0.68682574441E+03  0.12135090625E+04  0.99252148383E+03 0.  0.
         13    1    3    3    0    0 -0.68323528540E+02  0.48152675067E+03  0.29826462080E+03  0.57052424256E+03  0.10566000000E+00 0. -1.
         -4    1    3    3    0  502 -0.54139400668E+02 -0.50942973722E+03  0.38856112361E+03  0.64298481992E+03  0.00000000000E+00 0. -1.
        -13    1    1    2    0    0  0.12246292921E+03  0.27902986550E+02 -0.11056486131E+03  0.16733303741E+03  0.10566000000E+00 0.  1.
<mgrwt>
<rscale>  1 0.59551288E+03</rscale>
<asrwt>0</asrwt>
<pdfrwt beam="1">  1       21 0.15054638E+00 0.10004372E+04</pdfrwt>
<pdfrwt beam="2">  1       -4 0.61890863E-01 0.10004372E+04</pdfrwt>
<totfact> 0.26157022E+01</totfact>
</mgrwt>
</event>
<event>
 6    2  0.2345636E-005  0.1003264E+04  0.7818608E-02  0.1007708E+00
         -4   -1    0    0    0  501 -0.00000000000E+00  0.00000000000E+00  0.22460528890E+03  0.22460528890E+03  0.00000000000E+00 0. -1.
         21   -1    0    0  501  502  0.00000000000E+00 -0.00000000000E+00 -0.14699732418E+04  0.14699732418E+04  0.00000000000E+00 0. -1.
   -9000010    2    1    2    0  502  0.72557242347E+02 -0.17485088686E+02 -0.12677100108E+04  0.16166717887E+04  0.10004842423E+04 0.  0.
         13    1    3    3    0    0  0.21407304323E+03  0.33420178734E+03 -0.11548369519E+04  0.12211332847E+04  0.10566000000E+00 0. -1.
         -4    1    3    3    0  502 -0.14151580088E+03 -0.35168687602E+03 -0.11287305894E+03  0.39553850394E+03  0.00000000000E+00 0. -1.
        -13    1    1    2    0    0 -0.72557242347E+02  0.17485088686E+02  0.22342057877E+02  0.77906742055E+02  0.10566000000E+00 0.  1.
<mgrwt>
<rscale>  1 0.52395771E+03</rscale>
<asrwt>0</asrwt>
<pdfrwt beam="2">  1       21 0.22614973E+00 0.10032642E+04</pdfrwt>
<pdfrwt beam="1">  1       -4 0.34554660E-01 0.10032642E+04</pdfrwt>
<totfact> 0.25409791E+01</totfact>
</mgrwt>
</event>
<event>
 6    2  0.2345636E-005  0.9865381E+03  0.7818608E-02  0.9873760E-01
         21   -1    0    0  501  502  0.00000000000E+00  0.00000000000E+00  0.17545067467E+03  0.17545067467E+03  0.00000000000E+00 0. -1.
         -4   -1    0    0    0  501 -0.00000000000E+00 -0.00000000000E+00 -0.21723526234E+04  0.21723526234E+04  0.00000000000E+00 0. -1.
   -9000010    2    1    2    0  502  0.10947934990E+03  0.10177072831E+03 -0.12831011154E+04  0.16185196427E+04  0.97514837447E+03 0.  0.
         13    1    3    3    0    0  0.46388397686E+03  0.25084890221E+03 -0.42180259148E+03  0.67530063903E+03  0.10566000000E+00 0. -1.
         -4    1    3    3    0  502 -0.35440462697E+03 -0.14907817390E+03 -0.86129852397E+03  0.94321900370E+03  0.00000000000E+00 0. -1.
        -13    1    1    2    0    0 -0.10947934990E+03 -0.10177072831E+03 -0.71380083331E+03  0.72928365537E+03  0.10566000000E+00 0.  1.
<mgrwt>
<rscale>  1 0.61550009E+03</rscale>
<asrwt>0</asrwt>
<pdfrwt beam="1">  1       21 0.26992410E-01 0.98653807E+03</pdfrwt>
<pdfrwt beam="2">  1       -4 0.33420812E+00 0.98653807E+03</pdfrwt>
<totfact> 0.10263170E+01</totfact>
</mgrwt>
</event>
<event>
 6    2  0.2345636E-005  0.1014458E+04  0.7818608E-02  0.9816325E-01
         -4   -1    0    0    0  501 -0.00000000000E+00  0.00000000000E+00  0.11299838135E+04  0.11299838135E+04  0.00000000000E+00 0. -1.
         21   -1    0    0  501  502  0.00000000000E+00 -0.00000000000E+00 -0.36338172395E+03  0.36338172395E+03  0.00000000000E+00 0. -1.
   -9000010    2    1    2    0  502  0.15821115984E+03 -0.49311434311E+02  0.39893972206E+03  0.10900814982E+04  0.10008308460E+04 0.  0.
         13    1    3    3    0    0 -0.37888936717E+03 -0.31518637524E+02  0.40113172016E+03  0.55268186613E+03  0.10566000000E+00 0. -1.
         -4    1    3    3    0  502  0.53710052701E+03 -0.17792796787E+02 -0.21919980998E+01  0.53739963211E+03  0.00000000000E+00 0. -1.
        -13    1    1    2    0    0 -0.15821115984E+03  0.49311434311E+02  0.36766236753E+03  0.40328403925E+03  0.10566000000E+00 0.  1.
<mgrwt>
<rscale>  1 0.64493779E+03</rscale>
<asrwt>0</asrwt>
<pdfrwt beam="2">  1       21 0.55904881E-01 0.10144579E+04</pdfrwt>
<pdfrwt beam="1">  1       -4 0.17384366E+00 0.10144579E+04</pdfrwt>
<totfact> 0.23383103E+01</totfact>
</mgrwt>
</event>
<event>
 6    2  0.2345636E-005  0.1007505E+04  0.7818608E-02  0.1003808E+00
         21   -1    0    0  501  502  0.00000000000E+00  0.00000000000E+00  0.98514620712E+03  0.98514620712E+03  0.00000000000E+00 0. -1.
         -4   -1    0    0    0  501 -0.00000000000E+00 -0.00000000000E+00 -0.36012952595E+03  0.36012952595E+03  0.00000000000E+00 0. -1.
   -9000010    2    1    2    0  502 -0.37516124875E+02  0.74277736797E+02  0.70514474027E+03  0.12297544847E+04  0.10040629194E+04 0.  0.
         13    1    3    3    0    0 -0.37566713409E+03  0.32829710339E+03  0.12948610124E+03  0.51543325980E+03  0.10566000000E+00 0. -1.
         -4    1    3    3    0  502  0.33815100922E+03 -0.25401936659E+03  0.57565863903E+03  0.71432122489E+03  0.00000000000E+00 0. -1.
        -13    1    1    2    0    0  0.37516124875E+02 -0.74277736797E+02 -0.80128059096E+02  0.11552124838E+03  0.10566000000E+00 0.  1.
<mgrwt>
<rscale>  1 0.54011379E+03</rscale>
<asrwt>0</asrwt>
<pdfrwt beam="1">  1       21 0.15156095E+00 0.10075053E+04</pdfrwt>
<pdfrwt beam="2">  1       -4 0.55404543E-01 0.10075053E+04</pdfrwt>
<totfact> 0.32613607E+01</totfact>
</mgrwt>
</event>
<event>
 6    2  0.2345636E-005  0.1004341E+04  0.7818608E-02  0.1006268E+00
         21   -1    0    0  501  502  0.00000000000E+00  0.00000000000E+00  0.11054317610E+04  0.11054317610E+04  0.00000000000E+00 0. -1.
         -4   -1    0    0    0  501 -0.00000000000E+00 -0.00000000000E+00 -0.26919817083E+03  0.26919817083E+03  0.00000000000E+00 0. -1.
   -9000010    2    1    2    0  502 -0.23103949435E+02  0.74288937357E+02  0.81651370136E+03  0.12943708272E+04  0.10013234119E+04 0.  0.
         13    1    3    3    0    0  0.14582465136E+03 -0.26242188523E+03 -0.89407232430E+02  0.31324708964E+03  0.10566000000E+00 0. -1.
         -4    1    3    3    0  502 -0.16892860080E+03  0.33671082259E+03  0.90592093379E+03  0.98112373760E+03  0.00000000000E+00 0. -1.
        -13    1    1    2    0    0  0.23103949435E+02 -0.74288937357E+02  0.19719888826E+02  0.80259104608E+02  0.10566000000E+00 0.  1.
<mgrwt>
<rscale>  1 0.52985148E+03</rscale>
<asrwt>0</asrwt>
<pdfrwt beam="1">  1       21 0.17006642E+00 0.10043412E+04</pdfrwt>
<pdfrwt beam="2">  1       -4 0.41415104E-01 0.10043412E+04</pdfrwt>
<totfact> 0.43187568E+01</totfact>
</mgrwt>
</event>
<event>
 6    2  0.2345636E-005  0.1010822E+04  0.7818608E-02  0.9897552E-01
         -4   -1    0    0    0  501 -0.00000000000E+00  0.00000000000E+00  0.34983751196E+03  0.34983751196E+03  0.00000000000E+00 0. -1.
         21   -1    0    0  501  502  0.00000000000E+00 -0.00000000000E+00 -0.10858883388E+04  0.10858883388E+04  0.00000000000E+00 0. -1.
   -9000010    2    1    2    0  502  0.96549076746E+02  0.85086944210E+02 -0.80272682223E+03  0.12907872023E+04  0.10025964982E+04 0.  0.
         13    1    3    3    0    0  0.16736358440E+03 -0.20201090778E+03  0.14378918588E+03  0.29915600844E+03  0.10566000000E+00 0. -1.
         -4    1    3    3    0  502 -0.70814507654E+02  0.28709785199E+03 -0.94651600810E+03  0.99163119390E+03  0.00000000000E+00 0. -1.
        -13    1    1    2    0    0 -0.96549076746E+02 -0.85086944210E+02  0.66675995360E+02  0.14493864846E+03  0.10566000000E+00 0.  1.
<mgrwt>
<rscale>  1 0.60380064E+03</rscale>
<asrwt>0</asrwt>
<pdfrwt beam="2">  1       21 0.16705974E+00 0.10108221E+04</pdfrwt>
<pdfrwt beam="1">  1       -4 0.53821157E-01 0.10108221E+04</pdfrwt>
<totfact> 0.26275512E+01</totfact>
</mgrwt>
</event>
<event>
 6    2  0.2345636E-005  0.1016862E+04  0.7818608E-02  0.1016917E+00
         21   -1    0    0  501  502  0.00000000000E+00  0.00000000000E+00  0.14519627054E+04  0.14519627054E+04  0.00000000000E+00 0. -1.
         -4   -1    0    0    0  501 -0.00000000000E+00 -0.00000000000E+00 -0.24668222663E+03  0.24668222663E+03  0.00000000000E+00 0. -1.
   -9000010    2    1    2    0  502  0.19541456452E+01 -0.53972733021E+02  0.12617536606E+04  0.16205033552E+04  0.10154269790E+04 0.  0.
         13    1    3    3    0    0  0.50025716700E+03 -0.76199712642E+02  0.51101383523E+03  0.71916533586E+03  0.10566000000E+00 0. -1.
         -4    1    3    3    0  502 -0.49830302136E+03  0.22226979621E+02  0.75073982539E+03  0.90133801936E+03  0.00000000000E+00 0. -1.
        -13    1    1    2    0    0 -0.19541456452E+01  0.53972733021E+02 -0.56473181843E+02  0.78141576810E+02  0.10566000000E+00 0.  1.
<mgrwt>
<rscale>  1 0.48815925E+03</rscale>
<asrwt>0</asrwt>
<pdfrwt beam="1">  1       21 0.22337887E+00 0.10168622E+04</pdfrwt>
<pdfrwt beam="2">  1       -4 0.37951113E-01 0.10168622E+04</pdfrwt>
<totfact> 0.21907073E+01</totfact>
</mgrwt>
</event>
<event>
 6    2  0.2345636E-005  0.1007089E+04  0.7818608E-02  0.9901840E-01
         -4   -1    0    0    0  501 -0.00000000000E+00  0.00000000000E+00  0.65678631497E+03  0.65678631497E+03  0.00000000000E+00 0. -1.
         21   -1    0    0  501  502  0.00000000000E+00 -0.00000000000E+00 -0.58976462237E+03  0.58976462237E+03  0.00000000000E+00 0. -1.
   -9000010    2    1    2    0  502  0.91597980845E+02 -0.89901832919E+02 -0.12580492529E+03  0.10149162133E+04  0.99887712514E+03 0.  0.
         13    1    3    3    0    0  0.25098573861E+03 -0.14832568443E+03 -0.51416958402E+03  0.59107082650E+03  0.10566000000E+00 0. -1.
         -4    1    3    3    0  502 -0.15938775776E+03  0.58423851506E+02  0.38836465874E+03  0.42384538679E+03  0.00000000000E+00 0. -1.
        -13    1    1    2    0    0 -0.91597980845E+02  0.89901832919E+02  0.19282661788E+03  0.23163472405E+03  0.10566000000E+00 0.  1.
<mgrwt>
<rscale>  1 0.60172205E+03</rscale>
<asrwt>0</asrwt>
<pdfrwt beam="2">  1       21 0.90733019E-01 0.10070889E+04</pdfrwt>
<pdfrwt beam="1">  1       -4 0.10104405E+00 0.10070889E+04</pdfrwt>
<totfact> 0.31438766E+01</totfact>
</mgrwt>
</event>
<event>
 6    2  0.2345636E-005  0.1006826E+04  0.7818608E-02  0.9856050E-01
         -4   -1    0    0    0  501 -0.00000000000E+00  0.00000000000E+00  0.67373511692E+03  0.67373511692E+03  0.00000000000E+00 0. -1.
         21   -1    0    0  501  502  0.00000000000E+00 -0.00000000000E+00 -0.77571813193E+03  0.77571813193E+03  0.00000000000E+00 0. -1.
   -9000010    2    1    2    0  502  0.12064054697E+03  0.87320824820E+02 -0.42569886318E+03  0.10931233041E+04  0.99575095671E+03 0.  0.
         13    1    3    3    0    0 -0.17178106072E+03 -0.54019412772E+02 -0.66547956096E+03  0.68941271166E+03  0.10566000000E+00 0. -1.
         -4    1    3    3    0  502  0.29242160769E+03  0.14134023759E+03  0.23978069778E+03  0.40371059242E+03  0.00000000000E+00 0. -1.
        -13    1    1    2    0    0 -0.12064054697E+03 -0.87320824820E+02  0.32371584817E+03  0.35632994477E+03  0.10566000000E+00 0.  1.
<mgrwt>
<rscale>  1 0.62439415E+03</rscale>
<asrwt>0</asrwt>
<pdfrwt beam="2">  1       21 0.11934125E+00 0.10068262E+04</pdfrwt>
<pdfrwt beam="1">  1       -4 0.10365156E+00 0.10068262E+04</pdfrwt>
<totfact> 0.14888156E+01</totfact>
</mgrwt>
</event>
<event>
 6    2  0.2345636E-005  0.1019734E+04  0.7818608E-02  0.9729380E-01
         -4   -1    0    0    0  501 -0.00000000000E+00  0.00000000000E+00  0.85923791124E+03  0.85923791124E+03  0.00000000000E+00 0. -1.
         21   -1    0    0  501  502  0.00000000000E+00 -0.00000000000E+00 -0.50316465623E+03  0.50316465623E+03  0.00000000000E+00 0. -1.
   -9000010    2    1    2    0  502 -0.69594868284E+02  0.20599409852E+03  0.97236867932E+02  0.10243592259E+04  0.99628299240E+03 0.  0.
         13    1    3    3    0    0 -0.29630232074E+03  0.51244352663E+03 -0.91552051019E+02  0.59897848247E+03  0.10566000000E+00 0. -1.
         -4    1    3    3    0  502  0.22670745245E+03 -0.30644942811E+03  0.18878891895E+03  0.42538074346E+03  0.00000000000E+00 0. -1.
        -13    1    1    2    0    0  0.69594868284E+02 -0.20599409852E+03  0.25883638708E+03  0.33804334154E+03  0.10566000000E+00 0.  1.
<mgrwt>
<rscale>  1 0.69294114E+03</rscale>
<asrwt>0</asrwt>
<pdfrwt beam="2">  1       21 0.77409947E-01 0.10197337E+04</pdfrwt>
<pdfrwt beam="1">  1       -4 0.13219045E+00 0.10197337E+04</pdfrwt>
<totfact> 0.23429776E+01</totfact>
</mgrwt>
</event>
<event>
 6    2  0.2345636E-005  0.1040132E+04  0.7818608E-02  0.9663678E-01
         21   -1    0    0  501  502  0.00000000000E+00  0.00000000000E+00  0.13201220248E+04  0.13201220248E+04  0.00000000000E+00 0. -1.
         -4   -1    0    0    0  501 -0.00000000000E+00 -0.00000000000E+00 -0.31855156819E+03  0.31855156819E+03  0.00000000000E+00 0. -1.
   -9000010    2    1    2    0  502 -0.13660916941E+03 -0.21583645870E+03  0.77321966181E+03  0.12960491065E+04  0.10082793259E+04 0.  0.
         13    1    3    3    0    0  0.19297380491E+03 -0.79383146952E+02 -0.18169504908E+03  0.27668334866E+03  0.10566000000E+00 0. -1.
         -4    1    3    3    0  502 -0.32958297433E+03 -0.13645331175E+03  0.95491471089E+03  0.10193657579E+04  0.00000000000E+00 0. -1.
        -13    1    1    2    0    0  0.13660916941E+03  0.21583645870E+03  0.22835079482E+03  0.34262448647E+03  0.10566000000E+00 0.  1.
<mgrwt>
<rscale>  1 0.73221202E+03</rscale>
<asrwt>0</asrwt>
<pdfrwt beam="1">  1       21 0.20309569E+00 0.10401320E+04</pdfrwt>
<pdfrwt beam="2">  1       -4 0.49007934E-01 0.10401320E+04</pdfrwt>
<totfact> 0.17621554E+01</totfact>
</mgrwt>
</event>
<event>
 6    2  0.2345636E-005  0.1152399E+04  0.7818608E-02  0.9729021E-01
         -4   -1    0    0    0  501 -0.00000000000E+00  0.00000000000E+00  0.17893234465E+04  0.17893234465E+04  0.00000000000E+00 0. -1.
         21   -1    0    0  501  502  0.00000000000E+00 -0.00000000000E+00 -0.24358160114E+03  0.24358160114E+03  0.00000000000E+00 0. -1.
   -9000010    2    1    2    0  502 -0.12303741054E+03 -0.87249061511E+02  0.12451435067E+04  0.16965867825E+04  0.11424857789E+04 0.  0.
         13    1    3    3    0    0 -0.14128805914E+03 -0.60004448353E+03  0.50996950233E+03  0.80005287471E+03  0.10566000000E+00 0. -1.
         -4    1    3    3    0  502  0.18250648592E+02  0.51279542202E+03  0.73517400439E+03  0.89653390775E+03  0.00000000000E+00 0. -1.
        -13    1    1    2    0    0  0.12303741054E+03  0.87249061511E+02  0.30059833864E+03  0.33631826517E+03  0.10566000000E+00 0.  1.
<mgrwt>
<rscale>  1 0.69314869E+03</rscale>
<asrwt>0</asrwt>
<pdfrwt beam="2">  1       21 0.37474094E-01 0.11523994E+04</pdfrwt>
<pdfrwt beam="1">  1       -4 0.27528052E+00 0.11523994E+04</pdfrwt>
<totfact> 0.12026332E+01</totfact>
</mgrwt>
</event>
<event>
 6    2  0.2345636E-005  0.1018657E+04  0.7818608E-02  0.9763972E-01
         -4   -1    0    0    0  501 -0.00000000000E+00  0.00000000000E+00  0.13078685135E+04  0.13078685135E+04  0.00000000000E+00 0. -1.
         21   -1    0    0  501  502  0.00000000000E+00 -0.00000000000E+00 -0.29250068044E+03  0.29250068044E+03  0.00000000000E+00 0. -1.
   -9000010    2    1    2    0  502  0.38613619548E+01 -0.19441331752E+03  0.72266429683E+03  0.12489622796E+04  0.99992581816E+03 0.  0.
         13    1    3    3    0    0 -0.26962799898E+03  0.31959153810E+03  0.18791299759E+03  0.45842045644E+03  0.10566000000E+00 0. -1.
         -4    1    3    3    0  502  0.27348936093E+03 -0.51400485562E+03  0.53475129924E+03  0.79054182317E+03  0.00000000000E+00 0. -1.
        -13    1    1    2    0    0 -0.38613619548E+01  0.19441331752E+03  0.29270353622E+03  0.35140691431E+03  0.10566000000E+00 0.  1.
<mgrwt>
<rscale>  1 0.67332396E+03</rscale>
<asrwt>0</asrwt>
<pdfrwt beam="2">  1       21 0.45000105E-01 0.10186575E+04</pdfrwt>
<pdfrwt beam="1">  1       -4 0.20121054E+00 0.10186575E+04</pdfrwt>
<totfact> 0.24293793E+01</totfact>
</mgrwt>
</event>
<event>
 6    2  0.2345636E-005  0.9369210E+03  0.7818608E-02  0.9508172E-01
         21   -1    0    0  501  502  0.00000000000E+00  0.00000000000E+00  0.54062206955E+03  0.54062206955E+03  0.00000000000E+00 0.  1.
         -4   -1    0    0    0  501 -0.00000000000E+00 -0.00000000000E+00 -0.10889106617E+04  0.10889106617E+04  0.00000000000E+00 0. -1.
   -9000010    2    1    2    0  502 -0.51727655469E+03  0.29663301897E+03 -0.36772669579E+03  0.10065007966E+04  0.72267195105E+03 0.  0.
         13    1    3    3    0    0 -0.52809895033E+03  0.49718112004E+03 -0.22255895821E+03  0.75868970502E+03  0.10566000000E+00 0. -1.
         -4    1    3    3    0  502  0.10822395645E+02 -0.20054810106E+03 -0.14516773758E+03  0.24781109160E+03  0.00000000000E+00 0. -1.
        -13    1    1    2    0    0  0.51727655469E+03 -0.29663301897E+03 -0.18056189638E+03  0.62303193463E+03  0.10566000000E+00 0.  1.
<mgrwt>
<rscale>  1 0.83683982E+03</rscale>
<asrwt>0</asrwt>
<pdfrwt beam="1">  1       21 0.83172627E-01 0.93692098E+03</pdfrwt>
<pdfrwt beam="2">  1       -4 0.16752471E+00 0.93692098E+03</pdfrwt>
<totfact> 0.10574007E+01</totfact>
</mgrwt>
</event>
<event>
 6    2  0.2345636E-005  0.9764846E+03  0.7818608E-02  0.9788459E-01
         21   -1    0    0  501  502  0.00000000000E+00  0.00000000000E+00  0.61390708288E+03  0.61390708288E+03  0.00000000000E+00 0. -1.
         -4   -1    0    0    0  501 -0.00000000000E+00 -0.00000000000E+00 -0.86235147711E+03  0.86235147711E+03  0.00000000000E+00 0. -1.
   -9000010    2    1    2    0  502  0.17885018554E+03  0.97313883010E+02  0.18821767993E+03  0.99445864418E+03  0.95502079519E+03 0.  0.
         13    1    3    3    0    0  0.46786311500E+03 -0.12883228266E+03 -0.13686107084E+03  0.50420691716E+03  0.10566000000E+00 0. -1.
         -4    1    3    3    0  502 -0.28901292946E+03  0.22614616567E+03  0.32507875077E+03  0.49025172702E+03  0.00000000000E+00 0. -1.
        -13    1    1    2    0    0 -0.17885018554E+03 -0.97313883010E+02 -0.43666207416E+03  0.48179991581E+03  0.10566000000E+00 0.  1.
<mgrwt>
<rscale>  1 0.65985617E+03</rscale>
<asrwt>0</asrwt>
<pdfrwt beam="1">  1       21 0.94447244E-01 0.97648456E+03</pdfrwt>
<pdfrwt beam="2">  1       -4 0.13266946E+00 0.97648456E+03</pdfrwt>
<totfact> 0.14499710E+01</totfact>
</mgrwt>
</event>
<event>
 6    2  0.2345636E-005  0.1001489E+04  0.7818608E-02  0.1011241E+00
         21   -1    0    0  501  502  0.00000000000E+00  0.00000000000E+00  0.20127672734E+04  0.20127672734E+04  0.00000000000E+00 0. -1.
         -4   -1    0    0    0  501 -0.00000000000E+00 -0.00000000000E+00 -0.14895420463E+03  0.14895420463E+03  0.00000000000E+00 0. -1.
   -9000010    2    1    2    0  502  0.58242364610E+02 -0.33658096677E+02  0.18307337227E+04  0.20867595223E+04  0.99922685105E+03 0.  0.
         13    1    3    3    0    0  0.21655797001E+03  0.50945796277E+02  0.18858948385E+04  0.18989713482E+04  0.10566000000E+00 0. -1.
         -4    1    3    3    0  502 -0.15831560540E+03 -0.84603892954E+02 -0.55161115761E+02  0.18778817404E+03  0.00000000000E+00 0. -1.
        -13    1    1    2    0    0 -0.58242364610E+02  0.33658096677E+02  0.33079346046E+02  0.74961955725E+02  0.10566000000E+00 0.  1.
<mgrwt>
<rscale>  1 0.50984415E+03</rscale>
<asrwt>0</asrwt>
<pdfrwt beam="1">  1       21 0.30965648E+00 0.10014886E+04</pdfrwt>
<pdfrwt beam="2">  1       -4 0.22916033E-01 0.10014886E+04</pdfrwt>
<totfact> 0.16780531E+01</totfact>
</mgrwt>
</event>
<event>
 6    2  0.2345636E-005  0.1028012E+04  0.7818608E-02  0.9663708E-01
         21   -1    0    0  501  502  0.00000000000E+00  0.00000000000E+00  0.11629785766E+04  0.11629785766E+04  0.00000000000E+00 0. -1.
         -4   -1    0    0    0  501 -0.00000000000E+00 -0.00000000000E+00 -0.39385581706E+03  0.39385581706E+03  0.00000000000E+00 0. -1.
   -9000010    2    1    2    0  502 -0.16613136337E+03 -0.20588083081E+03  0.78250626979E+03  0.12919463496E+04  0.99338953160E+03 0.  0.
         13    1    3    3    0    0  0.38269101205E+02 -0.57108200987E+03  0.61781639492E+03  0.84219730176E+03  0.10566000000E+00 0. -1.
         -4    1    3    3    0  502 -0.20440046457E+03  0.36520117906E+03  0.16468987487E+03  0.44974904779E+03  0.00000000000E+00 0. -1.
        -13    1    1    2    0    0  0.16613136337E+03  0.20588083081E+03 -0.13383510257E+02  0.26488804408E+03  0.10566000000E+00 0.  1.
<mgrwt>
<rscale>  1 0.73219299E+03</rscale>
<asrwt>0</asrwt>
<pdfrwt beam="1">  1       21 0.17891978E+00 0.10280123E+04</pdfrwt>
<pdfrwt beam="2">  1       -4 0.60593203E-01 0.10280123E+04</pdfrwt>
<totfact> 0.16579232E+01</totfact>
</mgrwt>
</event>
<event>
 6    2  0.2345636E-005  0.9956154E+03  0.7818608E-02  0.1010126E+00
         -4   -1    0    0    0  501 -0.00000000000E+00  0.00000000000E+00  0.43564781184E+03  0.43564781184E+03  0.00000000000E+00 0. -1.
         21   -1    0    0  501  502  0.00000000000E+00 -0.00000000000E+00 -0.67134661825E+03  0.67134661825E+03  0.00000000000E+00 0. -1.
   -9000010    2    1    2    0  502  0.69873740067E+02 -0.11789394621E+02 -0.26505439380E+03  0.10302931195E+04  0.99309050492E+03 0.  0.
         13    1    3    3    0    0 -0.33705700105E+03 -0.11193755754E+03  0.19729771762E+03  0.40628049336E+03  0.10566000000E+00 0. -1.
         -4    1    3    3    0  502  0.40693074112E+03  0.10014816291E+03 -0.46235211143E+03  0.62401262611E+03  0.00000000000E+00 0. -1.
        -13    1    1    2    0    0 -0.69873740067E+02  0.11789394621E+02  0.29355587386E+02  0.76701310623E+02  0.10566000000E+00 0.  1.
<mgrwt>
<rscale>  1 0.51424630E+03</rscale>
<asrwt>0</asrwt>
<pdfrwt beam="2">  1       21 0.10328409E+00 0.99561543E+03</pdfrwt>
<pdfrwt beam="1">  1       -4 0.67022741E-01 0.99561543E+03</pdfrwt>
<totfact> 0.59144938E+01</totfact>
</mgrwt>
</event>
<event>
 6    2  0.2345636E-005  0.1190681E+04  0.7818608E-02  0.9289487E-01
         -4   -1    0    0    0  501 -0.00000000000E+00  0.00000000000E+00  0.11774852884E+04  0.11774852884E+04  0.00000000000E+00 0. -1.
         21   -1    0    0  501  502  0.00000000000E+00 -0.00000000000E+00 -0.72717792999E+03  0.72717792999E+03  0.00000000000E+00 0. -1.
   -9000010    2    1    2    0  502 -0.52001661522E+03 -0.36465218277E+03  0.14344932177E+03  0.11992907208E+04  0.10071405218E+04 0.  0.
         13    1    3    3    0    0 -0.82565135224E+03 -0.25512804294E+03  0.74433401546E+02  0.86737005724E+03  0.10566000000E+00 0. -1.
         -4    1    3    3    0  502  0.30563473703E+03 -0.10952413982E+03  0.69015920226E+02  0.33192066361E+03  0.00000000000E+00 0. -1.
        -13    1    1    2    0    0  0.52001661522E+03  0.36465218277E+03  0.30685803664E+03  0.70537249756E+03  0.10566000000E+00 0.  1.
<mgrwt>
<rscale>  1 0.10175644E+04</rscale>
<asrwt>0</asrwt>
<pdfrwt beam="2">  1       21 0.11187353E+00 0.11906807E+04</pdfrwt>
<pdfrwt beam="1">  1       -4 0.18115158E+00 0.11906807E+04</pdfrwt>
<totfact> 0.39599722E+00</totfact>
</mgrwt>
</event>
<event>
 6    2  0.2345636E-005  0.1014536E+04  0.7818608E-02  0.9889321E-01
         21   -1    0    0  501  502  0.00000000000E+00  0.00000000000E+00  0.53941842372E+03  0.53941842372E+03  0.00000000000E+00 0. -1.
         -4   -1    0    0    0  501 -0.00000000000E+00 -0.00000000000E+00 -0.11817529013E+04  0.11817529013E+04  0.00000000000E+00 0. -1.
   -9000010    2    1    2    0  502 -0.11959912997E+03 -0.52719841801E+02  0.50813287682E+02  0.10158081779E+04  0.10060819701E+04 0.  0.
         13    1    3    3    0    0 -0.16081516829E+03 -0.27071640535E+03 -0.40254898364E+03  0.51107199676E+03  0.10566000000E+00 0. -1.
         -4    1    3    3    0  502  0.41216038315E+02  0.21799656355E+03  0.45336227132E+03  0.50473618118E+03  0.00000000000E+00 0. -1.
        -13    1    1    2    0    0  0.11959912997E+03  0.52719841801E+02 -0.69314776529E+03  0.70536314711E+03  0.10566000000E+00 0.  1.
<mgrwt>
<rscale>  1 0.60781633E+03</rscale>
<asrwt>0</asrwt>
<pdfrwt beam="1">  1       21 0.82987450E-01 0.10145365E+04</pdfrwt>
<pdfrwt beam="2">  1       -4 0.18180814E+00 0.10145365E+04</pdfrwt>
<totfact> 0.83421439E+00</totfact>
</mgrwt>
</event>
<event>
 6    2  0.2345636E-005  0.1087381E+04  0.7818608E-02  0.9491906E-01
         -4   -1    0    0    0  501 -0.00000000000E+00  0.00000000000E+00  0.16159600549E+04  0.16159600549E+04  0.00000000000E+00 0. -1.
         21   -1    0    0  501  502  0.00000000000E+00 -0.00000000000E+00 -0.44997411792E+03  0.44997411792E+03  0.00000000000E+00 0. -1.
   -9000010    2    1    2    0  502 -0.33565843540E+03  0.22442902886E+03  0.32805031118E+03  0.11357884324E+04  0.10096352719E+04 0.  0.
         13    1    3    3    0    0  0.16779001642E+02  0.58363416666E+03  0.16342644457E+03  0.60631558560E+03  0.10566000000E+00 0. -1.
         -4    1    3    3    0  502 -0.35243743704E+03 -0.35920513780E+03  0.16462386661E+03  0.52947284681E+03  0.00000000000E+00 0. -1.
        -13    1    1    2    0    0  0.33565843540E+03 -0.22442902886E+03  0.83793562585E+03  0.93014574045E+03  0.10566000000E+00 0.  1.
<mgrwt>
<rscale>  1 0.84883159E+03</rscale>
<asrwt>0</asrwt>
<pdfrwt beam="2">  1       21 0.69226788E-01 0.10873814E+04</pdfrwt>
<pdfrwt beam="1">  1       -4 0.24860924E+00 0.10873814E+04</pdfrwt>
<totfact> 0.46546933E+00</totfact>
</mgrwt>
</event>
<event>
 6    2  0.2345636E-005  0.1022165E+04  0.7818608E-02  0.9719724E-01
         -4   -1    0    0    0  501 -0.00000000000E+00  0.00000000000E+00  0.40930746294E+03  0.40930746294E+03  0.00000000000E+00 0. -1.
         21   -1    0    0  501  502  0.00000000000E+00 -0.00000000000E+00 -0.13310027589E+04  0.13310027589E+04  0.00000000000E+00 0. -1.
   -9000010    2    1    2    0  502 -0.20749616045E+02 -0.22198502810E+03 -0.10642978174E+04  0.14756531049E+04  0.99755418036E+03 0.  0.
         13    1    3    3    0    0 -0.73483534424E+02 -0.34080769811E+02  0.18985142424E+03  0.20640955199E+03  0.10566000000E+00 0. -1.
         -4    1    3    3    0  502  0.52733918379E+02 -0.18790425829E+03 -0.12541492416E+04  0.12692435530E+04  0.00000000000E+00 0. -1.
        -13    1    1    2    0    0  0.20749616045E+02  0.22198502810E+03  0.14260252141E+03  0.26465711693E+03  0.10566000000E+00 0.  1.
<mgrwt>
<rscale>  1 0.69854452E+03</rscale>
<asrwt>0</asrwt>
<pdfrwt beam="2">  1       21 0.20476966E+00 0.10221655E+04</pdfrwt>
<pdfrwt beam="1">  1       -4 0.62970379E-01 0.10221655E+04</pdfrwt>
<totfact> 0.10035473E+01</totfact>
</mgrwt>
</event>
<event>
 6    2  0.2345636E-005  0.9071901E+03  0.7818608E-02  0.1000449E+00
         21   -1    0    0  501  502  0.00000000000E+00  0.00000000000E+00  0.63195700348E+03  0.63195700348E+03  0.00000000000E+00 0. -1.
         -4   -1    0    0    0  501 -0.00000000000E+00 -0.00000000000E+00 -0.48553803791E+03  0.48553803791E+03  0.00000000000E+00 0. -1.
   -9000010    2    1    2    0  502 -0.10232964001E+03 -0.74634465689E+02  0.26384543874E+03  0.94477953411E+03  0.89830523422E+03 0.  0.
         13    1    3    3    0    0 -0.26062701394E+03 -0.18638431162E+03 -0.24301317715E+03  0.40214545559E+03  0.10566000000E+00 0. -1.
         -4    1    3    3    0  502  0.15829737393E+03  0.11174984593E+03  0.50685861590E+03  0.54263407852E+03  0.00000000000E+00 0. -1.
        -13    1    1    2    0    0  0.10232964001E+03  0.74634465689E+02 -0.11742647317E+03  0.17271550729E+03  0.10566000000E+00 0.  1.
<mgrwt>
<rscale>  1 0.55453625E+03</rscale>
<asrwt>0</asrwt>
<pdfrwt beam="1">  1       21 0.97224154E-01 0.90719014E+03</pdfrwt>
<pdfrwt beam="2">  1       -4 0.74698160E-01 0.90719014E+03</pdfrwt>
<totfact> 0.54288717E+01</totfact>
</mgrwt>
</event>
<event>
 6    2  0.2345636E-005  0.1025381E+04  0.7818608E-02  0.1004568E+00
         -4   -1    0    0    0  501 -0.00000000000E+00  0.00000000000E+00  0.25320433929E+03  0.25320433929E+03  0.00000000000E+00 0. -1.
         21   -1    0    0  501  502  0.00000000000E+00 -0.00000000000E+00 -0.14777588250E+04  0.14777588250E+04  0.00000000000E+00 0. -1.
   -9000010    2    1    2    0  502 -0.68219460955E+02 -0.35894778967E+02 -0.12770035234E+04  0.16377256036E+04  0.10224797425E+04 0.  0.
         13    1    3    3    0    0  0.33116018841E+02 -0.37713866090E+03 -0.77400575862E+02  0.38642088525E+03  0.10566000000E+00 0. -1.
         -4    1    3    3    0  502 -0.10133547980E+03  0.34124388193E+03 -0.11996029476E+04  0.12513047184E+04  0.00000000000E+00 0. -1.
        -13    1    1    2    0    0  0.68219460955E+02  0.35894778967E+02  0.52449037677E+02  0.93237560712E+02  0.10566000000E+00 0.  1.
<mgrwt>
<rscale>  1 0.53691903E+03</rscale>
<asrwt>0</asrwt>
<pdfrwt beam="2">  1       21 0.22734751E+00 0.10253815E+04</pdfrwt>
<pdfrwt beam="1">  1       -4 0.38954513E-01 0.10253815E+04</pdfrwt>
<totfact> 0.19549413E+01</totfact>
</mgrwt>
</event>
<event>
 6    2  0.2345636E-005  0.1073748E+04  0.7818608E-02  0.9505602E-01
         21   -1    0    0  501  502  0.00000000000E+00  0.00000000000E+00  0.46115075712E+03  0.46115075712E+03  0.00000000000E+00 0. -1.
         -4   -1    0    0    0  501 -0.00000000000E+00 -0.00000000000E+00 -0.14220981194E+04  0.14220981194E+04  0.00000000000E+00 0. -1.
   -9000010    2    1    2    0  502  0.33160252503E+03 -0.22320672372E+03 -0.30693700991E+03  0.11167561967E+04  0.99657041829E+03 0.  0.
         13    1    3    3    0    0  0.21688894891E+02  0.36843388949E+03  0.26947394714E+02  0.37005420189E+03  0.10566000000E+00 0. -1.
         -4    1    3    3    0  502  0.30991363013E+03 -0.59164061321E+03 -0.33388440463E+03  0.74670199477E+03  0.00000000000E+00 0. -1.
        -13    1    1    2    0    0 -0.33160252503E+03  0.22320672372E+03 -0.65401035238E+03  0.76649267987E+03  0.10566000000E+00 0.  1.
<mgrwt>
<rscale>  1 0.83872094E+03</rscale>
<asrwt>0</asrwt>
<pdfrwt beam="1">  1       21 0.70946272E-01 0.10737477E+04</pdfrwt>
<pdfrwt beam="2">  1       -4 0.21878432E+00 0.10737477E+04</pdfrwt>
<totfact> 0.67885042E+00</totfact>
</mgrwt>
</event>
<event>
 6    2  0.2345636E-005  0.1022964E+04  0.7818608E-02  0.9726791E-01
         -4   -1    0    0    0  501 -0.00000000000E+00  0.00000000000E+00  0.30768023735E+04  0.30768023735E+04  0.00000000000E+00 0. -1.
         21   -1    0    0  501  502  0.00000000000E+00 -0.00000000000E+00 -0.14723664367E+03  0.14723664367E+03  0.00000000000E+00 0. -1.
   -9000010    2    1    2    0  502 -0.18359398114E+03  0.11614508905E+03  0.27746408148E+04  0.29572091611E+04  0.99962890100E+03 0.  0.
         13    1    3    3    0    0 -0.58511355996E+03  0.17798648217E+03  0.15195952637E+04  0.16380497069E+04  0.10566000000E+00 0. -1.
         -4    1    3    3    0  502  0.40151957882E+03 -0.61841393124E+02  0.12550455511E+04  0.13191594542E+04  0.00000000000E+00 0. -1.
        -13    1    1    2    0    0  0.18359398114E+03 -0.11614508905E+03  0.15492491499E+03  0.26682985603E+03  0.10566000000E+00 0.  1.
<mgrwt>
<rscale>  1 0.69443855E+03</rscale>
<asrwt>0</asrwt>
<pdfrwt beam="2">  1       21 0.22651794E-01 0.10229635E+04</pdfrwt>
<pdfrwt beam="1">  1       -4 0.47335416E+00 0.10229635E+04</pdfrwt>
<totfact> 0.15387858E+00</totfact>
</mgrwt>
</event>
<event>
 6    2  0.2345636E-005  0.1056967E+04  0.7818608E-02  0.9639042E-01
         21   -1    0    0  501  502  0.00000000000E+00  0.00000000000E+00  0.59407394400E+03  0.59407394400E+03  0.00000000000E+00 0. -1.
         -4   -1    0    0    0  501 -0.00000000000E+00 -0.00000000000E+00 -0.73853982048E+03  0.73853982048E+03  0.00000000000E+00 0. -1.
   -9000010    2    1    2    0  502  0.26345479221E+03  0.24736631473E+02 -0.78357802850E+02  0.10598673309E+04  0.10233076201E+04 0.  0.
         13    1    3    3    0    0  0.43421272797E+03 -0.20245009318E+03 -0.40468241078E+03  0.62713204202E+03  0.10566000000E+00 0. -1.
         -4    1    3    3    0  502 -0.17075793576E+03  0.22718672466E+03  0.32632460793E+03  0.43273528886E+03  0.00000000000E+00 0. -1.
        -13    1    1    2    0    0 -0.26345479221E+03 -0.24736631473E+02 -0.66108073630E+02  0.27274643359E+03  0.10566000000E+00 0.  1.
<mgrwt>
<rscale>  1 0.74765120E+03</rscale>
<asrwt>0</asrwt>
<pdfrwt beam="1">  1       21 0.91395991E-01 0.10569668E+04</pdfrwt>
<pdfrwt beam="2">  1       -4 0.11362151E+00 0.10569668E+04</pdfrwt>
<totfact> 0.23065214E+01</totfact>
</mgrwt>
</event>
<event>
 6    2  0.2345636E-005  0.1198945E+04  0.7818608E-02  0.9494023E-01
         -4   -1    0    0    0  501 -0.00000000000E+00  0.00000000000E+00  0.10172851688E+04  0.10172851688E+04  0.00000000000E+00 0. -1.
         21   -1    0    0  501  502  0.00000000000E+00 -0.00000000000E+00 -0.55168443633E+03  0.55168443633E+03  0.00000000000E+00 0. -1.
   -9000010    2    1    2    0  502 -0.17353216498E+03  0.24348741755E+03  0.35903285553E+03  0.12515483419E+04  0.11610637907E+04 0.  0.
         13    1    3    3    0    0  0.48513251326E+02 -0.18271302347E+03 -0.34836370351E+03  0.39635194662E+03  0.10566000000E+00 0. -1.
         -4    1    3    3    0  502 -0.22204541630E+03  0.42620044102E+03  0.70739655904E+03  0.85519639532E+03  0.00000000000E+00 0. -1.
        -13    1    1    2    0    0  0.17353216498E+03 -0.24348741755E+03  0.10656787697E+03  0.31742126324E+03  0.10566000000E+00 0.  1.
<mgrwt>
<rscale>  1 0.84725923E+03</rscale>
<asrwt>0</asrwt>
<pdfrwt beam="2">  1       21 0.84874529E-01 0.11989448E+04</pdfrwt>
<pdfrwt beam="1">  1       -4 0.15650541E+00 0.11989448E+04</pdfrwt>
<totfact> 0.11837459E+01</totfact>
</mgrwt>
</event>
<event>
 6    2  0.2345636E-005  0.9664844E+03  0.7818608E-02  0.9978808E-01
         21   -1    0    0  501  502  0.00000000000E+00  0.00000000000E+00  0.18695503586E+04  0.18695503586E+04  0.00000000000E+00 0. -1.
         -4   -1    0    0    0  501 -0.00000000000E+00 -0.00000000000E+00 -0.15824791331E+03  0.15824791331E+03  0.00000000000E+00 0. -1.
   -9000010    2    1    2    0  502 -0.92648114407E+02 -0.65725117253E+02  0.15967867929E+04  0.18664994500E+04  0.95978574213E+03 0.  0.
         13    1    3    3    0    0 -0.50693578913E+01 -0.50798750367E+03  0.96200592390E+03  0.10879027581E+04  0.10566000000E+00 0. -1.
         -4    1    3    3    0  502 -0.87578756516E+02  0.44226238642E+03  0.63478086900E+03  0.77859669193E+03  0.00000000000E+00 0. -1.
        -13    1    1    2    0    0  0.92648114407E+02  0.65725117253E+02  0.11451565244E+03  0.16129882194E+03  0.10566000000E+00 0.  1.
<mgrwt>
<rscale>  1 0.56589321E+03</rscale>
<asrwt>0</asrwt>
<pdfrwt beam="1">  1       21 0.28762312E+00 0.96648442E+03</pdfrwt>
<pdfrwt beam="2">  1       -4 0.24345834E-01 0.96648442E+03</pdfrwt>
<totfact> 0.20620438E+01</totfact>
</mgrwt>
</event>
<event>
 6    2  0.2345636E-005  0.9795364E+03  0.7818608E-02  0.1012012E+00
         21   -1    0    0  501  502  0.00000000000E+00  0.00000000000E+00  0.80306695308E+03  0.80306695308E+03  0.00000000000E+00 0. -1.
         -4   -1    0    0    0  501 -0.00000000000E+00 -0.00000000000E+00 -0.62689793025E+03  0.62689793025E+03  0.00000000000E+00 0. -1.
   -9000010    2    1    2    0  502 -0.26290872825E+02  0.65098688074E+02  0.49919103629E+03  0.10994013017E+04  0.97701713507E+03 0.  0.
         13    1    3    3    0    0  0.39232690466E+03  0.91664850193E+02 -0.52562998687E+02  0.40630742656E+03  0.10566000000E+00 0. -1.
         -4    1    3    3    0  502 -0.41861777749E+03 -0.26566162119E+02  0.55175403498E+03  0.69309387511E+03  0.00000000000E+00 0. -1.
        -13    1    1    2    0    0  0.26290872825E+02 -0.65098688074E+02 -0.32302201345E+03  0.33056358166E+03  0.10566000000E+00 0.  1.
<mgrwt>
<rscale>  1 0.50682840E+03</rscale>
<asrwt>0</asrwt>
<pdfrwt beam="1">  1       21 0.12354876E+00 0.97953639E+03</pdfrwt>
<pdfrwt beam="2">  1       -4 0.96445836E-01 0.97953639E+03</pdfrwt>
<totfact> 0.16229603E+01</totfact>
</mgrwt>
</event>
<event>
 6    2  0.2345636E-005  0.1010297E+04  0.7818608E-02  0.1007948E+00
         -4   -1    0    0    0  501 -0.00000000000E+00  0.00000000000E+00  0.67329250044E+03  0.67329250044E+03  0.00000000000E+00 0. -1.
         21   -1    0    0  501  502  0.00000000000E+00 -0.00000000000E+00 -0.50015448039E+03  0.50015448039E+03  0.00000000000E+00 0. -1.
   -9000010    2    1    2    0  502  0.72495198066E+02 -0.27074440494E+01  0.27419982396E+02  0.10106690903E+04  0.10076890744E+04 0.  0.
         13    1    3    3    0    0 -0.96306223308E+02 -0.15865292444E+03  0.47366353612E+03  0.50872664142E+03  0.10566000000E+00 0. -1.
         -4    1    3    3    0  502  0.16880142137E+03  0.15594548039E+03 -0.44624355372E+03  0.50194244884E+03  0.00000000000E+00 0. -1.
        -13    1    1    2    0    0 -0.72495198066E+02  0.27074440494E+01  0.14571803766E+03  0.16277789057E+03  0.10566000000E+00 0.  1.
<mgrwt>
<rscale>  1 0.52298581E+03</rscale>
<asrwt>0</asrwt>
<pdfrwt beam="2">  1       21 0.76946843E-01 0.10102971E+04</pdfrwt>
<pdfrwt beam="1">  1       -4 0.10358346E+00 0.10102971E+04</pdfrwt>
<totfact> 0.43771437E+01</totfact>
</mgrwt>
</event>
<event>
 6    2  0.2345636E-005  0.1063917E+04  0.7818608E-02  0.9564742E-01
         -4   -1    0    0    0  501 -0.00000000000E+00  0.00000000000E+00  0.21349522352E+04  0.21349522352E+04  0.00000000000E+00 0. -1.
         21   -1    0    0  501  502  0.00000000000E+00 -0.00000000000E+00 -0.24168477649E+03  0.24168477649E+03  0.00000000000E+00 0. -1.
   -9000010    2    1    2    0  502 -0.21598573285E+03  0.25557879153E+03  0.11801979476E+04  0.15889578294E+04  0.10099254588E+04 0.  0.
         13    1    3    3    0    0 -0.14677067140E+03  0.22583990196E+03  0.13639885051E+04  0.13903272796E+04  0.10566000000E+00 0. -1.
         -4    1    3    3    0  502 -0.69215061449E+02  0.29738889569E+02 -0.18379055744E+03  0.19863054974E+03  0.00000000000E+00 0. -1.
        -13    1    1    2    0    0  0.21598573285E+03 -0.25557879153E+03  0.71306951105E+03  0.78767918230E+03  0.10566000000E+00 0.  1.
<mgrwt>
<rscale>  1 0.79674392E+03</rscale>
<asrwt>0</asrwt>
<pdfrwt beam="2">  1       21 0.37182275E-01 0.10639172E+04</pdfrwt>
<pdfrwt beam="1">  1       -4 0.32845418E+00 0.10639172E+04</pdfrwt>
<totfact> 0.57611948E+00</totfact>
</mgrwt>
</event>
<event>
 6    2  0.2345636E-005  0.1000521E+04  0.7818608E-02  0.9886797E-01
         -4   -1    0    0    0  501 -0.00000000000E+00  0.00000000000E+00  0.32343471347E+03  0.32343471347E+03  0.00000000000E+00 0. -1.
         21   -1    0    0  501  502  0.00000000000E+00 -0.00000000000E+00 -0.10034060381E+04  0.10034060381E+04  0.00000000000E+00 0. -1.
   -9000010    2    1    2    0  502  0.30508070174E+02  0.13395694564E+03 -0.61908236194E+03  0.11765653957E+04  0.99104387084E+03 0.  0.
         13    1    3    3    0    0 -0.18788031468E+03 -0.38290743347E+03 -0.36173033257E+03  0.55925482556E+03  0.10566000000E+00 0. -1.
         -4    1    3    3    0  502  0.21838838485E+03  0.51686437911E+03 -0.25735202937E+03  0.61731057017E+03  0.00000000000E+00 0. -1.
        -13    1    1    2    0    0 -0.30508070174E+02 -0.13395694564E+03 -0.60888962678E+02  0.15027535584E+03  0.10566000000E+00 0.  1.
<mgrwt>
<rscale>  1 0.60905469E+03</rscale>
<asrwt>0</asrwt>
<pdfrwt beam="2">  1       21 0.15437016E+00 0.10005214E+04</pdfrwt>
<pdfrwt beam="1">  1       -4 0.49759186E-01 0.10005214E+04</pdfrwt>
<totfact> 0.38966494E+01</totfact>
</mgrwt>
</event>
<event>
 6    2  0.2345636E-005  0.1023413E+04  0.7818608E-02  0.9768299E-01
         21   -1    0    0  501  502  0.00000000000E+00  0.00000000000E+00  0.40384621933E+03  0.40384621933E+03  0.00000000000E+00 0. -1.
         -4   -1    0    0    0  501 -0.00000000000E+00 -0.00000000000E+00 -0.14201262938E+04  0.14201262938E+04  0.00000000000E+00 0. -1.
   -9000010    2    1    2    0  502 -0.81880752768E+02 -0.17037440650E+03 -0.27605169693E+03  0.10599895564E+04  0.10058038697E+04 0.  0.
         13    1    3    3    0    0 -0.32691477443E+03  0.11380037984E+03  0.24052471355E+03  0.42151624545E+03  0.10566000000E+00 0. -1.
         -4    1    3    3    0  502  0.24503402166E+03 -0.28417478633E+03 -0.51657641047E+03  0.63847331097E+03  0.00000000000E+00 0. -1.
        -13    1    1    2    0    0  0.81880752768E+02  0.17037440650E+03 -0.74022837753E+03  0.76398295670E+03  0.10566000000E+00 0.  1.
<mgrwt>
<rscale>  1 0.67091900E+03</rscale>
<asrwt>0</asrwt>
<pdfrwt beam="1">  1       21 0.62130187E-01 0.10234126E+04</pdfrwt>
<pdfrwt beam="2">  1       -4 0.21848097E+00 0.10234126E+04</pdfrwt>
<totfact> 0.92722416E+00</totfact>
</mgrwt>
</event>
<event>
 6    2  0.2345636E-005  0.1171084E+04  0.7818608E-02  0.9315522E-01
         21   -1    0    0  501  502  0.00000000000E+00  0.00000000000E+00  0.66075351833E+03  0.66075351833E+03  0.00000000000E+00 0. -1.
         -4   -1    0    0    0  501 -0.00000000000E+00 -0.00000000000E+00 -0.12051986491E+04  0.12051986491E+04  0.00000000000E+00 0. -1.
   -9000010    2    1    2    0  502  0.49136852543E+02 -0.60501445076E+03 -0.43437324152E+03  0.12490463822E+04  0.10014888097E+04 0.  0.
         13    1    3    3    0    0  0.49556856828E+03 -0.43581073255E+03 -0.10308517966E+03  0.66794143898E+03  0.10566000000E+00 0. -1.
         -4    1    3    3    0  502 -0.44643171573E+03 -0.16920371821E+03 -0.33128806186E+03  0.58110494319E+03  0.00000000000E+00 0. -1.
        -13    1    1    2    0    0 -0.49136852543E+02  0.60501445076E+03 -0.11007188924E+03  0.61690578524E+03  0.10566000000E+00 0.  1.
<mgrwt>
<rscale>  1 0.99366345E+03</rscale>
<asrwt>0</asrwt>
<pdfrwt beam="1">  1       21 0.10165439E+00 0.11710836E+04</pdfrwt>
<pdfrwt beam="2">  1       -4 0.18541517E+00 0.11710836E+04</pdfrwt>
<totfact> 0.47238078E+00</totfact>
</mgrwt>
</event>
<event>
 6    2  0.2345636E-005  0.1008968E+04  0.7818608E-02  0.9684690E-01
         -4   -1    0    0    0  501 -0.00000000000E+00  0.00000000000E+00  0.39521998769E+03  0.39521998769E+03  0.00000000000E+00 0. -1.
         21   -1    0    0  501  502  0.00000000000E+00 -0.00000000000E+00 -0.10933365193E+04  0.10933365193E+04  0.00000000000E+00 0. -1.
   -9000010    2    1    2    0  502 -0.25990950375E+03  0.20325212081E+02 -0.69971080292E+03  0.12278485914E+04  0.97470554087E+03 0.  0.
         13    1    3    3    0    0  0.35458816079E+03 -0.12510372107E+03 -0.22918402749E+03  0.44035103544E+03  0.10566000000E+00 0. -1.
         -4    1    3    3    0  502 -0.61449766453E+03  0.14542893315E+03 -0.47052677543E+03  0.78749755600E+03  0.00000000000E+00 0. -1.
        -13    1    1    2    0    0  0.25990950375E+03 -0.20325212081E+02  0.15942712736E+01  0.26070791559E+03  0.10566000000E+00 0.  1.
<mgrwt>
<rscale>  1 0.71935730E+03</rscale>
<asrwt>0</asrwt>
<pdfrwt beam="2">  1       21 0.16820562E+00 0.10089683E+04</pdfrwt>
<pdfrwt beam="1">  1       -4 0.60803075E-01 0.10089683E+04</pdfrwt>
<totfact> 0.19795977E+01</totfact>
</mgrwt>
</event>
<event>
 6    2  0.2345636E-005  0.1041605E+04  0.7818608E-02  0.9633702E-01
         -4   -1    0    0    0  501 -0.00000000000E+00  0.00000000000E+00  0.47007942677E+03  0.47007942677E+03  0.00000000000E+00 0. -1.
         21   -1    0    0  501  502  0.00000000000E+00 -0.00000000000E+00 -0.95249683288E+03  0.95249683288E+03  0.00000000000E+00 0. -1.
   -9000010    2    1    2    0  502  0.24261111040E+03 -0.14288316118E+03 -0.46439618201E+03  0.11404406109E+04  0.10028286117E+04 0.  0.
         13    1    3    3    0    0  0.25445476828E+03 -0.25692613364E+03 -0.75003295297E+03  0.83265101270E+03  0.10566000000E+00 0. -1.
         -4    1    3    3    0  502 -0.11843657879E+02  0.11404297246E+03  0.28563677097E+03  0.30778959815E+03  0.00000000000E+00 0. -1.
        -13    1    1    2    0    0 -0.24261111040E+03  0.14288316118E+03 -0.18021224104E+02  0.28213564879E+03  0.10566000000E+00 0.  1.
<mgrwt>
<rscale>  1 0.75105172E+03</rscale>
<asrwt>0</asrwt>
<pdfrwt beam="2">  1       21 0.14653797E+00 0.10416050E+04</pdfrwt>
<pdfrwt beam="1">  1       -4 0.72319912E-01 0.10416050E+04</pdfrwt>
<totfact> 0.19860995E+01</totfact>
</mgrwt>
</event>
<event>
 6    2  0.2345636E-005  0.1125852E+04  0.7818608E-02  0.9407679E-01
         -4   -1    0    0    0  501 -0.00000000000E+00  0.00000000000E+00  0.21010455011E+04  0.21010455011E+04  0.00000000000E+00 0. -1.
         21   -1    0    0  501  502  0.00000000000E+00 -0.00000000000E+00 -0.34134304734E+03  0.34134304734E+03  0.00000000000E+00 0. -1.
   -9000010    2    1    2    0  502 -0.42370057096E+03  0.24618759924E+03  0.85576440744E+03  0.14141694518E+04  0.10136133433E+04 0.  0.
         13    1    3    3    0    0 -0.70991255360E+03  0.34341553172E+03  0.76466659799E+03  0.10984648736E+04  0.10566000000E+00 0. -1.
         -4    1    3    3    0  502  0.28621198265E+03 -0.97227932480E+02  0.91097809449E+02  0.31570457829E+03  0.00000000000E+00 0. -1.
        -13    1    1    2    0    0  0.42370057096E+03 -0.24618759924E+03  0.90393804629E+03  0.10282190966E+04  0.10566000000E+00 0.  1.
<mgrwt>
<rscale>  1 0.91446454E+03</rscale>
<asrwt>0</asrwt>
<pdfrwt beam="2">  1       21 0.52514316E-01 0.11258519E+04</pdfrwt>
<pdfrwt beam="1">  1       -4 0.32323776E+00 0.11258519E+04</pdfrwt>
<totfact> 0.29570478E+00</totfact>
</mgrwt>
</event>
<event>
 6    2  0.2345636E-005  0.1071282E+04  0.7818608E-02  0.9529333E-01
         21   -1    0    0  501  502  0.00000000000E+00  0.00000000000E+00  0.12810271197E+04  0.12810271197E+04  0.00000000000E+00 0.  1.
         -4   -1    0    0    0  501 -0.00000000000E+00 -0.00000000000E+00 -0.41926636036E+03  0.41926636036E+03  0.00000000000E+00 0. -1.
   -9000010    2    1    2    0  502  0.34511459474E+03  0.13488178889E+03  0.49919206779E+03  0.11818793138E+04  0.10051610873E+04 0.  0.
         13    1    3    3    0    0  0.62925333598E+03 -0.17029497738E+03  0.26548683926E+03  0.70387741344E+03  0.10566000000E+00 0. -1.
         -4    1    3    3    0  502 -0.28413874125E+03  0.30517676627E+03  0.23370522852E+03  0.47800190040E+03  0.00000000000E+00 0. -1.
        -13    1    1    2    0    0 -0.34511459474E+03 -0.13488178889E+03  0.36256869157E+03  0.51841416623E+03  0.10566000000E+00 0.  1.
<mgrwt>
<rscale>  1 0.82155329E+03</rscale>
<asrwt>0</asrwt>
<pdfrwt beam="1">  1       21 0.19708109E+00 0.10712824E+04</pdfrwt>
<pdfrwt beam="2">  1       -4 0.64502517E-01 0.10712824E+04</pdfrwt>
<totfact> 0.10682370E+01</totfact>
</mgrwt>
</event>
<event>
 6    2  0.2345636E-005  0.1046793E+04  0.7818608E-02  0.9623286E-01
         21   -1    0    0  501  502  0.00000000000E+00  0.00000000000E+00  0.81580209113E+03  0.81580209113E+03  0.00000000000E+00 0. -1.
         -4   -1    0    0    0  501 -0.00000000000E+00 -0.00000000000E+00 -0.54764481584E+03  0.54764481584E+03  0.00000000000E+00 0. -1.
   -9000010    2    1    2    0  502 -0.37856567134E+01 -0.28738186783E+03  0.17500677483E+03  0.10613216084E+04  0.10065652070E+04 0.  0.
         13    1    3    3    0    0 -0.19843418577E+03 -0.56483793440E+03  0.33554258143E+03  0.68629939045E+03  0.10566000000E+00 0. -1.
         -4    1    3    3    0  502  0.19464852905E+03  0.27745606657E+03 -0.16053580660E+03  0.37502221793E+03  0.00000000000E+00 0. -1.
        -13    1    1    2    0    0  0.37856567134E+01  0.28738186783E+03  0.93150500455E+02  0.30212529860E+03  0.10566000000E+00 0.  1.
<mgrwt>
<rscale>  1 0.75773966E+03</rscale>
<asrwt>0</asrwt>
<pdfrwt beam="1">  1       21 0.12550801E+00 0.10467933E+04</pdfrwt>
<pdfrwt beam="2">  1       -4 0.84253048E-01 0.10467933E+04</pdfrwt>
<totfact> 0.21256540E+01</totfact>
</mgrwt>
</event>
<event>
 6    2  0.2345636E-005  0.1044653E+04  0.7818608E-02  0.9614855E-01
         -4   -1    0    0    0  501 -0.00000000000E+00  0.00000000000E+00  0.15207745212E+04  0.15207745212E+04  0.00000000000E+00 0. -1.
         21   -1    0    0  501  502  0.00000000000E+00 -0.00000000000E+00 -0.39586838132E+03  0.39586838132E+03  0.00000000000E+00 0. -1.
   -9000010    2    1    2    0  502  0.16325057194E+03  0.24884395180E+03  0.37514039641E+03  0.11099690261E+04  0.10013625020E+04 0.  0.
         13    1    3    3    0    0  0.88576580831E+02  0.50048409899E+03 -0.14397888562E+03  0.52826136967E+03  0.10566000000E+00 0. -1.
         -4    1    3    3    0  502  0.74673991107E+02 -0.25164014719E+03  0.51911928203E+03  0.58170765647E+03  0.00000000000E+00 0. -1.
        -13    1    1    2    0    0 -0.16325057194E+03 -0.24884395180E+03  0.74976574352E+03  0.80667387642E+03  0.10566000000E+00 0.  1.
<mgrwt>
<rscale>  1 0.76320731E+03</rscale>
<asrwt>0</asrwt>
<pdfrwt beam="2">  1       21 0.60902829E-01 0.10446535E+04</pdfrwt>
<pdfrwt beam="1">  1       -4 0.23396531E+00 0.10446535E+04</pdfrwt>
<totfact> 0.77170656E+00</totfact>
</mgrwt>
</event>
<event>
 6    2  0.2345636E-005  0.1020100E+04  0.7818608E-02  0.1014478E+00
         -4   -1    0    0    0  501 -0.00000000000E+00  0.00000000000E+00  0.43308353411E+03  0.43308353411E+03  0.00000000000E+00 0. -1.
         21   -1    0    0  501  502  0.00000000000E+00 -0.00000000000E+00 -0.68779293446E+03  0.68779293446E+03  0.00000000000E+00 0. -1.
   -9000010    2    1    2    0  502  0.46629917129E+02 -0.33865635647E+02 -0.28016596593E+03  0.10578742595E+04  0.10184712809E+04 0.  0.
         13    1    3    3    0    0  0.33335084793E+03 -0.34890047100E+03  0.93156646533E+02  0.49145955931E+03  0.10566000000E+00 0. -1.
         -4    1    3    3    0  502 -0.28672093080E+03  0.31503483535E+03 -0.37332261247E+03  0.56641470022E+03  0.00000000000E+00 0. -1.
        -13    1    1    2    0    0 -0.46629917129E+02  0.33865635647E+02  0.25456565581E+02  0.63002209044E+02  0.10566000000E+00 0.  1.
<mgrwt>
<rscale>  1 0.49733013E+03</rscale>
<asrwt>0</asrwt>
<pdfrwt beam="2">  1       21 0.10581430E+00 0.10201005E+04</pdfrwt>
<pdfrwt beam="1">  1       -4 0.66628237E-01 0.10201005E+04</pdfrwt>
<totfact> 0.56280014E+01</totfact>
</mgrwt>
</event>
<event>
 6    2  0.2345636E-005  0.9924257E+03  0.7818608E-02  0.1024389E+00
         -4   -1    0    0    0  501 -0.00000000000E+00  0.00000000000E+00  0.20355483941E+04  0.20355483941E+04  0.00000000000E+00 0. -1.
         21   -1    0    0  501  502  0.00000000000E+00 -0.00000000000E+00 -0.13259514024E+03  0.13259514024E+03  0.00000000000E+00 0. -1.
   -9000010    2    1    2    0  502  0.46266764380E+02 -0.27719185967E+01  0.18073795682E+04  0.20619237736E+04  0.99134274979E+03 0.  0.
         13    1    3    3    0    0 -0.22952016055E+02 -0.49209561102E+03  0.79290670023E+03  0.93348054712E+03  0.10566000000E+00 0. -1.
         -4    1    3    3    0  502  0.69218780435E+02  0.48932369242E+03  0.10144728680E+04  0.11284432265E+04  0.00000000000E+00 0. -1.
        -13    1    1    2    0    0 -0.46266764380E+02  0.27719185967E+01  0.95573685654E+02  0.10621976074E+03  0.10566000000E+00 0.  1.
<mgrwt>
<rscale>  1 0.46135536E+03</rscale>
<asrwt>0</asrwt>
<pdfrwt beam="2">  1       21 0.20399254E-01 0.99242569E+03</pdfrwt>
<pdfrwt beam="1">  1       -4 0.31316127E+00 0.99242569E+03</pdfrwt>
<totfact> 0.24114442E+01</totfact>
</mgrwt>
</event>
<event>
 6    2  0.2345636E-005  0.1021481E+04  0.7818608E-02  0.9780119E-01
         -4   -1    0    0    0  501 -0.00000000000E+00  0.00000000000E+00  0.48543336866E+03  0.48543336866E+03  0.00000000000E+00 0. -1.
         21   -1    0    0  501  502  0.00000000000E+00 -0.00000000000E+00 -0.87536521101E+03  0.87536521101E+03  0.00000000000E+00 0. -1.
   -9000010    2    1    2    0  502 -0.58733603712E+02  0.17313576114E+03 -0.51035244572E+03  0.11418767652E+04  0.10049862188E+04 0.  0.
         13    1    3    3    0    0  0.19627167932E+03  0.51676248484E+03 -0.12659160125E+03  0.56709036538E+03  0.10566000000E+00 0. -1.
         -4    1    3    3    0  502 -0.25500528303E+03 -0.34362672369E+03 -0.38376084447E+03  0.57478639977E+03  0.00000000000E+00 0. -1.
        -13    1    1    2    0    0  0.58733603712E+02 -0.17313576114E+03  0.12042060337E+03  0.21892181452E+03  0.10566000000E+00 0.  1.
<mgrwt>
<rscale>  1 0.66440456E+03</rscale>
<asrwt>0</asrwt>
<pdfrwt beam="2">  1       21 0.13467157E+00 0.10214808E+04</pdfrwt>
<pdfrwt beam="1">  1       -4 0.74682058E-01 0.10214808E+04</pdfrwt>
<totfact> 0.23305212E+01</totfact>
</mgrwt>
</event>
<event>
 6    2  0.2345636E-005  0.1222376E+04  0.7818608E-02  0.9247563E-01
         -4   -1    0    0    0  501 -0.00000000000E+00  0.00000000000E+00  0.13043074204E+04  0.13043074204E+04  0.00000000000E+00 0. -1.
         21   -1    0    0  501  502  0.00000000000E+00 -0.00000000000E+00 -0.72352617583E+03  0.72352617583E+03  0.00000000000E+00 0. -1.
   -9000010    2    1    2    0  502 -0.12183287400E+03 -0.67396886225E+03  0.18354304240E+03  0.12360789139E+04  0.10124849414E+04 0.  0.
         13    1    3    3    0    0  0.27888656981E+03  0.12800628733E+03 -0.46890735747E+02  0.31042242296E+03  0.10566000000E+00 0. -1.
         -4    1    3    3    0  502 -0.40071944381E+03 -0.80197514958E+03  0.23043377814E+03  0.92565649098E+03  0.00000000000E+00 0. -1.
        -13    1    1    2    0    0  0.12183287400E+03  0.67396886225E+03  0.39723820216E+03  0.79175468227E+03  0.10566000000E+00 0.  1.
<mgrwt>
<rscale>  1 0.10575701E+04</rscale>
<asrwt>0</asrwt>
<pdfrwt beam="2">  1       21 0.11131172E+00 0.12223760E+04</pdfrwt>
<pdfrwt beam="1">  1       -4 0.20066268E+00 0.12223760E+04</pdfrwt>
<totfact> 0.29441024E+00</totfact>
</mgrwt>
</event>
<event>
 6    2  0.2345636E-005  0.1037974E+04  0.7818608E-02  0.9815624E-01
         -4   -1    0    0    0  501 -0.00000000000E+00  0.00000000000E+00  0.80176810475E+03  0.80176810475E+03  0.00000000000E+00 0. -1.
         21   -1    0    0  501  502  0.00000000000E+00 -0.00000000000E+00 -0.45238411256E+03  0.45238411256E+03  0.00000000000E+00 0. -1.
   -9000010    2    1    2    0  502  0.40690412970E+02 -0.14962889153E+03  0.24280790819E+03  0.10659954004E+04  0.10263264581E+04 0.  0.
         13    1    3    3    0    0  0.32885771649E+03  0.18958056689E+03  0.43833789941E+03  0.57985197617E+03  0.10566000000E+00 0. -1.
         -4    1    3    3    0  502 -0.28816730352E+03 -0.33920945842E+03 -0.19552999122E+03  0.48614342428E+03  0.00000000000E+00 0. -1.
        -13    1    1    2    0    0 -0.40690412970E+02  0.14962889153E+03  0.10657608400E+03  0.18815681687E+03  0.10566000000E+00 0.  1.
<mgrwt>
<rscale>  1 0.64530786E+03</rscale>
<asrwt>0</asrwt>
<pdfrwt beam="2">  1       21 0.69597556E-01 0.10379742E+04</pdfrwt>
<pdfrwt beam="1">  1       -4 0.12334894E+00 0.10379742E+04</pdfrwt>
<totfact> 0.35720574E+01</totfact>
</mgrwt>
</event>
<event>
 6    2  0.2345636E-005  0.1008193E+04  0.7818608E-02  0.9810725E-01
         -4   -1    0    0    0  501 -0.00000000000E+00  0.00000000000E+00  0.46141846516E+03  0.46141846516E+03  0.00000000000E+00 0. -1.
         21   -1    0    0  501  502  0.00000000000E+00 -0.00000000000E+00 -0.80680505446E+03  0.80680505446E+03  0.00000000000E+00 0. -1.
   -9000010    2    1    2    0  502  0.12834941199E+03 -0.11442766169E+03 -0.40461928718E+03  0.10863560267E+04  0.99342105267E+03 0.  0.
         13    1    3    3    0    0 -0.37309320209E+03 -0.45502520764E+02  0.81472370648E+02  0.38458649896E+03  0.10566000000E+00 0. -1.
         -4    1    3    3    0  502  0.50144261408E+03 -0.68925140928E+02 -0.48609165782E+03  0.70176952775E+03  0.00000000000E+00 0. -1.
        -13    1    1    2    0    0 -0.12834941199E+03  0.11442766169E+03  0.59232697877E+02  0.18186749292E+03  0.10566000000E+00 0.  1.
<mgrwt>
<rscale>  1 0.64790166E+03</rscale>
<asrwt>0</asrwt>
<pdfrwt beam="2">  1       21 0.12412385E+00 0.10081928E+04</pdfrwt>
<pdfrwt beam="1">  1       -4 0.70987457E-01 0.10081928E+04</pdfrwt>
<totfact> 0.32486604E+01</totfact>
</mgrwt>
</event>
<event>
 6    2  0.2345636E-005  0.1216012E+04  0.7818608E-02  0.9518994E-01
         -4   -1    0    0    0  501 -0.00000000000E+00  0.00000000000E+00  0.16132591891E+04  0.16132591891E+04  0.00000000000E+00 0. -1.
         21   -1    0    0  501  502  0.00000000000E+00 -0.00000000000E+00 -0.41642328243E+03  0.41642328243E+03  0.00000000000E+00 0. -1.
   -9000010    2    1    2    0  502 -0.98921662601E+02 -0.24329739964E+03  0.55596036338E+03  0.13370782605E+04  0.11873109235E+04 0.  0.
         13    1    3    3    0    0 -0.24274528322E+03 -0.56163172203E+03 -0.74448058877E+02  0.61635865237E+03  0.10566000000E+00 0. -1.
         -4    1    3    3    0  502  0.14382362062E+03  0.31833432239E+03  0.63040842226E+03  0.72071960811E+03  0.00000000000E+00 0. -1.
        -13    1    1    2    0    0  0.98921662601E+02  0.24329739964E+03  0.64087554327E+03  0.69260421102E+03  0.10566000000E+00 0.  1.
<mgrwt>
<rscale>  1 0.82897845E+03</rscale>
<asrwt>0</asrwt>
<pdfrwt beam="2">  1       21 0.64065121E-01 0.12160125E+04</pdfrwt>
<pdfrwt beam="1">  1       -4 0.24819372E+00 0.12160125E+04</pdfrwt>
<totfact> 0.55026198E+00</totfact>
</mgrwt>
</event>
<event>
 6    2  0.2345636E-005  0.1253760E+04  0.7818608E-02  0.9236443E-01
         21   -1    0    0  501  502  0.00000000000E+00  0.00000000000E+00  0.95563801597E+03  0.95563801597E+03  0.00000000000E+00 0. -1.
         -4   -1    0    0    0  501 -0.00000000000E+00 -0.00000000000E+00 -0.96224296005E+03  0.96224296005E+03  0.00000000000E+00 0. -1.
   -9000010    2    1    2    0  502 -0.30992390571E+03  0.58429497686E+03  0.44121755792E+02  0.12545359251E+04  0.10651104219E+04 0.  0.
         13    1    3    3    0    0 -0.30935221231E+03  0.69816440257E+03  0.41322505349E+03  0.86826682550E+03  0.10566000000E+00 0. -1.
         -4    1    3    3    0  502 -0.57169340184E+00 -0.11386942570E+03 -0.36910329769E+03  0.38626909961E+03  0.00000000000E+00 0. -1.
        -13    1    1    2    0    0  0.30992390571E+03 -0.58429497686E+03 -0.50726699880E+02  0.66334505091E+03  0.10566000000E+00 0.  1.
<mgrwt>
<rscale>  1 0.10685067E+04</rscale>
<asrwt>0</asrwt>
<pdfrwt beam="1">  1       21 0.14702123E+00 0.12537598E+04</pdfrwt>
<pdfrwt beam="2">  1       -4 0.14803738E+00 0.12537598E+04</pdfrwt>
<totfact> 0.33374087E+00</totfact>
</mgrwt>
</event>
<event>
 6    2  0.2345636E-005  0.1019038E+04  0.7818608E-02  0.9972644E-01
         -4   -1    0    0    0  501 -0.00000000000E+00  0.00000000000E+00  0.15273396118E+04  0.15273396118E+04  0.00000000000E+00 0. -1.
         21   -1    0    0  501  502  0.00000000000E+00 -0.00000000000E+00 -0.20853277353E+03  0.20853277353E+03  0.00000000000E+00 0. -1.
   -9000010    2    1    2    0  502 -0.61125183147E+02 -0.77647484812E+02  0.11222799075E+04  0.15158990560E+04  0.10142348532E+04 0.  0.
         13    1    3    3    0    0 -0.26032442131E+03  0.11688356488E+03  0.11946172456E+04  0.12282267489E+04  0.10566000000E+00 0. -1.
         -4    1    3    3    0  502  0.19919923816E+03 -0.19453104969E+03 -0.72337338150E+02  0.28767230709E+03  0.00000000000E+00 0. -1.
        -13    1    1    2    0    0  0.61125183147E+02  0.77647484812E+02  0.19652693076E+03  0.21997332927E+03  0.10566000000E+00 0.  1.
<mgrwt>
<rscale>  1 0.56866186E+03</rscale>
<asrwt>0</asrwt>
<pdfrwt beam="2">  1       21 0.32081966E-01 0.10190377E+04</pdfrwt>
<pdfrwt beam="1">  1       -4 0.23497532E+00 0.10190377E+04</pdfrwt>
<totfact> 0.29831710E+01</totfact>
</mgrwt>
</event>
<event>
 6    2  0.2345636E-005  0.1291603E+04  0.7818608E-02  0.9111798E-01
         -4   -1    0    0    0  501 -0.00000000000E+00  0.00000000000E+00  0.22202980046E+04  0.22202980046E+04  0.00000000000E+00 0. -1.
         21   -1    0    0  501  502  0.00000000000E+00 -0.00000000000E+00 -0.59861345465E+03  0.59861345465E+03  0.00000000000E+00 0.  1.
   -9000010    2    1    2    0  502 -0.95375296475E+03  0.15490132734E+03  0.64000065566E+03  0.14414709275E+04  0.85708719314E+03 0.  0.
         13    1    3    3    0    0 -0.73707391786E+03  0.19323534512E+03  0.84703857198E+03  0.11393384978E+04  0.10566000000E+00 0. -1.
         -4    1    3    3    0  502 -0.21667904690E+03 -0.38334017789E+02 -0.20703791633E+03  0.30213242971E+03  0.00000000000E+00 0. -1.
        -13    1    1    2    0    0  0.95375296475E+03 -0.15490132734E+03  0.98168389425E+03  0.13774405317E+04  0.10566000000E+00 0.  1.
<mgrwt>
<rscale>  1 0.12012104E+04</rscale>
<asrwt>0</asrwt>
<pdfrwt beam="2">  1       21 0.92094378E-01 0.12916027E+04</pdfrwt>
<pdfrwt beam="1">  1       -4 0.34158431E+00 0.12916027E+04</pdfrwt>
<totfact> 0.60536037E-01</totfact>
</mgrwt>
</event>
<event>
 6    2  0.2345636E-005  0.1010800E+04  0.7818608E-02  0.9888539E-01
         21   -1    0    0  501  502  0.00000000000E+00  0.00000000000E+00  0.33895831532E+03  0.33895831532E+03  0.00000000000E+00 0. -1.
         -4   -1    0    0    0  501 -0.00000000000E+00 -0.00000000000E+00 -0.12030173511E+04  0.12030173511E+04  0.00000000000E+00 0. -1.
   -9000010    2    1    2    0  502 -0.10807619747E+02 -0.13205044230E+03 -0.44854945292E+03  0.11058537241E+04  0.10020787012E+04 0.  0.
         13    1    3    3    0    0  0.11752361862E+03 -0.48913416146E+03 -0.51580099277E+03  0.72049615138E+03  0.10566000000E+00 0. -1.
         -4    1    3    3    0  502 -0.12833123837E+03  0.35708371917E+03  0.67251539859E+02  0.38535757271E+03  0.00000000000E+00 0. -1.
        -13    1    1    2    0    0  0.10807619747E+02  0.13205044230E+03 -0.41550958284E+03  0.43612194230E+03  0.10566000000E+00 0.  1.
<mgrwt>
<rscale>  1 0.60819974E+03</rscale>
<asrwt>0</asrwt>
<pdfrwt beam="1">  1       21 0.52147433E-01 0.10107996E+04</pdfrwt>
<pdfrwt beam="2">  1       -4 0.18507959E+00 0.10107996E+04</pdfrwt>
<totfact> 0.22730370E+01</totfact>
</mgrwt>
</event>
<event>
 6    2  0.2345636E-005  0.1004270E+04  0.7818608E-02  0.9865269E-01
         21   -1    0    0  501  502  0.00000000000E+00  0.00000000000E+00  0.14419286130E+04  0.14419286130E+04  0.00000000000E+00 0. -1.
         -4   -1    0    0    0  501 -0.00000000000E+00 -0.00000000000E+00 -0.26203491365E+03  0.26203491365E+03  0.00000000000E+00 0. -1.
   -9000010    2    1    2    0  502  0.80848151520E+02  0.12114600462E+03  0.11909986118E+04  0.15578946789E+04  0.99365253438E+03 0.  0.
         13    1    3    3    0    0 -0.31254232975E+03 -0.29030995376E+03  0.41182940080E+03  0.59293004956E+03  0.10566000000E+00 0. -1.
         -4    1    3    3    0  502  0.39339048127E+03  0.41145595838E+03  0.77916921101E+03  0.96496462931E+03  0.00000000000E+00 0. -1.
        -13    1    1    2    0    0 -0.80848151520E+02 -0.12114600462E+03 -0.11104912496E+02  0.14606884775E+03  0.10566000000E+00 0.  1.
<mgrwt>
<rscale>  1 0.61974435E+03</rscale>
<asrwt>0</asrwt>
<pdfrwt beam="1">  1       21 0.22183517E+00 0.10042700E+04</pdfrwt>
<pdfrwt beam="2">  1       -4 0.40313064E-01 0.10042700E+04</pdfrwt>
<totfact> 0.19869029E+01</totfact>
</mgrwt>
</event>
<event>
 6    2  0.2345636E-005  0.1013644E+04  0.7818608E-02  0.9783836E-01
         21   -1    0    0  501  502  0.00000000000E+00  0.00000000000E+00  0.26607146344E+03  0.26607146344E+03  0.00000000000E+00 0. -1.
         -4   -1    0    0    0  501 -0.00000000000E+00 -0.00000000000E+00 -0.18752303106E+04  0.18752303106E+04  0.00000000000E+00 0. -1.
   -9000010    2    1    2    0  502 -0.91725318968E+02  0.16045416064E+03 -0.74597197015E+03  0.12585500153E+04  0.99665183935E+03 0.  0.
         13    1    3    3    0    0  0.33711440196E+02 -0.41095803403E+03 -0.42117769177E+03  0.58941804022E+03  0.10566000000E+00 0. -1.
         -4    1    3    3    0  502 -0.12543675916E+03  0.57141219467E+03 -0.32479427838E+03  0.66913197505E+03  0.00000000000E+00 0. -1.
        -13    1    1    2    0    0  0.91725318968E+02 -0.16045416064E+03 -0.86318687703E+03  0.88275175879E+03  0.10566000000E+00 0.  1.
<mgrwt>
<rscale>  1 0.66237256E+03</rscale>
<asrwt>0</asrwt>
<pdfrwt beam="1">  1       21 0.40934071E-01 0.10136439E+04</pdfrwt>
<pdfrwt beam="2">  1       -4 0.28849697E+00 0.10136439E+04</pdfrwt>
<totfact> 0.84229903E+00</totfact>
</mgrwt>
</event>
<event>
 6    2  0.2345636E-005  0.9062528E+03  0.7818608E-02  0.9852882E-01
         -4   -1    0    0    0  501 -0.00000000000E+00  0.00000000000E+00  0.19762779722E+04  0.19762779722E+04  0.00000000000E+00 0. -1.
         21   -1    0    0  501  502  0.00000000000E+00 -0.00000000000E+00 -0.15725576149E+03  0.15725576149E+03  0.00000000000E+00 0. -1.
   -9000010    2    1    2    0  502  0.16365249103E+03  0.12565216658E+03  0.14250742520E+04  0.16888252785E+04  0.88245316748E+03 0.  0.
         13    1    3    3    0    0  0.70142111307E+02  0.14650241010E+03  0.15346787108E+04  0.15432503454E+04  0.10566000000E+00 0. -1.
         -4    1    3    3    0  502  0.93510379727E+02 -0.20850243516E+02 -0.10960445879E+03  0.14557493314E+03  0.00000000000E+00 0. -1.
        -13    1    1    2    0    0 -0.16365249103E+03 -0.12565216658E+03  0.39394795869E+03  0.44470845518E+03  0.10566000000E+00 0.  1.
<mgrwt>
<rscale>  1 0.62600208E+03</rscale>
<asrwt>0</asrwt>
<pdfrwt beam="2">  1       21 0.24193196E-01 0.90625283E+03</pdfrwt>
<pdfrwt beam="1">  1       -4 0.30404275E+00 0.90625283E+03</pdfrwt>
<totfact> 0.19907190E+01</totfact>
</mgrwt>
</event>
<event>
 6    2  0.2345636E-005  0.9939035E+03  0.7818608E-02  0.9995664E-01
         -4   -1    0    0    0  501 -0.00000000000E+00  0.00000000000E+00  0.85634988140E+03  0.85634988140E+03  0.00000000000E+00 0. -1.
         21   -1    0    0  501  502  0.00000000000E+00 -0.00000000000E+00 -0.36170351861E+03  0.36170351861E+03  0.00000000000E+00 0. -1.
   -9000010    2    1    2    0  502  0.90453124788E+02 -0.40316834700E+02  0.37393847469E+03  0.10619200584E+04  0.98895753836E+03 0.  0.
         13    1    3    3    0    0 -0.35154402559E+03  0.26827901848E+03  0.25291974143E+03  0.50943619861E+03  0.10566000000E+00 0. -1.
         -4    1    3    3    0  502  0.44199715038E+03 -0.30859585318E+03  0.12101873326E+03  0.55248385981E+03  0.00000000000E+00 0. -1.
        -13    1    1    2    0    0 -0.90453124788E+02  0.40316834700E+02  0.12070788809E+03  0.15613334159E+03  0.10566000000E+00 0.  1.
<mgrwt>
<rscale>  1 0.55840776E+03</rscale>
<asrwt>0</asrwt>
<pdfrwt beam="2">  1       21 0.55646695E-01 0.99390353E+03</pdfrwt>
<pdfrwt beam="1">  1       -4 0.13174614E+00 0.99390353E+03</pdfrwt>
<totfact> 0.50046441E+01</totfact>
</mgrwt>
</event>
<event>
 6    2  0.2345636E-005  0.1177586E+04  0.7818608E-02  0.9295756E-01
         21   -1    0    0  501  502  0.00000000000E+00  0.00000000000E+00  0.47026008988E+03  0.47026008988E+03  0.00000000000E+00 0.  1.
         -4   -1    0    0    0  501 -0.00000000000E+00 -0.00000000000E+00 -0.18532105419E+04  0.18532105419E+04  0.00000000000E+00 0. -1.
   -9000010    2    1    2    0  502  0.61372252063E+01  0.64163305121E+03 -0.11351356709E+04  0.16356168575E+04  0.98741018588E+03 0.  0.
         13    1    3    3    0    0 -0.23642578846E+03  0.69559825260E+03 -0.35324880862E+03  0.81519250145E+03  0.10566000000E+00 0. -1.
         -4    1    3    3    0  502  0.24256301367E+03 -0.53965201392E+02 -0.78188686227E+03  0.82042435602E+03  0.00000000000E+00 0. -1.
        -13    1    1    2    0    0 -0.61372252063E+01 -0.64163305121E+03 -0.24781478116E+03  0.68785377433E+03  0.10566000000E+00 0.  1.
<mgrwt>
<rscale>  1 0.10117455E+04</rscale>
<asrwt>0</asrwt>
<pdfrwt beam="1">  1       21 0.72347706E-01 0.11775863E+04</pdfrwt>
<pdfrwt beam="2">  1       -4 0.28510931E+00 0.11775863E+04</pdfrwt>
<totfact> 0.24723892E+00</totfact>
</mgrwt>
</event>
<event>
 6    2  0.2345636E-005  0.9945652E+03  0.7818608E-02  0.1006819E+00
         21   -1    0    0  501  502  0.00000000000E+00  0.00000000000E+00  0.16856820139E+04  0.16856820139E+04  0.00000000000E+00 0. -1.
         -4   -1    0    0    0  501 -0.00000000000E+00 -0.00000000000E+00 -0.17937049509E+03  0.17937049509E+03  0.00000000000E+00 0. -1.
   -9000010    2    1    2    0  502  0.73559456542E+02 -0.28129235706E+02  0.14777784249E+04  0.17812885779E+04  0.99144222070E+03 0.  0.
         13    1    3    3    0    0  0.27750728164E+03  0.26745936003E+03  0.13438196995E+04  0.13979972091E+04  0.10566000000E+00 0. -1.
         -4    1    3    3    0  502 -0.20394782509E+03 -0.29558859574E+03  0.13395872542E+03  0.38329136881E+03  0.00000000000E+00 0. -1.
        -13    1    1    2    0    0 -0.73559456542E+02  0.28129235706E+02  0.28533093928E+02  0.83763931147E+02  0.10566000000E+00 0.  1.
<mgrwt>
<rscale>  1 0.52758650E+03</rscale>
<asrwt>0</asrwt>
<pdfrwt beam="1">  1       21 0.25933568E+00 0.99456519E+03</pdfrwt>
<pdfrwt beam="2">  1       -4 0.27595462E-01 0.99456519E+03</pdfrwt>
<totfact> 0.24254741E+01</totfact>
</mgrwt>
</event>
<event>
 6    2  0.2345636E-005  0.1344206E+04  0.7818608E-02  0.9097894E-01
         21   -1    0    0  501  502  0.00000000000E+00  0.00000000000E+00  0.11488879858E+04  0.11488879858E+04  0.00000000000E+00 0.  1.
         -4   -1    0    0    0  501 -0.00000000000E+00 -0.00000000000E+00 -0.11314110102E+04  0.11314110102E+04  0.00000000000E+00 0. -1.
   -9000010    2    1    2    0  502 -0.57853821195E+03  0.69448385335E+03 -0.17675363056E+03  0.13557775928E+04  0.99492549975E+03 0.  0.
         13    1    3    3    0    0 -0.32247887099E+03  0.23560004306E+03  0.40708484916E+03  0.57027895639E+03  0.10566000000E+00 0. -1.
         -4    1    3    3    0  502 -0.25605934096E+03  0.45888381029E+03 -0.58383847972E+03  0.78549863644E+03  0.00000000000E+00 0. -1.
        -13    1    1    2    0    0  0.57853821195E+03 -0.69448385335E+03  0.19423060617E+03  0.92452140310E+03  0.10566000000E+00 0.  1.
<mgrwt>
<rscale>  1 0.12172457E+04</rscale>
<asrwt>0</asrwt>
<pdfrwt beam="1">  1       21 0.17675200E+00 0.13442065E+04</pdfrwt>
<pdfrwt beam="2">  1       -4 0.17406323E+00 0.13442065E+04</pdfrwt>
<totfact> 0.12373772E+00</totfact>
</mgrwt>
</event>
<event>
 6    2  0.2345636E-005  0.9903082E+03  0.7818608E-02  0.1058460E+00
         -4   -1    0    0    0  501 -0.00000000000E+00  0.00000000000E+00  0.45344985067E+03  0.45344985067E+03  0.00000000000E+00 0. -1.
         21   -1    0    0  501  502  0.00000000000E+00 -0.00000000000E+00 -0.59826834465E+03  0.59826834465E+03  0.00000000000E+00 0. -1.
   -9000010    2    1    2    0  502  0.17251252077E+02 -0.18847490030E+01 -0.18546176837E+03  0.10075249278E+04  0.99015617689E+03 0.  0.
         13    1    3    3    0    0  0.48281810619E+02 -0.19814083719E+03 -0.55317067995E+03  0.58956656700E+03  0.10566000000E+00 0. -1.
         -4    1    3    3    0  502 -0.31030558541E+02  0.19625608819E+03  0.36770891158E+03  0.41795836081E+03  0.00000000000E+00 0. -1.
        -13    1    1    2    0    0 -0.17251252077E+02  0.18847490030E+01  0.40643274391E+02  0.44193267522E+02  0.10566000000E+00 0.  1.
<mgrwt>
<rscale>  1 0.36031231E+03</rscale>
<asrwt>0</asrwt>
<pdfrwt beam="2">  1       21 0.92041283E-01 0.99030824E+03</pdfrwt>
<pdfrwt beam="1">  1       -4 0.69761516E-01 0.99030824E+03</pdfrwt>
<totfact> 0.71871853E+01</totfact>
</mgrwt>
</event>
<event>
 6    2  0.2345636E-005  0.1041874E+04  0.7818608E-02  0.9638332E-01
         -4   -1    0    0    0  501 -0.00000000000E+00  0.00000000000E+00  0.20464351722E+04  0.20464351722E+04  0.00000000000E+00 0. -1.
         21   -1    0    0  501  502  0.00000000000E+00 -0.00000000000E+00 -0.22150122694E+03  0.22150122694E+03  0.00000000000E+00 0. -1.
   -9000010    2    1    2    0  502  0.27578277572E+03 -0.25379468548E+02  0.12317902793E+04  0.16133222559E+04  0.10043909361E+04 0.  0.
         13    1    3    3    0    0  0.51055999387E+03 -0.22092275940E+03  0.29858982927E+03  0.63137490469E+03  0.10566000000E+00 0. -1.
         -4    1    3    3    0  502 -0.23477721815E+03  0.19554329085E+03  0.93320045000E+03  0.98194735125E+03  0.00000000000E+00 0. -1.
        -13    1    1    2    0    0 -0.27578277572E+03  0.25379468548E+02  0.59314366595E+03  0.65461414316E+03  0.10566000000E+00 0.  1.
<mgrwt>
<rscale>  1 0.74810233E+03</rscale>
<asrwt>0</asrwt>
<pdfrwt beam="2">  1       21 0.34077113E-01 0.10418740E+04</pdfrwt>
<pdfrwt beam="1">  1       -4 0.31483617E+00 0.10418740E+04</pdfrwt>
<totfact> 0.84255419E+00</totfact>
</mgrwt>
</event>
<event>
 6    2  0.2345636E-005  0.1098012E+04  0.7818608E-02  0.9453291E-01
         -4   -1    0    0    0  501 -0.00000000000E+00  0.00000000000E+00  0.11398953562E+04  0.11398953562E+04  0.00000000000E+00 0. -1.
         21   -1    0    0  501  502  0.00000000000E+00 -0.00000000000E+00 -0.60262504316E+03  0.60262504316E+03  0.00000000000E+00 0. -1.
   -9000010    2    1    2    0  502 -0.44853855545E+03 -0.25301401442E+02  0.79119756014E+02  0.11008593201E+04  0.10019003494E+04 0.  0.
         13    1    3    3    0    0 -0.78130851619E+02  0.41535992702E+03 -0.19240223615E+03  0.46437800399E+03  0.10566000000E+00 0. -1.
         -4    1    3    3    0  502 -0.37040770383E+03 -0.44066132847E+03  0.27152199217E+03  0.63648131606E+03  0.00000000000E+00 0. -1.
        -13    1    1    2    0    0  0.44853855545E+03  0.25301401442E+02  0.45815055701E+03  0.64166107930E+03  0.10566000000E+00 0.  1.
<mgrwt>
<rscale>  1 0.87816850E+03</rscale>
<asrwt>0</asrwt>
<pdfrwt beam="2">  1       21 0.92711545E-01 0.10980124E+04</pdfrwt>
<pdfrwt beam="1">  1       -4 0.17536852E+00 0.10980124E+04</pdfrwt>
<totfact> 0.70258553E+00</totfact>
</mgrwt>
</event>
<event>
 6    2  0.2345636E-005  0.1207501E+04  0.7818608E-02  0.9256870E-01
         21   -1    0    0  501  502  0.00000000000E+00  0.00000000000E+00  0.63512922721E+03  0.63512922721E+03  0.00000000000E+00 0.  1.
         -4   -1    0    0    0  501 -0.00000000000E+00 -0.00000000000E+00 -0.14226816056E+04  0.14226816056E+04  0.00000000000E+00 0. -1.
   -9000010    2    1    2    0  502  0.15083468905E+02  0.68634865083E+03 -0.41567380714E+03  0.12770447574E+04  0.99335623871E+03 0.  0.
         13    1    3    3    0    0 -0.35321617436E+03 -0.75092710519E+02 -0.10670937301E+03  0.37654678654E+03  0.10566000000E+00 0. -1.
         -4    1    3    3    0  502  0.36829964326E+03  0.76144136135E+03 -0.30896443412E+03  0.90049797088E+03  0.00000000000E+00 0. -1.
        -13    1    1    2    0    0 -0.15083468905E+02 -0.68634865083E+03 -0.37187857120E+03  0.78076607535E+03  0.10566000000E+00 0.  1.
<mgrwt>
<rscale>  1 0.10485232E+04</rscale>
<asrwt>0</asrwt>
<pdfrwt beam="1">  1       21 0.97712188E-01 0.12075010E+04</pdfrwt>
<pdfrwt beam="2">  1       -4 0.21887409E+00 0.12075010E+04</pdfrwt>
<totfact> 0.31138908E+00</totfact>
</mgrwt>
</event>
<event>
 6    2  0.2345636E-005  0.1078790E+04  0.7818608E-02  0.9491608E-01
         21   -1    0    0  501  502  0.00000000000E+00  0.00000000000E+00  0.69963306791E+03  0.69963306791E+03  0.00000000000E+00 0. -1.
         -4   -1    0    0    0  501 -0.00000000000E+00 -0.00000000000E+00 -0.83491705725E+03  0.83491705725E+03  0.00000000000E+00 0. -1.
   -9000010    2    1    2    0  502  0.28217055233E+03 -0.30285394166E+03  0.52384621843E+02  0.10800611271E+04  0.99621642180E+03 0.  0.
         13    1    3    3    0    0 -0.22931403763E+03 -0.46684219809E+03  0.13314654600E+03  0.53689345279E+03  0.10566000000E+00 0. -1.
         -4    1    3    3    0  502  0.51148458996E+03  0.16398825642E+03 -0.80761924156E+02  0.54316767430E+03  0.00000000000E+00 0. -1.
        -13    1    1    2    0    0 -0.28217055233E+03  0.30285394166E+03 -0.18766861118E+03  0.45448899807E+03  0.10566000000E+00 0.  1.
<mgrwt>
<rscale>  1 0.84905391E+03</rscale>
<asrwt>0</asrwt>
<pdfrwt beam="1">  1       21 0.10763586E+00 0.10787900E+04</pdfrwt>
<pdfrwt beam="2">  1       -4 0.12844878E+00 0.10787900E+04</pdfrwt>
<totfact> 0.11262377E+01</totfact>
</mgrwt>
</event>
<event>
 6    2  0.2345636E-005  0.1252012E+04  0.7818608E-02  0.9219156E-01
         -4   -1    0    0    0  501 -0.00000000000E+00  0.00000000000E+00  0.88125115511E+03  0.88125115511E+03  0.00000000000E+00 0. -1.
         21   -1    0    0  501  502  0.00000000000E+00 -0.00000000000E+00 -0.17721271605E+04  0.17721271605E+04  0.00000000000E+00 0. -1.
   -9000010    2    1    2    0  502 -0.51237675283E+03 -0.48888840544E+03 -0.13248072145E+04  0.18228133783E+04  0.10324691990E+04 0.  0.
         13    1    3    3    0    0 -0.39990255259E+03  0.20911825659E+03 -0.19853689539E+03  0.49302069613E+03  0.10566000000E+00 0. -1.
         -4    1    3    3    0  502 -0.11247420024E+03 -0.69800666203E+03 -0.11262703191E+04  0.13297926822E+04  0.00000000000E+00 0. -1.
        -13    1    1    2    0    0  0.51237675283E+03  0.48888840544E+03  0.43393120903E+03  0.83056493734E+03  0.10566000000E+00 0.  1.
<mgrwt>
<rscale>  1 0.10857874E+04</rscale>
<asrwt>0</asrwt>
<pdfrwt beam="2">  1       21 0.27263495E+00 0.12520122E+04</pdfrwt>
<pdfrwt beam="1">  1       -4 0.13557710E+00 0.12520122E+04</pdfrwt>
<totfact> 0.56548591E-01</totfact>
</mgrwt>
</event>
<event>
 6    2  0.2345636E-005  0.1012636E+04  0.7818608E-02  0.9939078E-01
         21   -1    0    0  501  502  0.00000000000E+00  0.00000000000E+00  0.73690538069E+03  0.73690538069E+03  0.00000000000E+00 0. -1.
         -4   -1    0    0    0  501 -0.00000000000E+00 -0.00000000000E+00 -0.48905419181E+03  0.48905419181E+03  0.00000000000E+00 0. -1.
   -9000010    2    1    2    0  502 -0.91393451382E+02  0.64828328896E+02  0.35289994211E+03  0.10723668419E+04  0.10064178055E+04 0.  0.
         13    1    3    3    0    0 -0.33654309619E+03  0.30165605472E+03 -0.13995640622E+03  0.47312306830E+03  0.10566000000E+00 0. -1.
         -4    1    3    3    0  502  0.24514964481E+03 -0.23682772583E+03  0.49285634833E+03  0.59924377357E+03  0.00000000000E+00 0. -1.
        -13    1    1    2    0    0  0.91393451382E+02 -0.64828328896E+02 -0.10504875323E+03  0.15359273063E+03  0.10566000000E+00 0.  1.
<mgrwt>
<rscale>  1 0.58404231E+03</rscale>
<asrwt>0</asrwt>
<pdfrwt beam="1">  1       21 0.11337006E+00 0.10126363E+04</pdfrwt>
<pdfrwt beam="2">  1       -4 0.75239106E-01 0.10126363E+04</pdfrwt>
<totfact> 0.35997263E+01</totfact>
</mgrwt>
</event>
<event>
 6    2  0.2345636E-005  0.1025135E+04  0.7818608E-02  0.9658095E-01
         21   -1    0    0  501  502  0.00000000000E+00  0.00000000000E+00  0.38743721119E+03  0.38743721119E+03  0.00000000000E+00 0. -1.
         -4   -1    0    0    0  501 -0.00000000000E+00 -0.00000000000E+00 -0.11068149598E+04  0.11068149598E+04  0.00000000000E+00 0. -1.
   -9000010    2    1    2    0  502 -0.22411853216E+03 -0.15394192034E+03 -0.47978528277E+03  0.11318548860E+04  0.98842012029E+03 0.  0.
         13    1    3    3    0    0  0.33900907817E+03 -0.24989735353E+03 -0.34622613885E+03  0.54520490897E+03  0.10566000000E+00 0. -1.
         -4    1    3    3    0  502 -0.56312761033E+03  0.95955433183E+02 -0.13355914392E+03  0.58664997707E+03  0.00000000000E+00 0. -1.
        -13    1    1    2    0    0  0.22411853216E+03  0.15394192034E+03 -0.23959246587E+03  0.36239728498E+03  0.10566000000E+00 0.  1.
<mgrwt>
<rscale>  1 0.73567556E+03</rscale>
<asrwt>0</asrwt>
<pdfrwt beam="1">  1       21 0.59605724E-01 0.10251349E+04</pdfrwt>
<pdfrwt beam="2">  1       -4 0.17027923E+00 0.10251349E+04</pdfrwt>
<totfact> 0.21491853E+01</totfact>
</mgrwt>
</event>
<event>
 6    2  0.2345636E-005  0.1195990E+04  0.7818608E-02  0.9282635E-01
         21   -1    0    0  501  502  0.00000000000E+00  0.00000000000E+00  0.54699864899E+03  0.54699864899E+03  0.00000000000E+00 0.  1.
         -4   -1    0    0    0  501 -0.00000000000E+00 -0.00000000000E+00 -0.15539475161E+04  0.15539475161E+04  0.00000000000E+00 0. -1.
   -9000010    2    1    2    0  502  0.63961390440E+03 -0.62358626606E+02 -0.57834885972E+03  0.13284874138E+04  0.10086609242E+04 0.  0.
         13    1    3    3    0    0 -0.25315001181E+03  0.10515927529E+03 -0.53116833874E+02  0.27922179511E+03  0.10566000000E+00 0. -1.
         -4    1    3    3    0  502  0.89276391621E+03 -0.16751790190E+03 -0.52523202584E+03  0.10492656187E+04  0.00000000000E+00 0. -1.
        -13    1    1    2    0    0 -0.63961390440E+03  0.62358626606E+02 -0.42860000742E+03  0.77245875135E+03  0.10566000000E+00 0.  1.
<mgrwt>
<rscale>  1 0.10239733E+04</rscale>
<asrwt>0</asrwt>
<pdfrwt beam="1">  1       21 0.84153638E-01 0.11959897E+04</pdfrwt>
<pdfrwt beam="2">  1       -4 0.23906885E+00 0.11959897E+04</pdfrwt>
<totfact> 0.33376875E+00</totfact>
</mgrwt>
</event>
<event>
 6    2  0.2345636E-005  0.9996340E+03  0.7818608E-02  0.1021142E+00
         -4   -1    0    0    0  501 -0.00000000000E+00  0.00000000000E+00  0.65835757378E+03  0.65835757378E+03  0.00000000000E+00 0. -1.
         21   -1    0    0  501  502  0.00000000000E+00 -0.00000000000E+00 -0.42191008422E+03  0.42191008422E+03  0.00000000000E+00 0. -1.
   -9000010    2    1    2    0  502 -0.30375925987E+02 -0.39728491582E+02  0.24575186100E+03  0.10293988816E+04  0.99838220651E+03 0.  0.
         13    1    3    3    0    0  0.35933292076E+03  0.18692877352E+02  0.45750230889E+03  0.58204634301E+03  0.10566000000E+00 0. -1.
         -4    1    3    3    0  502 -0.38970884675E+03 -0.58421368934E+02 -0.21175044790E+03  0.44735253857E+03  0.00000000000E+00 0. -1.
        -13    1    1    2    0    0  0.30375925987E+02  0.39728491582E+02 -0.93043714280E+01  0.50868776422E+02  0.10566000000E+00 0.  1.
<mgrwt>
<rscale>  1 0.47276612E+03</rscale>
<asrwt>0</asrwt>
<pdfrwt beam="2">  1       21 0.64909244E-01 0.99963397E+03</pdfrwt>
<pdfrwt beam="1">  1       -4 0.10128578E+00 0.99963397E+03</pdfrwt>
<totfact> 0.68373887E+01</totfact>
</mgrwt>
</event>
<event>
 6    2  0.2345636E-005  0.1013640E+04  0.7818608E-02  0.9822394E-01
         -4   -1    0    0    0  501 -0.00000000000E+00  0.00000000000E+00  0.11322383553E+04  0.11322383553E+04  0.00000000000E+00 0. -1.
         21   -1    0    0  501  502  0.00000000000E+00 -0.00000000000E+00 -0.33339094074E+03  0.33339094074E+03  0.00000000000E+00 0. -1.
   -9000010    2    1    2    0  502  0.30220061323E+02  0.16002514119E+03  0.51160326957E+03  0.11354316160E+04  0.10004727639E+04 0.  0.
         13    1    3    3    0    0  0.16263694737E+03  0.52686399121E+03  0.50142224953E+03  0.74529237576E+03  0.10566000000E+00 0. -1.
         -4    1    3    3    0  502 -0.13241688604E+03 -0.36683885002E+03  0.10181020044E+02  0.39013924022E+03  0.00000000000E+00 0. -1.
        -13    1    1    2    0    0 -0.30220061323E+02 -0.16002514119E+03  0.28724414501E+03  0.33019768007E+03  0.10566000000E+00 0.  1.
<mgrwt>
<rscale>  1 0.64174476E+03</rscale>
<asrwt>0</asrwt>
<pdfrwt beam="2">  1       21 0.51290914E-01 0.10136405E+04</pdfrwt>
<pdfrwt beam="1">  1       -4 0.17419051E+00 0.10136405E+04</pdfrwt>
<totfact> 0.28070091E+01</totfact>
</mgrwt>
</event>
<event>
 6    2  0.2345636E-005  0.7357196E+03  0.7818608E-02  0.1025024E+00
         21   -1    0    0  501  502  0.00000000000E+00  0.00000000000E+00  0.80869859875E+03  0.80869859875E+03  0.00000000000E+00 0. -1.
         -4   -1    0    0    0  501 -0.00000000000E+00 -0.00000000000E+00 -0.23641098308E+03  0.23641098308E+03  0.00000000000E+00 0. -1.
   -9000010    2    1    2    0  502 -0.54690979451E+02 -0.97302260183E+02  0.57452512775E+03  0.93346796461E+03  0.72720319408E+03 0.  0.
         13    1    3    3    0    0 -0.26109551975E+03 -0.27022235819E+03  0.10157942641E+03  0.38924206394E+03  0.10566000000E+00 0. -1.
         -4    1    3    3    0  502  0.20640454030E+03  0.17292009801E+03  0.47294570134E+03  0.54422590068E+03  0.00000000000E+00 0. -1.
        -13    1    1    2    0    0  0.54690979451E+02  0.97302260183E+02 -0.22375120717E+01  0.11164161721E+03  0.10566000000E+00 0.  1.
<mgrwt>
<rscale>  1 0.45916519E+03</rscale>
<asrwt>0</asrwt>
<pdfrwt beam="1">  1       21 0.12441517E+00 0.73571959E+03</pdfrwt>
<pdfrwt beam="2">  1       -4 0.36370921E-01 0.73571959E+03</pdfrwt>
<totfact> 0.13642941E+02</totfact>
</mgrwt>
</event>
<event>
 6    2  0.2345636E-005  0.9966349E+03  0.7818608E-02  0.1017020E+00
         -4   -1    0    0    0  501 -0.00000000000E+00  0.00000000000E+00  0.45371797081E+03  0.45371797081E+03  0.00000000000E+00 0. -1.
         21   -1    0    0  501  502  0.00000000000E+00 -0.00000000000E+00 -0.70040768921E+03  0.70040768921E+03  0.00000000000E+00 0. -1.
   -9000010    2    1    2    0  502 -0.30574302162E+02  0.48322532873E+02 -0.33282304979E+03  0.10507389245E+04  0.99499309039E+03 0.  0.
         13    1    3    3    0    0  0.47777741026E+03 -0.36167158194E+02 -0.12579274318E+03  0.49538181485E+03  0.10566000000E+00 0. -1.
         -4    1    3    3    0  502 -0.50835171242E+03  0.84489691067E+02 -0.20703030661E+03  0.55535710968E+03  0.00000000000E+00 0. -1.
        -13    1    1    2    0    0  0.30574302162E+02 -0.48322532873E+02  0.86133331390E+02  0.10338673549E+03  0.10566000000E+00 0.  1.
<mgrwt>
<rscale>  1 0.48777363E+03</rscale>
<asrwt>0</asrwt>
<pdfrwt beam="2">  1       21 0.10775503E+00 0.99663489E+03</pdfrwt>
<pdfrwt beam="1">  1       -4 0.69802765E-01 0.99663489E+03</pdfrwt>
<totfact> 0.48557504E+01</totfact>
</mgrwt>
</event>
<event>
 6    2  0.2345636E-005  0.1057472E+04  0.7818608E-02  0.9668079E-01
         21   -1    0    0  501  502  0.00000000000E+00  0.00000000000E+00  0.62003571537E+03  0.62003571537E+03  0.00000000000E+00 0. -1.
         -4   -1    0    0    0  501 -0.00000000000E+00 -0.00000000000E+00 -0.11813805432E+04  0.11813805432E+04  0.00000000000E+00 0. -1.
   -9000010    2    1    2    0  502  0.16405419888E+03  0.17447342943E+03  0.13405328435E+03  0.10659345774E+04  0.10299958653E+04 0.  0.
         13    1    3    3    0    0  0.48862424599E+03 -0.90621770326E+02  0.33686145576E+03  0.60036789602E+03  0.10566000000E+00 0. -1.
         -4    1    3    3    0  502 -0.32457004711E+03  0.26509519976E+03 -0.20280817141E+03  0.46556668137E+03  0.00000000000E+00 0. -1.
        -13    1    1    2    0    0 -0.16405419888E+03 -0.17447342943E+03 -0.69539811222E+03  0.73548168121E+03  0.10566000000E+00 0.  1.
<mgrwt>
<rscale>  1 0.72949570E+03</rscale>
<asrwt>0</asrwt>
<pdfrwt beam="1">  1       21 0.95390111E-01 0.10574716E+04</pdfrwt>
<pdfrwt beam="2">  1       -4 0.18175085E+00 0.10574716E+04</pdfrwt>
<totfact> 0.59382975E+00</totfact>
</mgrwt>
</event>
<event>
 6    2  0.2345636E-005  0.1040631E+04  0.7818608E-02  0.9719498E-01
         21   -1    0    0  501  502  0.00000000000E+00  0.00000000000E+00  0.17860144967E+04  0.17860144967E+04  0.00000000000E+00 0. -1.
         -4   -1    0    0    0  501 -0.00000000000E+00 -0.00000000000E+00 -0.22332811144E+03  0.22332811144E+03  0.00000000000E+00 0. -1.
   -9000010    2    1    2    0  502 -0.20118877496E+03  0.65080349408E+02  0.13897377120E+04  0.17361693485E+04  0.10189213529E+04 0.  0.
         13    1    3    3    0    0 -0.28432773317E+03  0.33725132365E+03  0.15266434780E+03  0.46678381442E+03  0.10566000000E+00 0. -1.
         -4    1    3    3    0  502  0.83138958206E+02 -0.27217097425E+03  0.12370733642E+04  0.12693855341E+04  0.00000000000E+00 0. -1.
        -13    1    1    2    0    0  0.20118877496E+03 -0.65080349408E+02  0.17294867324E+03  0.27317325965E+03  0.10566000000E+00 0.  1.
<mgrwt>
<rscale>  1 0.69867642E+03</rscale>
<asrwt>0</asrwt>
<pdfrwt beam="1">  1       21 0.27477145E+00 0.10406311E+04</pdfrwt>
<pdfrwt beam="2">  1       -4 0.34358172E-01 0.10406311E+04</pdfrwt>
<totfact> 0.12526486E+01</totfact>
</mgrwt>
</event>
<event>
 6    2  0.2345636E-005  0.9879397E+03  0.7818608E-02  0.1000380E+00
         -4   -1    0    0    0  501 -0.00000000000E+00  0.00000000000E+00  0.71705665663E+03  0.71705665663E+03  0.00000000000E+00 0. -1.
         21   -1    0    0  501  502  0.00000000000E+00 -0.00000000000E+00 -0.50202870590E+03  0.50202870590E+03  0.00000000000E+00 0. -1.
   -9000010    2    1    2    0  502  0.78016492934E+02  0.59776376229E+02  0.58376860043E+01  0.98795689967E+03  0.98303864049E+03 0.  0.
         13    1    3    3    0    0  0.46091351990E+03  0.68864639873E+02 -0.24855066565E+03  0.52816764006E+03  0.10566000000E+00 0. -1.
         -4    1    3    3    0  502 -0.38289702696E+03 -0.90882636436E+01  0.25438835166E+03  0.45978925961E+03  0.00000000000E+00 0. -1.
        -13    1    1    2    0    0 -0.78016492934E+02 -0.59776376229E+02  0.20919026472E+03  0.23112846286E+03  0.10566000000E+00 0.  1.
<mgrwt>
<rscale>  1 0.55484136E+03</rscale>
<asrwt>0</asrwt>
<pdfrwt beam="2">  1       21 0.77235186E-01 0.98793965E+03</pdfrwt>
<pdfrwt beam="1">  1       -4 0.11031641E+00 0.98793965E+03</pdfrwt>
<totfact> 0.37259254E+01</totfact>
</mgrwt>
</event>
<event>
 6    2  0.2345636E-005  0.1005576E+04  0.7818608E-02  0.9985273E-01
         21   -1    0    0  501  502  0.00000000000E+00  0.00000000000E+00  0.12290934800E+03  0.12290934800E+03  0.00000000000E+00 0. -1.
         -4   -1    0    0    0  501 -0.00000000000E+00 -0.00000000000E+00 -0.25431234654E+04  0.25431234654E+04  0.00000000000E+00 0. -1.
   -9000010    2    1    2    0  502 -0.96412236747E+02 -0.21646531978E+02 -0.20572739866E+04  0.22898819907E+04  0.10007094401E+04 0.  0.
         13    1    3    3    0    0 -0.36837950501E+03  0.29192862469E+03 -0.53553516740E+03  0.71254733759E+03  0.10566000000E+00 0. -1.
         -4    1    3    3    0  502  0.27196726827E+03 -0.31357515667E+03 -0.15217388192E+04  0.15773346531E+04  0.00000000000E+00 0. -1.
        -13    1    1    2    0    0  0.96412236747E+02  0.21646531978E+02 -0.36294013075E+03  0.37615082269E+03  0.10566000000E+00 0.  1.
<mgrwt>
<rscale>  1 0.56300744E+03</rscale>
<asrwt>0</asrwt>
<pdfrwt beam="1">  1       21 0.18909131E-01 0.10055761E+04</pdfrwt>
<pdfrwt beam="2">  1       -4 0.39124976E+00 0.10055761E+04</pdfrwt>
<totfact> 0.86531872E+00</totfact>
</mgrwt>
</event>
<event>
 6    2  0.2345636E-005  0.1033742E+04  0.7818608E-02  0.9749348E-01
         -4   -1    0    0    0  501 -0.00000000000E+00  0.00000000000E+00  0.50751026458E+03  0.50751026458E+03  0.00000000000E+00 0. -1.
         21   -1    0    0  501  502  0.00000000000E+00 -0.00000000000E+00 -0.79017394074E+03  0.79017394074E+03  0.00000000000E+00 0. -1.
   -9000010    2    1    2    0  502  0.19099829523E+03  0.40774446802E+02 -0.34955785568E+03  0.10912435439E+04  0.10151250530E+04 0.  0.
         13    1    3    3    0    0 -0.22527855089E+03 -0.37730041771E+03 -0.10009947530E+03  0.45069495983E+03  0.10566000000E+00 0. -1.
         -4    1    3    3    0  502  0.41627684612E+03  0.41807486451E+03 -0.24945838038E+03  0.64054858402E+03  0.00000000000E+00 0. -1.
        -13    1    1    2    0    0 -0.19099829523E+03 -0.40774446802E+02  0.66894179517E+02  0.20644066147E+03  0.10566000000E+00 0.  1.
<mgrwt>
<rscale>  1 0.68153120E+03</rscale>
<asrwt>0</asrwt>
<pdfrwt beam="2">  1       21 0.12156522E+00 0.10337416E+04</pdfrwt>
<pdfrwt beam="1">  1       -4 0.78078502E-01 0.10337416E+04</pdfrwt>
<totfact> 0.27582787E+01</totfact>
</mgrwt>
</event>
<event>
 6    2  0.2345636E-005  0.1008334E+04  0.7818608E-02  0.9924649E-01
         -4   -1    0    0    0  501 -0.00000000000E+00  0.00000000000E+00  0.35446570971E+03  0.35446570971E+03  0.00000000000E+00 0. -1.
         21   -1    0    0  501  502  0.00000000000E+00 -0.00000000000E+00 -0.96240470307E+03  0.96240470307E+03  0.00000000000E+00 0. -1.
   -9000010    2    1    2    0  502  0.10326600375E+03  0.58828879603E+02 -0.63934561052E+03  0.11939432336E+04  0.10013056131E+04 0.  0.
         13    1    3    3    0    0 -0.42139194011E+03  0.18410124225E+03 -0.37434227830E+03  0.59295580533E+03  0.10566000000E+00 0. -1.
         -4    1    3    3    0  502  0.52465794386E+03 -0.12527236264E+03 -0.26500333222E+03  0.60098742831E+03  0.00000000000E+00 0. -1.
        -13    1    1    2    0    0 -0.10326600375E+03 -0.58828879603E+02  0.31406617156E+02  0.12292717914E+03  0.10566000000E+00 0.  1.
<mgrwt>
<rscale>  1 0.59081403E+03</rscale>
<asrwt>0</asrwt>
<pdfrwt beam="2">  1       21 0.14806226E+00 0.10083341E+04</pdfrwt>
<pdfrwt beam="1">  1       -4 0.54533187E-01 0.10083341E+04</pdfrwt>
<totfact> 0.36005566E+01</totfact>
</mgrwt>
</event>
<event>
 6    2  0.2345636E-005  0.1006498E+04  0.7818608E-02  0.1031805E+00
         -4   -1    0    0    0  501 -0.00000000000E+00  0.00000000000E+00  0.18515981402E+03  0.18515981402E+03  0.00000000000E+00 0. -1.
         21   -1    0    0  501  502  0.00000000000E+00 -0.00000000000E+00 -0.20273869071E+04  0.20273869071E+04  0.00000000000E+00 0. -1.
   -9000010    2    1    2    0  502  0.53007624296E+01  0.35229684549E+02 -0.18968442861E+04  0.21473372302E+04  0.10058676382E+04 0.  0.
         13    1    3    3    0    0  0.19082739920E+03  0.51949449995E+02  0.39814813611E+02  0.20174011051E+03  0.10566000000E+00 0. -1.
         -4    1    3    3    0  502 -0.18552663677E+03 -0.16719765447E+02 -0.19366590998E+04  0.19455971197E+04  0.00000000000E+00 0. -1.
        -13    1    1    2    0    0 -0.53007624296E+01 -0.35229684549E+02  0.54617193096E+02  0.65209490885E+02  0.10566000000E+00 0.  1.
<mgrwt>
<rscale>  1 0.43656887E+03</rscale>
<asrwt>0</asrwt>
<pdfrwt beam="2">  1       21 0.31190567E+00 0.10064984E+04</pdfrwt>
<pdfrwt beam="1">  1       -4 0.28486126E-01 0.10064984E+04</pdfrwt>
<totfact> 0.10696396E+01</totfact>
</mgrwt>
</event>
<event>
 6    2  0.2345636E-005  0.1014199E+04  0.7818608E-02  0.9843894E-01
         -4   -1    0    0    0  501 -0.00000000000E+00  0.00000000000E+00  0.75725974726E+03  0.75725974726E+03  0.00000000000E+00 0. -1.
         21   -1    0    0  501  502  0.00000000000E+00 -0.00000000000E+00 -0.49051462481E+03  0.49051462481E+03  0.00000000000E+00 0. -1.
   -9000010    2    1    2    0  502  0.86491500081E+01  0.15132708085E+03  0.94893355206E+02  0.10186287104E+04  0.10028085598E+04 0.  0.
         13    1    3    3    0    0 -0.82819444332E+01 -0.28264807403E+03  0.39856720311E+03  0.48868635229E+03  0.10566000000E+00 0. -1.
         -4    1    3    3    0  502  0.16931094441E+02  0.43397515488E+03 -0.30367384790E+03  0.52994235810E+03  0.00000000000E+00 0. -1.
        -13    1    1    2    0    0 -0.86491500081E+01 -0.15132708085E+03  0.17185176724E+03  0.22914566167E+03  0.10566000000E+00 0.  1.
<mgrwt>
<rscale>  1 0.63059226E+03</rscale>
<asrwt>0</asrwt>
<pdfrwt beam="2">  1       21 0.75463788E-01 0.10141990E+04</pdfrwt>
<pdfrwt beam="1">  1       -4 0.11650150E+00 0.10141990E+04</pdfrwt>
<totfact> 0.34287275E+01</totfact>
</mgrwt>
</event>
<event>
 6    2  0.2345636E-005  0.1455254E+04  0.7818608E-02  0.8995598E-01
         21   -1    0    0  501  502  0.00000000000E+00  0.00000000000E+00  0.16380931046E+04  0.16380931046E+04  0.00000000000E+00 0.  1.
         -4   -1    0    0    0  501 -0.00000000000E+00 -0.00000000000E+00 -0.98947885410E+03  0.98947885410E+03  0.00000000000E+00 0. -1.
   -9000010    2    1    2    0  502 -0.10437296203E+04  0.17212260765E+03  0.16546293792E+03  0.14646304665E+04  0.99938316341E+03 0.  0.
         13    1    3    3    0    0 -0.33850382685E+03 -0.82720123897E+02 -0.39627954560E+03  0.52769778199E+03  0.10566000000E+00 0. -1.
         -4    1    3    3    0  502 -0.70522579340E+03  0.25484273155E+03  0.56174248352E+03  0.93693268451E+03  0.00000000000E+00 0. -1.
        -13    1    1    2    0    0  0.10437296203E+04 -0.17212260765E+03  0.48315131258E+03  0.11629414922E+04  0.10566000000E+00 0.  1.
<mgrwt>
<rscale>  1 0.13437170E+04</rscale>
<asrwt>0</asrwt>
<pdfrwt beam="1">  1       21 0.25201432E+00 0.14552541E+04</pdfrwt>
<pdfrwt beam="2">  1       -4 0.15222752E+00 0.14552541E+04</pdfrwt>
<totfact> 0.54502824E-01</totfact>
</mgrwt>
</event>
<event>
 6    2  0.2345636E-005  0.1235126E+04  0.7818608E-02  0.9218662E-01
         -4   -1    0    0    0  501 -0.00000000000E+00  0.00000000000E+00  0.70836465110E+03  0.70836465110E+03  0.00000000000E+00 0. -1.
         21   -1    0    0  501  502  0.00000000000E+00 -0.00000000000E+00 -0.14114847363E+04  0.14114847363E+04  0.00000000000E+00 0.  1.
   -9000010    2    1    2    0  502 -0.30511122759E+02  0.73836795896E+03 -0.27350175850E+03  0.12650452641E+04  0.98965556472E+03 0.  0.
         13    1    3    3    0    0  0.39843621569E+03  0.69541606442E+03 -0.13881956306E+03  0.81340383751E+03  0.10566000000E+00 0. -1.
         -4    1    3    3    0  502 -0.42894733845E+03  0.42951894541E+02 -0.13468219544E+03  0.45164142655E+03  0.00000000000E+00 0. -1.
        -13    1    1    2    0    0  0.30511122759E+02 -0.73836795896E+03 -0.42961832665E+03  0.85480412329E+03  0.10566000000E+00 0.  1.
<mgrwt>
<rscale>  1 0.10862864E+04</rscale>
<asrwt>0</asrwt>
<pdfrwt beam="2">  1       21 0.21715150E+00 0.12351260E+04</pdfrwt>
<pdfrwt beam="1">  1       -4 0.10897918E+00 0.12351260E+04</pdfrwt>
<totfact> 0.22505017E+00</totfact>
</mgrwt>
</event>
<event>
 6    2  0.2345636E-005  0.1027954E+04  0.7818608E-02  0.9686035E-01
         -4   -1    0    0    0  501 -0.00000000000E+00  0.00000000000E+00  0.19248770044E+03  0.19248770044E+03  0.00000000000E+00 0. -1.
         21   -1    0    0  501  502  0.00000000000E+00 -0.00000000000E+00 -0.22238986061E+04  0.22238986061E+04  0.00000000000E+00 0. -1.
   -9000010    2    1    2    0  502  0.18656584532E+03  0.15943393922E+03 -0.18298248029E+04  0.20987970063E+04  0.99823046886E+03 0.  0.
         13    1    3    3    0    0 -0.35298410618E+03  0.30762130076E+03 -0.85457691949E+03  0.97443848774E+03  0.10566000000E+00 0. -1.
         -4    1    3    3    0  502  0.53954995150E+03 -0.14818736155E+03 -0.97524788338E+03  0.11243585186E+04  0.00000000000E+00 0. -1.
        -13    1    1    2    0    0 -0.18656584532E+03 -0.15943393922E+03 -0.20158610278E+03  0.31758930022E+03  0.10566000000E+00 0.  1.
<mgrwt>
<rscale>  1 0.71854400E+03</rscale>
<asrwt>0</asrwt>
<pdfrwt beam="2">  1       21 0.34213825E+00 0.10279543E+04</pdfrwt>
<pdfrwt beam="1">  1       -4 0.29613492E-01 0.10279543E+04</pdfrwt>
<totfact> 0.63921069E+00</totfact>
</mgrwt>
</event>
<event>
 6    2  0.2345636E-005  0.9901151E+03  0.7818608E-02  0.9855343E-01
         21   -1    0    0  501  502  0.00000000000E+00  0.00000000000E+00  0.41785953610E+03  0.41785953610E+03  0.00000000000E+00 0. -1.
         -4   -1    0    0    0  501 -0.00000000000E+00 -0.00000000000E+00 -0.84232668958E+03  0.84232668958E+03  0.00000000000E+00 0. -1.
   -9000010    2    1    2    0  502  0.61544181039E+02  0.14438550572E+03 -0.24153754796E+03  0.10191507258E+04  0.97759549624E+03 0.  0.
         13    1    3    3    0    0  0.11537878675E+03  0.55207645356E+03 -0.22608443924E+03  0.60763052905E+03  0.10566000000E+00 0. -1.
         -4    1    3    3    0  502 -0.53834605713E+02 -0.40769094784E+03 -0.15453108718E+02  0.41152019670E+03  0.00000000000E+00 0. -1.
        -13    1    1    2    0    0 -0.61544181039E+02 -0.14438550572E+03 -0.18292960553E+03  0.24103549992E+03  0.10566000000E+00 0.  1.
<mgrwt>
<rscale>  1 0.62475255E+03</rscale>
<asrwt>0</asrwt>
<pdfrwt beam="1">  1       21 0.64286083E-01 0.99011505E+03</pdfrwt>
<pdfrwt beam="2">  1       -4 0.12958872E+00 0.99011505E+03</pdfrwt>
<totfact> 0.37872833E+01</totfact>
</mgrwt>
</event>
<event>
 6    2  0.2345636E-005  0.1495674E+04  0.7818608E-02  0.8962526E-01
         21   -1    0    0  501  502  0.00000000000E+00  0.00000000000E+00  0.89552725193E+03  0.89552725193E+03  0.00000000000E+00 0.  1.
         -4   -1    0    0    0  501 -0.00000000000E+00 -0.00000000000E+00 -0.19555734440E+04  0.19555734440E+04  0.00000000000E+00 0. -1.
   -9000010    2    1    2    0  502 -0.96314756939E+03 -0.55056961544E+03 -0.35700672767E+03  0.15376911477E+04  0.10031251767E+04 0.  0.
         13    1    3    3    0    0  0.10925879415E+03 -0.24452555629E+03  0.15620550135E+03  0.31004903095E+03  0.10566000000E+00 0. -1.
         -4    1    3    3    0  502 -0.10724063635E+04 -0.30604405915E+03 -0.51321222902E+03  0.12276421167E+04  0.00000000000E+00 0. -1.
        -13    1    1    2    0    0  0.96314756939E+03  0.55056961544E+03 -0.70303946441E+03  0.13134095483E+04  0.10566000000E+00 0.  1.
<mgrwt>
<rscale>  1 0.13880344E+04</rscale>
<asrwt>0</asrwt>
<pdfrwt beam="1">  1       21 0.13777343E+00 0.14956738E+04</pdfrwt>
<pdfrwt beam="2">  1       -4 0.30085745E+00 0.14956738E+04</pdfrwt>
<totfact> 0.37800358E-01</totfact>
</mgrwt>
</event>
<event>
 6    2  0.2345636E-005  0.1053556E+04  0.7818608E-02  0.9559500E-01
         21   -1    0    0  501  502  0.00000000000E+00  0.00000000000E+00  0.34284490647E+03  0.34284490647E+03  0.00000000000E+00 0. -1.
         -4   -1    0    0    0  501 -0.00000000000E+00 -0.00000000000E+00 -0.14791416340E+04  0.14791416340E+04  0.00000000000E+00 0. -1.
   -9000010    2    1    2    0  502  0.15992943774E+03  0.31231773290E+03 -0.71287958989E+03  0.12720757523E+04  0.99340808261E+03 0.  0.
         13    1    3    3    0    0 -0.16234369425E+02 -0.51975482312E+01  0.24608111300E+03  0.24667082235E+03  0.10566000000E+00 0. -1.
         -4    1    3    3    0  502  0.17616380716E+03  0.31751528113E+03 -0.95896070289E+03  0.10254049300E+04  0.00000000000E+00 0. -1.
        -13    1    1    2    0    0 -0.15992943774E+03 -0.31231773290E+03 -0.42341713767E+03  0.54991078820E+03  0.10566000000E+00 0.  1.
<mgrwt>
<rscale>  1 0.80035762E+03</rscale>
<asrwt>0</asrwt>
<pdfrwt beam="1">  1       21 0.52745369E-01 0.10535556E+04</pdfrwt>
<pdfrwt beam="2">  1       -4 0.22756026E+00 0.10535556E+04</pdfrwt>
<totfact> 0.11623206E+01</totfact>
</mgrwt>
</event>
<event>
 6    2  0.2345636E-005  0.1013470E+04  0.7818608E-02  0.9819494E-01
         21   -1    0    0  501  502  0.00000000000E+00  0.00000000000E+00  0.49195971046E+03  0.49195971046E+03  0.00000000000E+00 0. -1.
         -4   -1    0    0    0  501 -0.00000000000E+00 -0.00000000000E+00 -0.85271438064E+03  0.85271438064E+03  0.00000000000E+00 0. -1.
   -9000010    2    1    2    0  502 -0.25265011477E+02 -0.16253584031E+03 -0.49913863081E+03  0.11297174631E+04  0.10000329762E+04 0.  0.
         13    1    3    3    0    0 -0.11775721736E+01  0.35576648925E+03  0.66735316843E+02  0.36197347310E+03  0.10566000000E+00 0. -1.
         -4    1    3    3    0  502 -0.24087439304E+02 -0.51830232956E+03 -0.56587394765E+03  0.76774399001E+03  0.00000000000E+00 0. -1.
        -13    1    1    2    0    0  0.25265011477E+02  0.16253584031E+03  0.13838396064E+03  0.21495662799E+03  0.10566000000E+00 0.  1.
<mgrwt>
<rscale>  1 0.64326772E+03</rscale>
<asrwt>0</asrwt>
<pdfrwt beam="1">  1       21 0.75686109E-01 0.10134704E+04</pdfrwt>
<pdfrwt beam="2">  1       -4 0.13118683E+00 0.10134704E+04</pdfrwt>
<totfact> 0.25197368E+01</totfact>
</mgrwt>
</event>
<event>
 6    2  0.2345636E-005  0.1114279E+04  0.7818608E-02  0.9373807E-01
         -4   -1    0    0    0  501 -0.00000000000E+00  0.00000000000E+00  0.22240338298E+04  0.22240338298E+04  0.00000000000E+00 0. -1.
         21   -1    0    0  501  502  0.00000000000E+00 -0.00000000000E+00 -0.34655608701E+03  0.34655608701E+03  0.00000000000E+00 0.  1.
   -9000010    2    1    2    0  502  0.12116413684E+02 -0.57053846511E+03  0.15614317200E+04  0.19182510115E+04  0.95705641390E+03 0.  0.
         13    1    3    3    0    0  0.19776317191E+03 -0.78290251660E+03  0.13178406603E+04  0.15455583585E+04  0.10566000000E+00 0. -1.
         -4    1    3    3    0  502 -0.18564675822E+03  0.21236405149E+03  0.24359105970E+03  0.37269265296E+03  0.00000000000E+00 0. -1.
        -13    1    1    2    0    0 -0.12116413684E+02  0.57053846511E+03  0.31604602283E+03  0.65233890530E+03  0.10566000000E+00 0.  1.
<mgrwt>
<rscale>  1 0.94263000E+03</rscale>
<asrwt>0</asrwt>
<pdfrwt beam="2">  1       21 0.53316322E-01 0.11142791E+04</pdfrwt>
<pdfrwt beam="1">  1       -4 0.34215904E+00 0.11142791E+04</pdfrwt>
<totfact> 0.21709291E+00</totfact>
</mgrwt>
</event>
<event>
 6    2  0.2345636E-005  0.9538707E+03  0.7818608E-02  0.9799286E-01
         21   -1    0    0  501  502  0.00000000000E+00  0.00000000000E+00  0.31153940527E+03  0.31153940527E+03  0.00000000000E+00 0. -1.
         -4   -1    0    0    0  501 -0.00000000000E+00 -0.00000000000E+00 -0.12253531429E+04  0.12253531429E+04  0.00000000000E+00 0. -1.
   -9000010    2    1    2    0  502  0.66840413416E+02 -0.19992011115E+03 -0.51067943420E+03  0.10819717095E+04  0.93028683958E+03 0.  0.
         13    1    3    3    0    0  0.40080243853E+03  0.14623203297E+03 -0.75383360537E+02  0.43325404142E+03  0.10566000000E+00 0. -1.
         -4    1    3    3    0  502 -0.33396202512E+03 -0.34615214412E+03 -0.43529607366E+03  0.64871766805E+03  0.00000000000E+00 0. -1.
        -13    1    1    2    0    0 -0.66840413416E+02  0.19992011115E+03 -0.40313430346E+03  0.45492083872E+03  0.10566000000E+00 0.  1.
<mgrwt>
<rscale>  1 0.65400887E+03</rscale>
<asrwt>0</asrwt>
<pdfrwt beam="1">  1       21 0.47929139E-01 0.95387069E+03</pdfrwt>
<pdfrwt beam="2">  1       -4 0.18851587E+00 0.95387069E+03</pdfrwt>
<totfact> 0.25987660E+01</totfact>
</mgrwt>
</event>
<event>
 6    2  0.2345636E-005  0.1094674E+04  0.7818608E-02  0.9451033E-01
         21   -1    0    0  501  502  0.00000000000E+00  0.00000000000E+00  0.76537447604E+03  0.76537447604E+03  0.00000000000E+00 0. -1.
         -4   -1    0    0    0  501 -0.00000000000E+00 -0.00000000000E+00 -0.87017790317E+03  0.87017790317E+03  0.00000000000E+00 0. -1.
   -9000010    2    1    2    0  502 -0.26213676827E+03  0.37435324697E+03  0.16164380058E+03  0.11065437072E+04  0.99471313391E+03 0.  0.
         13    1    3    3    0    0 -0.13807992203E+03 -0.20639253049E+03 -0.27419053426E+03  0.36992485960E+03  0.10566000000E+00 0. -1.
         -4    1    3    3    0  502 -0.12405684624E+03  0.58074577746E+03  0.43583433484E+03  0.73661884755E+03  0.00000000000E+00 0. -1.
        -13    1    1    2    0    0  0.26213676827E+03 -0.37435324697E+03 -0.26644722770E+03  0.52900867206E+03  0.10566000000E+00 0.  1.
<mgrwt>
<rscale>  1 0.87992238E+03</rscale>
<asrwt>0</asrwt>
<pdfrwt beam="1">  1       21 0.11774992E+00 0.10946736E+04</pdfrwt>
<pdfrwt beam="2">  1       -4 0.13387352E+00 0.10946736E+04</pdfrwt>
<totfact> 0.80383890E+00</totfact>
</mgrwt>
</event>
<event>
 6    2  0.2345636E-005  0.9947732E+03  0.7818608E-02  0.9844661E-01
         21   -1    0    0  501  502  0.00000000000E+00  0.00000000000E+00  0.98130681858E+03  0.98130681858E+03  0.00000000000E+00 0. -1.
         -4   -1    0    0    0  501 -0.00000000000E+00 -0.00000000000E+00 -0.46941148266E+03  0.46941148266E+03  0.00000000000E+00 0. -1.
   -9000010    2    1    2    0  502 -0.15904841370E+03  0.19403382995E+02  0.69037857851E+03  0.12108659128E+04  0.98178449164E+03 0.  0.
         13    1    3    3    0    0  0.23887374365E+03 -0.36842240517E+03  0.30974787720E+03  0.53734485447E+03  0.10566000000E+00 0. -1.
         -4    1    3    3    0  502 -0.39792215735E+03  0.38782578816E+03  0.38063070131E+03  0.67352105836E+03  0.00000000000E+00 0. -1.
        -13    1    1    2    0    0  0.15904841370E+03 -0.19403382995E+02 -0.17848324259E+03  0.23985238840E+03  0.10566000000E+00 0.  1.
<mgrwt>
<rscale>  1 0.63019858E+03</rscale>
<asrwt>0</asrwt>
<pdfrwt beam="1">  1       21 0.15097028E+00 0.99477318E+03</pdfrwt>
<pdfrwt beam="2">  1       -4 0.72217151E-01 0.99477318E+03</pdfrwt>
<totfact> 0.18434689E+01</totfact>
</mgrwt>
</event>
<event>
 6    2  0.2345636E-005  0.1028821E+04  0.7818608E-02  0.1028612E+00
         -4   -1    0    0    0  501 -0.00000000000E+00  0.00000000000E+00  0.42646973856E+03  0.42646973856E+03  0.00000000000E+00 0. -1.
         21   -1    0    0  501  502  0.00000000000E+00 -0.00000000000E+00 -0.12525921991E+04  0.12525921991E+04  0.00000000000E+00 0. -1.
   -9000010    2    1    2    0  502  0.17024053908E+02 -0.32478986310E+02 -0.10395077477E+04  0.14625486703E+04  0.10281670840E+04 0.  0.
         13    1    3    3    0    0 -0.37967458442E+03 -0.10783690428E+02 -0.99224108266E+03  0.10624553898E+04  0.10566000000E+00 0. -1.
         -4    1    3    3    0  502  0.39669863833E+03 -0.21695295882E+02 -0.47266665007E+02  0.40009328055E+03  0.00000000000E+00 0. -1.
        -13    1    1    2    0    0 -0.17024053908E+02  0.32478986310E+02  0.21338528716E+03  0.21651326727E+03  0.10566000000E+00 0.  1.
<mgrwt>
<rscale>  1 0.44702679E+03</rscale>
<asrwt>0</asrwt>
<pdfrwt beam="2">  1       21 0.19270649E+00 0.10288208E+04</pdfrwt>
<pdfrwt beam="1">  1       -4 0.65610729E-01 0.10288208E+04</pdfrwt>
<totfact> 0.11095824E+01</totfact>
</mgrwt>
</event>
<event>
 6    2  0.2345636E-005  0.1043417E+04  0.7818608E-02  0.9612873E-01
         -4   -1    0    0    0  501 -0.00000000000E+00  0.00000000000E+00  0.90634019672E+03  0.90634019672E+03  0.00000000000E+00 0. -1.
         21   -1    0    0  501  502  0.00000000000E+00 -0.00000000000E+00 -0.49878348739E+03  0.49878348739E+03  0.00000000000E+00 0. -1.
   -9000010    2    1    2    0  502  0.22991052496E+03  0.19381083850E+03  0.29876916373E+03  0.10853484008E+04  0.99914796062E+03 0.  0.
         13    1    3    3    0    0  0.44501665347E+03  0.23821461176E+03  0.55343439488E+03  0.74904984061E+03  0.10566000000E+00 0. -1.
         -4    1    3    3    0  502 -0.21510612851E+03 -0.44403773257E+02 -0.25466523115E+03  0.33629856015E+03  0.00000000000E+00 0. -1.
        -13    1    1    2    0    0 -0.22991052496E+03 -0.19381083850E+03  0.10878754560E+03  0.31977528336E+03  0.10566000000E+00 0.  1.
<mgrwt>
<rscale>  1 0.76449960E+03</rscale>
<asrwt>0</asrwt>
<pdfrwt beam="2">  1       21 0.76735921E-01 0.10434166E+04</pdfrwt>
<pdfrwt beam="1">  1       -4 0.13943695E+00 0.10434166E+04</pdfrwt>
<totfact> 0.20767088E+01</totfact>
</mgrwt>
</event>
<event>
 6    2  0.2345636E-005  0.1105935E+04  0.7818608E-02  0.9433205E-01
         -4   -1    0    0    0  501 -0.00000000000E+00  0.00000000000E+00  0.44126495572E+03  0.44126495572E+03  0.00000000000E+00 0. -1.
         21   -1    0    0  501  502  0.00000000000E+00 -0.00000000000E+00 -0.14476551147E+04  0.14476551147E+04  0.00000000000E+00 0.  1.
   -9000010    2    1    2    0  502  0.14228653155E+03  0.45013101634E+03 -0.83851269870E+03  0.13878749210E+04  0.10001149242E+04 0.  0.
         13    1    3    3    0    0 -0.13208453347E+03 -0.28376549804E+03 -0.32423578133E+03  0.45066399337E+03  0.10566000000E+00 0. -1.
         -4    1    3    3    0  502  0.27437106502E+03  0.73389651438E+03 -0.51427691737E+03  0.93721092763E+03  0.00000000000E+00 0. -1.
        -13    1    1    2    0    0 -0.14228653155E+03 -0.45013101634E+03 -0.16787746028E+03  0.50104514943E+03  0.10566000000E+00 0.  1.
<mgrwt>
<rscale>  1 0.89392726E+03</rscale>
<asrwt>0</asrwt>
<pdfrwt beam="2">  1       21 0.22271617E+00 0.11059355E+04</pdfrwt>
<pdfrwt beam="1">  1       -4 0.67886916E-01 0.11059355E+04</pdfrwt>
<totfact> 0.63705000E+00</totfact>
</mgrwt>
</event>
<event>
 6    2  0.2345636E-005  0.1164881E+04  0.7818608E-02  0.9355504E-01
         21   -1    0    0  501  502  0.00000000000E+00  0.00000000000E+00  0.44098152763E+03  0.44098152763E+03  0.00000000000E+00 0. -1.
         -4   -1    0    0    0  501 -0.00000000000E+00 -0.00000000000E+00 -0.16904899495E+04  0.16904899495E+04  0.00000000000E+00 0. -1.
   -9000010    2    1    2    0  502  0.26058745930E+03 -0.46556195393E+03 -0.67022961909E+03  0.13439324626E+04  0.10355157965E+04 0.  0.
         13    1    3    3    0    0  0.45196877948E+02 -0.62766407120E+03 -0.82149139636E+03  0.10348203078E+04  0.10566000000E+00 0. -1.
         -4    1    3    3    0  502  0.21539058136E+03  0.16210211727E+03  0.15126177727E+03  0.30911215476E+03  0.00000000000E+00 0. -1.
        -13    1    1    2    0    0 -0.26058745930E+03  0.46556195393E+03 -0.57927880276E+03  0.78753901451E+03  0.10566000000E+00 0.  1.
<mgrwt>
<rscale>  1 0.95829819E+03</rscale>
<asrwt>0</asrwt>
<pdfrwt beam="1">  1       21 0.67843311E-01 0.11648806E+04</pdfrwt>
<pdfrwt beam="2">  1       -4 0.26007538E+00 0.11648806E+04</pdfrwt>
<totfact> 0.40995439E+00</totfact>
</mgrwt>
</event>
<event>
 6    2  0.2345636E-005  0.1003697E+04  0.7818608E-02  0.9988506E-01
         21   -1    0    0  501  502  0.00000000000E+00  0.00000000000E+00  0.11367611011E+04  0.11367611011E+04  0.00000000000E+00 0. -1.
         -4   -1    0    0    0  501 -0.00000000000E+00 -0.00000000000E+00 -0.30202975556E+03  0.30202975556E+03  0.00000000000E+00 0. -1.
   -9000010    2    1    2    0  502 -0.72709514702E+02  0.66239427007E+02  0.87591890918E+03  0.13321570826E+04  0.99886646859E+03 0.  0.
         13    1    3    3    0    0  0.28894854231E+02  0.21135834227E+02 -0.22389511531E+03  0.22673921124E+03  0.10566000000E+00 0. -1.
         -4    1    3    3    0  502 -0.10160436893E+03  0.45103592781E+02  0.10998140245E+04  0.11054178714E+04  0.00000000000E+00 0. -1.
        -13    1    1    2    0    0  0.72709514702E+02 -0.66239427007E+02 -0.41187563597E+02  0.10663377409E+03  0.10566000000E+00 0.  1.
<mgrwt>
<rscale>  1 0.56157119E+03</rscale>
<asrwt>0</asrwt>
<pdfrwt beam="1">  1       21 0.17488632E+00 0.10036974E+04</pdfrwt>
<pdfrwt beam="2">  1       -4 0.46466117E-01 0.10036974E+04</pdfrwt>
<totfact> 0.31352769E+01</totfact>
</mgrwt>
</event>
<event>
 6    2  0.2345636E-005  0.1078542E+04  0.7818608E-02  0.9485148E-01
         -4   -1    0    0    0  501 -0.00000000000E+00  0.00000000000E+00  0.76103320091E+03  0.76103320091E+03  0.00000000000E+00 0. -1.
         21   -1    0    0  501  502  0.00000000000E+00 -0.00000000000E+00 -0.14223815246E+04  0.14223815246E+04  0.00000000000E+00 0. -1.
   -9000010    2    1    2    0  502 -0.24378617348E+03 -0.34655363148E+03 -0.11228296038E+04  0.15569196329E+04  0.99182725624E+03 0.  0.
         13    1    3    3    0    0  0.33742454481E+03  0.45299377057E+02 -0.57104935811E+03  0.66483436852E+03  0.10566000000E+00 0. -1.
         -4    1    3    3    0  502 -0.58121071830E+03 -0.39185300854E+03 -0.55178024573E+03  0.89208526439E+03  0.00000000000E+00 0. -1.
        -13    1    1    2    0    0  0.24378617348E+03  0.34655363148E+03  0.46148128019E+03  0.62649509256E+03  0.10566000000E+00 0.  1.
<mgrwt>
<rscale>  1 0.85387679E+03</rscale>
<asrwt>0</asrwt>
<pdfrwt beam="2">  1       21 0.21882793E+00 0.10785418E+04</pdfrwt>
<pdfrwt beam="1">  1       -4 0.11708203E+00 0.10785418E+04</pdfrwt>
<totfact> 0.18778810E+00</totfact>
</mgrwt>
</event>
<event>
 6    2  0.2345636E-005  0.1115398E+04  0.7818608E-02  0.9585025E-01
         -4   -1    0    0    0  501 -0.00000000000E+00  0.00000000000E+00  0.11996810106E+04  0.11996810106E+04  0.00000000000E+00 0. -1.
         21   -1    0    0  501  502  0.00000000000E+00 -0.00000000000E+00 -0.40284951657E+03  0.40284951657E+03  0.00000000000E+00 0.  1.
   -9000010    2    1    2    0  502 -0.26966990312E+03 -0.24751622524E+02  0.59038070987E+03  0.12620067587E+04  0.10820245731E+04 0.  0.
         13    1    3    3    0    0 -0.13623872559E+03  0.87753752260E+02 -0.30735619077E+03  0.34746158140E+03  0.10566000000E+00 0. -1.
         -4    1    3    3    0  502 -0.13343117753E+03 -0.11250537478E+03  0.89773690064E+03  0.91454517727E+03  0.00000000000E+00 0. -1.
        -13    1    1    2    0    0  0.26966990312E+03  0.24751622524E+02  0.20645078413E+03  0.34052376848E+03  0.10566000000E+00 0.  1.
<mgrwt>
<rscale>  1 0.78295322E+03</rscale>
<asrwt>0</asrwt>
<pdfrwt beam="2">  1       21 0.61976849E-01 0.11153975E+04</pdfrwt>
<pdfrwt beam="1">  1       -4 0.18456631E+00 0.11153975E+04</pdfrwt>
<totfact> 0.15487635E+01</totfact>
</mgrwt>
</event>
<event>
 6    2  0.2345636E-005  0.1005521E+04  0.7818608E-02  0.9908481E-01
         -4   -1    0    0    0  501 -0.00000000000E+00  0.00000000000E+00  0.11529056802E+04  0.11529056802E+04  0.00000000000E+00 0. -1.
         21   -1    0    0  501  502  0.00000000000E+00 -0.00000000000E+00 -0.28713455536E+03  0.28713455536E+03  0.00000000000E+00 0. -1.
   -9000010    2    1    2    0  502 -0.12514219595E+03  0.16487790374E+02  0.67421361937E+03  0.12106351234E+04  0.99756753203E+03 0.  0.
         13    1    3    3    0    0 -0.81404153122E+01  0.25631514874E+03  0.85215268044E+03  0.88990332272E+03  0.10566000000E+00 0. -1.
         -4    1    3    3    0  502 -0.11700178064E+03 -0.23982735837E+03 -0.17793906107E+03  0.32073180065E+03  0.00000000000E+00 0. -1.
        -13    1    1    2    0    0  0.12514219595E+03 -0.16487790374E+02  0.19155750550E+03  0.22940511223E+03  0.10566000000E+00 0.  1.
<mgrwt>
<rscale>  1 0.59852011E+03</rscale>
<asrwt>0</asrwt>
<pdfrwt beam="2">  1       21 0.44174548E-01 0.10055215E+04</pdfrwt>
<pdfrwt beam="1">  1       -4 0.17737010E+00 0.10055215E+04</pdfrwt>
<totfact> 0.36757076E+01</totfact>
</mgrwt>
</event>
<event>
 6    2  0.2345636E-005  0.9930412E+03  0.7818608E-02  0.1013459E+00
         -4   -1    0    0    0  501 -0.00000000000E+00  0.00000000000E+00  0.89855754413E+03  0.89855754413E+03  0.00000000000E+00 0. -1.
         21   -1    0    0  501  502  0.00000000000E+00 -0.00000000000E+00 -0.32697600951E+03  0.32697600951E+03  0.00000000000E+00 0. -1.
   -9000010    2    1    2    0  502 -0.45141258739E+02 -0.46004319467E+02  0.45498923072E+03  0.10923122823E+04  0.99094742105E+03 0.  0.
         13    1    3    3    0    0 -0.98271454301E+02 -0.12962528829E+03 -0.29442812492E+03  0.33637468098E+03  0.10566000000E+00 0. -1.
         -4    1    3    3    0  502  0.53130195562E+02  0.83620968823E+02  0.74941735564E+03  0.75593760129E+03  0.00000000000E+00 0. -1.
        -13    1    1    2    0    0  0.45141258739E+02  0.46004319467E+02  0.11659230390E+03  0.13322127136E+03  0.10566000000E+00 0.  1.
<mgrwt>
<rscale>  1 0.50122835E+03</rscale>
<asrwt>0</asrwt>
<pdfrwt beam="2">  1       21 0.50304002E-01 0.99304125E+03</pdfrwt>
<pdfrwt beam="1">  1       -4 0.13823962E+00 0.99304125E+03</pdfrwt>
<totfact> 0.55058980E+01</totfact>
</mgrwt>
</event>
<event>
 6    2  0.2345636E-005  0.1062645E+04  0.7818608E-02  0.9659212E-01
         21   -1    0    0  501  502  0.00000000000E+00  0.00000000000E+00  0.35223450165E+03  0.35223450165E+03  0.00000000000E+00 0. -1.
         -4   -1    0    0    0  501 -0.00000000000E+00 -0.00000000000E+00 -0.12431213818E+04  0.12431213818E+04  0.00000000000E+00 0. -1.
   -9000010    2    1    2    0  502 -0.23539739921E+03  0.61055995759E+02 -0.61576615586E+03  0.12281622094E+04  0.10344441424E+04 0.  0.
         13    1    3    3    0    0  0.32934987444E+03  0.26367150043E+03 -0.92202405420E+02  0.43185100980E+03  0.10566000000E+00 0. -1.
         -4    1    3    3    0  502 -0.56474727365E+03 -0.20261550467E+03 -0.52356375044E+03  0.79631119960E+03  0.00000000000E+00 0. -1.
        -13    1    1    2    0    0  0.23539739921E+03 -0.61055995759E+02 -0.27512072434E+03  0.36719367410E+03  0.10566000000E+00 0.  1.
<mgrwt>
<rscale>  1 0.73498102E+03</rscale>
<asrwt>0</asrwt>
<pdfrwt beam="1">  1       21 0.54189924E-01 0.10626450E+04</pdfrwt>
<pdfrwt beam="2">  1       -4 0.19124944E+00 0.10626450E+04</pdfrwt>
<totfact> 0.18876937E+01</totfact>
</mgrwt>
</event>
<event>
 6    2  0.2345636E-005  0.8292892E+03  0.7818608E-02  0.9888809E-01
         21   -1    0    0  501  502  0.00000000000E+00  0.00000000000E+00  0.32671588990E+03  0.32671588990E+03  0.00000000000E+00 0. -1.
         -4   -1    0    0    0  501 -0.00000000000E+00 -0.00000000000E+00 -0.12409562086E+04  0.12409562086E+04  0.00000000000E+00 0. -1.
   -9000010    2    1    2    0  502  0.23899204769E+03  0.18553357459E+02 -0.25718194403E+03  0.86825295034E+03  0.79388866191E+03 0.  0.
         13    1    3    3    0    0 -0.20618552709E+03 -0.10755329795E+03  0.12867916578E+03  0.26577908561E+03  0.10566000000E+00 0. -1.
         -4    1    3    3    0  502  0.44517757477E+03  0.12610665541E+03 -0.38586110981E+03  0.60247386473E+03  0.00000000000E+00 0. -1.
        -13    1    1    2    0    0 -0.23899204769E+03 -0.18553357459E+02 -0.65705837466E+03  0.69941914815E+03  0.10566000000E+00 0.  1.
<mgrwt>
<rscale>  1 0.60806720E+03</rscale>
<asrwt>0</asrwt>
<pdfrwt beam="1">  1       21 0.50263984E-01 0.82928923E+03</pdfrwt>
<pdfrwt beam="2">  1       -4 0.19091634E+00 0.82928923E+03</pdfrwt>
<totfact> 0.22909618E+01</totfact>
</mgrwt>
</event>
<event>
 6    2  0.2345636E-005  0.9997198E+03  0.7818608E-02  0.1003190E+00
         21   -1    0    0  501  502  0.00000000000E+00  0.00000000000E+00  0.14799240449E+04  0.14799240449E+04  0.00000000000E+00 0. -1.
         -4   -1    0    0    0  501 -0.00000000000E+00 -0.00000000000E+00 -0.20119257854E+03  0.20119257854E+03  0.00000000000E+00 0. -1.
   -9000010    2    1    2    0  502  0.32071701026E+02  0.80699358955E+02  0.12148685228E+04  0.15733229907E+04  0.99594112510E+03 0.  0.
         13    1    3    3    0    0  0.38159056158E+03  0.48881864222E+02  0.90167027827E+02  0.39513402462E+03  0.10566000000E+00 0. -1.
         -4    1    3    3    0  502 -0.34951886056E+03  0.31817494733E+02  0.11247014950E+04  0.11781889661E+04  0.00000000000E+00 0. -1.
        -13    1    1    2    0    0 -0.32071701026E+02 -0.80699358955E+02  0.63862943503E+02  0.10779363274E+03  0.10566000000E+00 0.  1.
<mgrwt>
<rscale>  1 0.54273432E+03</rscale>
<asrwt>0</asrwt>
<pdfrwt beam="1">  1       21 0.22768061E+00 0.99971981E+03</pdfrwt>
<pdfrwt beam="2">  1       -4 0.30952705E-01 0.99971981E+03</pdfrwt>
<totfact> 0.30895193E+01</totfact>
</mgrwt>
</event>
<event>
 6    2  0.2345636E-005  0.1007091E+04  0.7818608E-02  0.9949499E-01
         21   -1    0    0  501  502  0.00000000000E+00  0.00000000000E+00  0.40040226432E+03  0.40040226432E+03  0.00000000000E+00 0. -1.
         -4   -1    0    0    0  501 -0.00000000000E+00 -0.00000000000E+00 -0.10825830190E+04  0.10825830190E+04  0.00000000000E+00 0. -1.
   -9000010    2    1    2    0  502 -0.10988983958E+03  0.81317098331E+01 -0.25093288229E+03  0.10378823288E+04  0.10010447120E+04 0.  0.
         13    1    3    3    0    0 -0.32636307790E+03  0.39126245681E+02  0.30007160096E+03  0.44506931886E+03  0.10566000000E+00 0. -1.
         -4    1    3    3    0  502  0.21647323832E+03 -0.30994535848E+02 -0.55100448325E+03  0.59281300991E+03  0.00000000000E+00 0. -1.
        -13    1    1    2    0    0  0.10988983958E+03 -0.81317098331E+01 -0.43124787237E+03  0.44510295454E+03  0.10566000000E+00 0.  1.
<mgrwt>
<rscale>  1 0.57921186E+03</rscale>
<asrwt>0</asrwt>
<pdfrwt beam="1">  1       21 0.61600348E-01 0.10070911E+04</pdfrwt>
<pdfrwt beam="2">  1       -4 0.16655123E+00 0.10070911E+04</pdfrwt>
<totfact> 0.21285284E+01</totfact>
</mgrwt>
</event>
<event>
 6    2  0.2345636E-005  0.1200552E+04  0.7818608E-02  0.9255243E-01
         -4   -1    0    0    0  501 -0.00000000000E+00  0.00000000000E+00  0.39931754023E+03  0.39931754023E+03  0.00000000000E+00 0. -1.
         21   -1    0    0  501  502  0.00000000000E+00 -0.00000000000E+00 -0.22945029546E+04  0.22945029546E+04  0.00000000000E+00 0.  1.
   -9000010    2    1    2    0  502 -0.24393310534E+03 -0.65901106751E+03 -0.13327005172E+04  0.17937159355E+04  0.97341010978E+03 0.  0.
         13    1    3    3    0    0 -0.44834269715E+03 -0.63858748723E+03 -0.13778016602E+04  0.15833959009E+04  0.10566000000E+00 0. -1.
         -4    1    3    3    0  502  0.20440959181E+03 -0.20423580274E+02  0.45101143031E+02  0.21032003461E+03  0.00000000000E+00 0. -1.
        -13    1    1    2    0    0  0.24393310534E+03  0.65901106751E+03 -0.56248489717E+03  0.90010455931E+03  0.10566000000E+00 0.  1.
<mgrwt>
<rscale>  1 0.10500975E+04</rscale>
<asrwt>0</asrwt>
<pdfrwt beam="2">  1       21 0.35300045E+00 0.12005525E+04</pdfrwt>
<pdfrwt beam="1">  1       -4 0.61433468E-01 0.12005525E+04</pdfrwt>
<totfact> 0.11716809E+00</totfact>
</mgrwt>
</event>
<event>
 6    2  0.2345636E-005  0.1055305E+04  0.7818608E-02  0.9770085E-01
         21   -1    0    0  501  502  0.00000000000E+00  0.00000000000E+00  0.85143537934E+03  0.85143537934E+03  0.00000000000E+00 0.  1.
         -4   -1    0    0    0  501 -0.00000000000E+00 -0.00000000000E+00 -0.49437004310E+03  0.49437004310E+03  0.00000000000E+00 0. -1.
   -9000010    2    1    2    0  502  0.10756171773E+03 -0.13343391383E+03  0.13291913912E+03  0.10636429492E+04  0.10412947197E+04 0.  0.
         13    1    3    3    0    0  0.71709447460E+02  0.41617471382E+03 -0.14527422419E+03  0.44659629270E+03  0.10566000000E+00 0. -1.
         -4    1    3    3    0  502  0.35852270269E+02 -0.54960862765E+03  0.27819336331E+03  0.61704665647E+03  0.00000000000E+00 0. -1.
        -13    1    1    2    0    0 -0.10756171773E+03  0.13343391383E+03  0.22414619711E+03  0.28216247328E+03  0.10566000000E+00 0.  1.
<mgrwt>
<rscale>  1 0.66992970E+03</rscale>
<asrwt>0</asrwt>
<pdfrwt beam="1">  1       21 0.13099006E+00 0.10553051E+04</pdfrwt>
<pdfrwt beam="2">  1       -4 0.76056930E-01 0.10553051E+04</pdfrwt>
<totfact> 0.23996732E+01</totfact>
</mgrwt>
</event>
<event>
 6    2  0.2345636E-005  0.1137901E+04  0.7818608E-02  0.9365536E-01
         -4   -1    0    0    0  501 -0.00000000000E+00  0.00000000000E+00  0.14629137791E+04  0.14629137791E+04  0.00000000000E+00 0. -1.
         21   -1    0    0  501  502  0.00000000000E+00 -0.00000000000E+00 -0.55772257869E+03  0.55772257869E+03  0.00000000000E+00 0.  1.
   -9000010    2    1    2    0  502  0.20948264371E+03  0.51075856591E+03  0.25211596936E+03  0.11654962761E+04  0.99501850083E+03 0.  0.
         13    1    3    3    0    0  0.68501835081E+02  0.60940158232E+03  0.54852527117E+03  0.82276532147E+03  0.10566000000E+00 0. -1.
         -4    1    3    3    0  502  0.14098080863E+03 -0.98643016406E+02 -0.29640930180E+03  0.34273095466E+03  0.00000000000E+00 0. -1.
        -13    1    1    2    0    0 -0.20948264371E+03 -0.51075856591E+03  0.65307523100E+03  0.85514008161E+03  0.10566000000E+00 0.  1.
<mgrwt>
<rscale>  1 0.94966991E+03</rscale>
<asrwt>0</asrwt>
<pdfrwt beam="2">  1       21 0.85803474E-01 0.11379012E+04</pdfrwt>
<pdfrwt beam="1">  1       -4 0.22506366E+00 0.11379012E+04</pdfrwt>
<totfact> 0.39326278E+00</totfact>
</mgrwt>
</event>
<event>
 6    2  0.2345636E-005  0.1002978E+04  0.7818608E-02  0.9888709E-01
         21   -1    0    0  501  502  0.00000000000E+00  0.00000000000E+00  0.73437638095E+03  0.73437638095E+03  0.00000000000E+00 0. -1.
         -4   -1    0    0    0  501 -0.00000000000E+00 -0.00000000000E+00 -0.57633784056E+03  0.57633784056E+03  0.00000000000E+00 0. -1.
   -9000010    2    1    2    0  502 -0.13247756548E+03  0.28657123518E+02  0.36158763434E+03  0.10661661058E+04  0.99377714391E+03 0.  0.
         13    1    3    3    0    0  0.40962961396E+03  0.75481054336E+02  0.67806043491E+01  0.41658108209E+03  0.10566000000E+00 0. -1.
         -4    1    3    3    0  502 -0.54210717944E+03 -0.46823930818E+02  0.35480702999E+03  0.64958502371E+03  0.00000000000E+00 0. -1.
        -13    1    1    2    0    0  0.13247756548E+03 -0.28657123518E+02 -0.20354909396E+03  0.24454811571E+03  0.10566000000E+00 0.  1.
<mgrwt>
<rscale>  1 0.60811641E+03</rscale>
<asrwt>0</asrwt>
<pdfrwt beam="1">  1       21 0.11298098E+00 0.10029778E+04</pdfrwt>
<pdfrwt beam="2">  1       -4 0.88667360E-01 0.10029778E+04</pdfrwt>
<totfact> 0.24883126E+01</totfact>
</mgrwt>
</event>
<event>
 6    2  0.2345636E-005  0.1038455E+04  0.7818608E-02  0.9668880E-01
         21   -1    0    0  501  502  0.00000000000E+00  0.00000000000E+00  0.41899680230E+03  0.41899680230E+03  0.00000000000E+00 0. -1.
         -4   -1    0    0    0  501 -0.00000000000E+00 -0.00000000000E+00 -0.10669409580E+04  0.10669409580E+04  0.00000000000E+00 0. -1.
   -9000010    2    1    2    0  502 -0.84996450220E+01 -0.25206119762E+03 -0.35060746747E+03  0.10960451999E+04  0.10073640815E+04 0.  0.
         13    1    3    3    0    0  0.12164771924E+03  0.37624745495E+03 -0.10630934362E+03  0.40946550851E+03  0.10566000000E+00 0. -1.
         -4    1    3    3    0  502 -0.13014736426E+03 -0.62830865257E+03 -0.24429812385E+03  0.68657969140E+03  0.00000000000E+00 0. -1.
        -13    1    1    2    0    0  0.84996450220E+01  0.25206119762E+03 -0.29733668821E+03  0.38989256037E+03  0.10566000000E+00 0.  1.
<mgrwt>
<rscale>  1 0.72900258E+03</rscale>
<asrwt>0</asrwt>
<pdfrwt beam="1">  1       21 0.64461047E-01 0.10384553E+04</pdfrwt>
<pdfrwt beam="2">  1       -4 0.16414476E+00 0.10384553E+04</pdfrwt>
<totfact> 0.19954603E+01</totfact>
</mgrwt>
</event>
<event>
 6    2  0.2345636E-005  0.1046500E+04  0.7818608E-02  0.9585449E-01
         -4   -1    0    0    0  501 -0.00000000000E+00  0.00000000000E+00  0.32440871743E+03  0.32440871743E+03  0.00000000000E+00 0. -1.
         21   -1    0    0  501  502  0.00000000000E+00 -0.00000000000E+00 -0.16271127119E+04  0.16271127119E+04  0.00000000000E+00 0. -1.
   -9000010    2    1    2    0  502 -0.31914475804E+03  0.73102904350E+02 -0.68010065019E+03  0.12480782215E+04  0.99396425555E+03 0.  0.
         13    1    3    3    0    0 -0.35323191929E+03 -0.40366455740E+03 -0.51163483723E+03  0.74127463300E+03  0.10566000000E+00 0. -1.
         -4    1    3    3    0  502  0.34087161249E+02  0.47676746175E+03 -0.16846581297E+03  0.50680358847E+03  0.00000000000E+00 0. -1.
        -13    1    1    2    0    0  0.31914475804E+03 -0.73102904350E+02 -0.62260334432E+03  0.70344320789E+03  0.10566000000E+00 0.  1.
<mgrwt>
<rscale>  1 0.78266793E+03</rscale>
<asrwt>0</asrwt>
<pdfrwt beam="2">  1       21 0.25032504E+00 0.10465000E+04</pdfrwt>
<pdfrwt beam="1">  1       -4 0.49909033E-01 0.10465000E+04</pdfrwt>
<totfact> 0.82970050E+00</totfact>
</mgrwt>
</event>
<event>
 6    2  0.2345636E-005  0.1008119E+04  0.7818608E-02  0.9894951E-01
         -4   -1    0    0    0  501 -0.00000000000E+00  0.00000000000E+00  0.23403200619E+04  0.23403200619E+04  0.00000000000E+00 0. -1.
         21   -1    0    0  501  502  0.00000000000E+00 -0.00000000000E+00 -0.14017244079E+03  0.14017244079E+03  0.00000000000E+00 0. -1.
   -9000010    2    1    2    0  502  0.11443155231E+03 -0.63399066567E+02  0.18524446567E+04  0.21089936676E+04  0.99959444889E+03 0.  0.
         13    1    3    3    0    0  0.81298734590E+02 -0.24616571992E+03  0.18997193447E+04  0.19173264317E+04  0.10566000000E+00 0. -1.
         -4    1    3    3    0  502  0.33132817721E+02  0.18276665335E+03 -0.47274688048E+02  0.19166723590E+03  0.00000000000E+00 0. -1.
        -13    1    1    2    0    0 -0.11443155231E+03  0.63399066567E+02  0.34770296445E+03  0.37149883506E+03  0.10566000000E+00 0.  1.
<mgrwt>
<rscale>  1 0.60506602E+03</rscale>
<asrwt>0</asrwt>
<pdfrwt beam="2">  1       21 0.21564993E-01 0.10081186E+04</pdfrwt>
<pdfrwt beam="1">  1       -4 0.36004921E+00 0.10081186E+04</pdfrwt>
<totfact> 0.10846324E+01</totfact>
</mgrwt>
</event>
<event>
 6    2  0.2345636E-005  0.1026904E+04  0.7818608E-02  0.9735409E-01
         -4   -1    0    0    0  501 -0.00000000000E+00  0.00000000000E+00  0.16434114460E+03  0.16434114460E+03  0.00000000000E+00 0. -1.
         21   -1    0    0  501  502  0.00000000000E+00 -0.00000000000E+00 -0.28661062142E+04  0.28661062142E+04  0.00000000000E+00 0. -1.
   -9000010    2    1    2    0  502  0.72282743493E+01 -0.20855224846E+03 -0.26056393586E+04  0.28006943354E+04  0.10054779983E+04 0.  0.
         13    1    3    3    0    0 -0.29821376487E+03  0.58305443134E+02 -0.22210917818E+04  0.22417804729E+04  0.10566000000E+00 0. -1.
         -4    1    3    3    0  502  0.30544203922E+03 -0.26685769159E+03 -0.38454757678E+03  0.55891386249E+03  0.00000000000E+00 0. -1.
        -13    1    1    2    0    0 -0.72282743493E+01  0.20855224846E+03 -0.96125711025E+02  0.22975302342E+03  0.10566000000E+00 0.  1.
<mgrwt>
<rscale>  1 0.68947157E+03</rscale>
<asrwt>0</asrwt>
<pdfrwt beam="2">  1       21 0.44093939E+00 0.10269042E+04</pdfrwt>
<pdfrwt beam="1">  1       -4 0.25283255E-01 0.10269042E+04</pdfrwt>
<totfact> 0.19654539E+00</totfact>
</mgrwt>
</event>
<event>
 6    2  0.2345636E-005  0.9895910E+03  0.7818608E-02  0.1028434E+00
         -4   -1    0    0    0  501 -0.00000000000E+00  0.00000000000E+00  0.78568531186E+03  0.78568531186E+03  0.00000000000E+00 0. -1.
         21   -1    0    0  501  502  0.00000000000E+00 -0.00000000000E+00 -0.38452591185E+03  0.38452591185E+03  0.00000000000E+00 0. -1.
   -9000010    2    1    2    0  502  0.36820489100E+02  0.18983050898E+02  0.26011037953E+03  0.10232046185E+04  0.98872350892E+03 0.  0.
         13    1    3    3    0    0  0.38686563872E+03  0.32991378720E+03  0.21771974930E+03  0.55309133948E+03  0.10566000000E+00 0. -1.
         -4    1    3    3    0  502 -0.35004514962E+03 -0.31093073631E+03  0.42390630224E+02  0.47011327899E+03  0.00000000000E+00 0. -1.
        -13    1    1    2    0    0 -0.36820489100E+02 -0.18983050898E+02  0.14104902049E+03  0.14700660524E+03  0.10566000000E+00 0.  1.
<mgrwt>
<rscale>  1 0.44762065E+03</rscale>
<asrwt>0</asrwt>
<pdfrwt beam="2">  1       21 0.59157833E-01 0.98959097E+03</pdfrwt>
<pdfrwt beam="1">  1       -4 0.12087466E+00 0.98959097E+03</pdfrwt>
<totfact> 0.54472867E+01</totfact>
</mgrwt>
</event>
<event>
 6    2  0.2345636E-005  0.1038546E+04  0.7818608E-02  0.9646567E-01
         -4   -1    0    0    0  501 -0.00000000000E+00  0.00000000000E+00  0.17123878413E+04  0.17123878413E+04  0.00000000000E+00 0. -1.
         21   -1    0    0  501  502  0.00000000000E+00 -0.00000000000E+00 -0.26424383560E+03  0.26424383560E+03  0.00000000000E+00 0. -1.
   -9000010    2    1    2    0  502  0.20986858876E+03  0.17288856747E+03  0.13097341722E+04  0.16715209192E+04  0.10023189613E+04 0.  0.
         13    1    3    3    0    0  0.21464632646E+03  0.57705386616E+03  0.63136842209E+03  0.88186751017E+03  0.10566000000E+00 0. -1.
         -4    1    3    3    0  502 -0.47777377042E+01 -0.40416529869E+03  0.67836575011E+03  0.78965340901E+03  0.00000000000E+00 0. -1.
        -13    1    1    2    0    0 -0.20986858876E+03 -0.17288856747E+03  0.13840983352E+03  0.30511075774E+03  0.10566000000E+00 0.  1.
<mgrwt>
<rscale>  1 0.74289246E+03</rscale>
<asrwt>0</asrwt>
<pdfrwt beam="2">  1       21 0.40652899E-01 0.10385464E+04</pdfrwt>
<pdfrwt beam="1">  1       -4 0.26344428E+00 0.10385464E+04</pdfrwt>
<totfact> 0.12154135E+01</totfact>
</mgrwt>
</event>
<event>
 6    2  0.2345636E-005  0.1062971E+04  0.7818608E-02  0.9549207E-01
         21   -1    0    0  501  502  0.00000000000E+00  0.00000000000E+00  0.34254359499E+03  0.34254359499E+03  0.00000000000E+00 0. -1.
         -4   -1    0    0    0  501 -0.00000000000E+00 -0.00000000000E+00 -0.16126655024E+04  0.16126655024E+04  0.00000000000E+00 0. -1.
   -9000010    2    1    2    0  502  0.21843927221E+03  0.27859793054E+03 -0.66413622633E+03  0.12533891922E+04  0.10022848983E+04 0.  0.
         13    1    3    3    0    0  0.19889250092E+03  0.11841085998E+03  0.24089659557E+03  0.33408163614E+03  0.10566000000E+00 0. -1.
         -4    1    3    3    0  502  0.19546771296E+02  0.16018707055E+03 -0.90503282191E+03  0.91930755603E+03  0.00000000000E+00 0. -1.
        -13    1    1    2    0    0 -0.21843927221E+03 -0.27859793054E+03 -0.60598568110E+03  0.70181990525E+03  0.10566000000E+00 0.  1.
<mgrwt>
<rscale>  1 0.80751215E+03</rscale>
<asrwt>0</asrwt>
<pdfrwt beam="1">  1       21 0.52699014E-01 0.10629711E+04</pdfrwt>
<pdfrwt beam="2">  1       -4 0.24810239E+00 0.10629711E+04</pdfrwt>
<totfact> 0.86520837E+00</totfact>
</mgrwt>
</event>
<event>
 6    2  0.2345636E-005  0.1065989E+04  0.7818608E-02  0.9634831E-01
         21   -1    0    0  501  502  0.00000000000E+00  0.00000000000E+00  0.12960509920E+04  0.12960509920E+04  0.00000000000E+00 0.  1.
         -4   -1    0    0    0  501 -0.00000000000E+00 -0.00000000000E+00 -0.34260550617E+03  0.34260550617E+03  0.00000000000E+00 0. -1.
   -9000010    2    1    2    0  502  0.86390001180E+02  0.24699721542E+03  0.70647173858E+03  0.12788414071E+04  0.10333741677E+04 0.  0.
         13    1    3    3    0    0  0.11175131850E+02  0.23376342522E+03  0.97343346520E+03  0.10011707871E+04  0.10566000000E+00 0. -1.
         -4    1    3    3    0  502  0.75214869330E+02  0.13233790199E+02 -0.26696172662E+03  0.27767062008E+03  0.00000000000E+00 0. -1.
        -13    1    1    2    0    0 -0.86390001180E+02 -0.24699721542E+03  0.24697374723E+03  0.35981509100E+03  0.10566000000E+00 0.  1.
<mgrwt>
<rscale>  1 0.75033101E+03</rscale>
<asrwt>0</asrwt>
<pdfrwt beam="1">  1       21 0.19939246E+00 0.10659892E+04</pdfrwt>
<pdfrwt beam="2">  1       -4 0.52708540E-01 0.10659892E+04</pdfrwt>
<totfact> 0.15965137E+01</totfact>
</mgrwt>
</event>
<event>
 6    2  0.2345636E-005  0.1127696E+04  0.7818608E-02  0.9434412E-01
         -4   -1    0    0    0  501 -0.00000000000E+00  0.00000000000E+00  0.41452887467E+03  0.41452887467E+03  0.00000000000E+00 0. -1.
         21   -1    0    0  501  502  0.00000000000E+00 -0.00000000000E+00 -0.15094177025E+04  0.15094177025E+04  0.00000000000E+00 0. -1.
   -9000010    2    1    2    0  502 -0.18576029974E+03 -0.40258453027E+03 -0.68074054609E+03  0.13172341219E+04  0.10368784151E+04 0.  0.
         13    1    3    3    0    0 -0.36204717954E+03 -0.55052932694E+03 -0.67650830069E+02  0.66237251302E+03  0.10566000000E+00 0. -1.
         -4    1    3    3    0  502  0.17628687980E+03  0.14794479667E+03 -0.61308971602E+03  0.65486160884E+03  0.00000000000E+00 0. -1.
        -13    1    1    2    0    0  0.18576029974E+03  0.40258453027E+03 -0.41414828172E+03  0.60671245528E+03  0.10566000000E+00 0.  1.
<mgrwt>
<rscale>  1 0.89296987E+03</rscale>
<asrwt>0</asrwt>
<pdfrwt beam="2">  1       21 0.23221811E+00 0.11276959E+04</pdfrwt>
<pdfrwt beam="1">  1       -4 0.63773672E-01 0.11276959E+04</pdfrwt>
<totfact> 0.63216460E+00</totfact>
</mgrwt>
</event>
<event>
 6    2  0.2345636E-005  0.9797234E+03  0.7818608E-02  0.9532269E-01
         -4   -1    0    0    0  501 -0.00000000000E+00  0.00000000000E+00  0.39653421025E+03  0.39653421025E+03  0.00000000000E+00 0. -1.
         21   -1    0    0  501  502  0.00000000000E+00 -0.00000000000E+00 -0.17563594483E+04  0.17563594483E+04  0.00000000000E+00 0. -1.
   -9000010    2    1    2    0  502  0.46965127975E+03 -0.96750425889E+02 -0.13565792057E+04  0.16733693971E+04  0.85435649940E+03 0.  0.
         13    1    3    3    0    0  0.37881539011E+03  0.33201662247E+03 -0.95125737841E+03  0.10763952566E+04  0.10566000000E+00 0. -1.
         -4    1    3    3    0  502  0.90835889639E+02 -0.42876704836E+03 -0.40532182734E+03  0.59697414042E+03  0.00000000000E+00 0. -1.
        -13    1    1    2    0    0 -0.46965127975E+03  0.96750425889E+02 -0.32460323117E+01  0.47952426150E+03  0.10566000000E+00 0.  1.
<mgrwt>
<rscale>  1 0.81946004E+03</rscale>
<asrwt>0</asrwt>
<pdfrwt beam="2">  1       21 0.27020915E+00 0.97972343E+03</pdfrwt>
<pdfrwt beam="1">  1       -4 0.61005262E-01 0.97972343E+03</pdfrwt>
<totfact> 0.40839773E+00</totfact>
</mgrwt>
</event>
<event>
 6    2  0.2345636E-005  0.1040789E+04  0.7818608E-02  0.9701824E-01
         -4   -1    0    0    0  501 -0.00000000000E+00  0.00000000000E+00  0.83638765897E+03  0.83638765897E+03  0.00000000000E+00 0. -1.
         21   -1    0    0  501  502  0.00000000000E+00 -0.00000000000E+00 -0.48935923032E+03  0.48935923032E+03  0.00000000000E+00 0. -1.
   -9000010    2    1    2    0  502 -0.20369323471E+03  0.93753079777E+02  0.20637979405E+03  0.10610534375E+04  0.10163469900E+04 0.  0.
         13    1    3    3    0    0  0.13010981002E+03 -0.17826715560E+03 -0.31514201611E+03  0.38473658899E+03  0.10566000000E+00 0. -1.
         -4    1    3    3    0  502 -0.33380304472E+03  0.27202023537E+03  0.52152181017E+03  0.67631684852E+03  0.00000000000E+00 0. -1.
        -13    1    1    2    0    0  0.20369323471E+03 -0.93753079777E+02  0.14064863460E+03  0.26469345177E+03  0.10566000000E+00 0.  1.
<mgrwt>
<rscale>  1 0.70908299E+03</rscale>
<asrwt>0</asrwt>
<pdfrwt beam="2">  1       21 0.75286035E-01 0.10407890E+04</pdfrwt>
<pdfrwt beam="1">  1       -4 0.12867502E+00 0.10407890E+04</pdfrwt>
<totfact> 0.26742461E+01</totfact>
</mgrwt>
</event>
<event>
 6    2  0.2345636E-005  0.1035107E+04  0.7818608E-02  0.9583889E-01
         -4   -1    0    0    0  501 -0.00000000000E+00  0.00000000000E+00  0.89978304013E+03  0.89978304013E+03  0.00000000000E+00 0. -1.
         21   -1    0    0  501  502  0.00000000000E+00 -0.00000000000E+00 -0.52629147305E+03  0.52629147305E+03  0.00000000000E+00 0. -1.
   -9000010    2    1    2    0  502 -0.10360297995E+03 -0.32399796977E+03  0.30478349729E+03  0.10790455924E+04  0.97761861086E+03 0.  0.
         13    1    3    3    0    0  0.35014042709E+03 -0.39473647316E+03  0.32441256433E+03  0.61940190909E+03  0.10566000000E+00 0. -1.
         -4    1    3    3    0  502 -0.45374340704E+03  0.70738503395E+02 -0.19629067044E+02  0.45964368327E+03  0.00000000000E+00 0. -1.
        -13    1    1    2    0    0  0.10360297995E+03  0.32399796977E+03  0.68708069783E+02  0.34702892082E+03  0.10566000000E+00 0.  1.
<mgrwt>
<rscale>  1 0.78371747E+03</rscale>
<asrwt>0</asrwt>
<pdfrwt beam="2">  1       21 0.80967919E-01 0.10351070E+04</pdfrwt>
<pdfrwt beam="1">  1       -4 0.13842816E+00 0.10351070E+04</pdfrwt>
<totfact> 0.18676156E+01</totfact>
</mgrwt>
</event>
<event>
 6    2  0.2345636E-005  0.1022918E+04  0.7818608E-02  0.9777395E-01
         -4   -1    0    0    0  501 -0.00000000000E+00  0.00000000000E+00  0.83268651876E+03  0.83268651876E+03  0.00000000000E+00 0. -1.
         21   -1    0    0  501  502  0.00000000000E+00 -0.00000000000E+00 -0.13321739291E+04  0.13321739291E+04  0.00000000000E+00 0. -1.
   -9000010    2    1    2    0  502 -0.16363155592E+03 -0.83489966980E+02 -0.11205306567E+04  0.15172181194E+04  0.10062882333E+04 0.  0.
         13    1    3    3    0    0 -0.91840272108E+02  0.42287418439E+03 -0.81151695074E+03  0.91968308885E+03  0.10566000000E+00 0. -1.
         -4    1    3    3    0  502 -0.71791283815E+02 -0.50636415137E+03 -0.30901370598E+03  0.59753503053E+03  0.00000000000E+00 0. -1.
        -13    1    1    2    0    0  0.16363155592E+03  0.83489966980E+02  0.62104324635E+03  0.64764232851E+03  0.10566000000E+00 0.  1.
<mgrwt>
<rscale>  1 0.66589890E+03</rscale>
<asrwt>0</asrwt>
<pdfrwt beam="2">  1       21 0.20494983E+00 0.10229183E+04</pdfrwt>
<pdfrwt beam="1">  1       -4 0.12810562E+00 0.10229183E+04</pdfrwt>
<totfact> 0.18694868E+00</totfact>
</mgrwt>
</event>
<event>
 6    2  0.2345636E-005  0.1092774E+04  0.7818608E-02  0.9453479E-01
         21   -1    0    0  501  502  0.00000000000E+00  0.00000000000E+00  0.92533288689E+03  0.92533288689E+03  0.00000000000E+00 0. -1.
         -4   -1    0    0    0  501 -0.00000000000E+00 -0.00000000000E+00 -0.91894606171E+03  0.91894606171E+03  0.00000000000E+00 0. -1.
   -9000010    2    1    2    0  502 -0.45267161540E+03 -0.50143227273E+02  0.47433915598E+03  0.11912817589E+04  0.99334216646E+03 0.  0.
         13    1    3    3    0    0 -0.42409501222E+03 -0.45769950109E+03  0.47255335681E+03  0.78272095850E+03  0.10566000000E+00 0. -1.
         -4    1    3    3    0  502 -0.28576603182E+02  0.40755627382E+03  0.17857991701E+01  0.40856080044E+03  0.00000000000E+00 0. -1.
        -13    1    1    2    0    0  0.45267161540E+03  0.50143227273E+02 -0.46795233080E+03  0.65299718965E+03  0.10566000000E+00 0.  1.
<mgrwt>
<rscale>  1 0.87802239E+03</rscale>
<asrwt>0</asrwt>
<pdfrwt beam="1">  1       21 0.14235890E+00 0.10927738E+04</pdfrwt>
<pdfrwt beam="2">  1       -4 0.14137632E+00 0.10927738E+04</pdfrwt>
<totfact> 0.42044222E+00</totfact>
</mgrwt>
</event>
<event>
 6    2  0.2345636E-005  0.1009557E+04  0.7818608E-02  0.1012010E+00
         -4   -1    0    0    0  501 -0.00000000000E+00  0.00000000000E+00  0.21249750635E+03  0.21249750635E+03  0.00000000000E+00 0. -1.
         21   -1    0    0  501  502  0.00000000000E+00 -0.00000000000E+00 -0.13564815435E+04  0.13564815435E+04  0.00000000000E+00 0. -1.
   -9000010    2    1    2    0  502 -0.14752546434E+02  0.62411405992E+02 -0.10803304528E+04  0.14786208118E+04  0.10075181371E+04 0.  0.
         13    1    3    3    0    0  0.12081257317E+03 -0.42085779304E+03 -0.23871372930E+03  0.49869952428E+03  0.10566000000E+00 0. -1.
         -4    1    3    3    0  502 -0.13556511961E+03  0.48326919903E+03 -0.84161672348E+03  0.97992128747E+03  0.00000000000E+00 0. -1.
        -13    1    1    2    0    0  0.14752546434E+02 -0.62411405992E+02 -0.63653584312E+02  0.90358238053E+02  0.10566000000E+00 0.  1.
<mgrwt>
<rscale>  1 0.50683407E+03</rscale>
<asrwt>0</asrwt>
<pdfrwt beam="2">  1       21 0.20868947E+00 0.10095571E+04</pdfrwt>
<pdfrwt beam="1">  1       -4 0.32691923E-01 0.10095571E+04</pdfrwt>
<totfact> 0.37023213E+01</totfact>
</mgrwt>
</event>
<event>
 6    2  0.2345636E-005  0.9019172E+03  0.7818608E-02  0.1007720E+00
         -4   -1    0    0    0  501 -0.00000000000E+00  0.00000000000E+00  0.41863803396E+03  0.41863803396E+03  0.00000000000E+00 0. -1.
         21   -1    0    0  501  502  0.00000000000E+00 -0.00000000000E+00 -0.60310733829E+03  0.60310733829E+03  0.00000000000E+00 0. -1.
   -9000010    2    1    2    0  502  0.78044032595E+02 -0.66738385413E+02 -0.15739487092E+03  0.91554782416E+03  0.89605233654E+03 0.  0.
         13    1    3    3    0    0  0.10751098729E+03  0.86691204282E+02 -0.51080398783E+03  0.52914525646E+03  0.10566000000E+00 0. -1.
         -4    1    3    3    0  502 -0.29466954699E+02 -0.15342958970E+03  0.35340911690E+03  0.38640256770E+03  0.00000000000E+00 0. -1.
        -13    1    1    2    0    0 -0.78044032595E+02  0.66738385413E+02 -0.27074433410E+02  0.10619754809E+03  0.10566000000E+00 0.  1.
<mgrwt>
<rscale>  1 0.52390838E+03</rscale>
<asrwt>0</asrwt>
<pdfrwt beam="2">  1       21 0.92785744E-01 0.90191722E+03</pdfrwt>
<pdfrwt beam="1">  1       -4 0.64405852E-01 0.90191722E+03</pdfrwt>
<totfact> 0.84744474E+01</totfact>
</mgrwt>
</event>
<event>
 6    2  0.2345636E-005  0.8896222E+03  0.7818608E-02  0.9843873E-01
         -4   -1    0    0    0  501 -0.00000000000E+00  0.00000000000E+00  0.43467764945E+03  0.43467764945E+03  0.00000000000E+00 0. -1.
         21   -1    0    0  501  502  0.00000000000E+00 -0.00000000000E+00 -0.74708343277E+03  0.74708343277E+03  0.00000000000E+00 0. -1.
   -9000010    2    1    2    0  502 -0.41653823673E+02  0.22070215653E+03 -0.34624572310E+03  0.95462756288E+03  0.86080381047E+03 0.  0.
         13    1    3    3    0    0  0.29921775131E+03  0.36564248906E+03 -0.40257040343E+02  0.47417964208E+03  0.10566000000E+00 0. -1.
         -4    1    3    3    0  502 -0.34087157498E+03 -0.14494033253E+03 -0.30598868276E+03  0.48044792080E+03  0.00000000000E+00 0. -1.
        -13    1    1    2    0    0  0.41653823673E+02 -0.22070215653E+03  0.33839939781E+02  0.22713351935E+03  0.10566000000E+00 0.  1.
<mgrwt>
<rscale>  1 0.63060286E+03</rscale>
<asrwt>0</asrwt>
<pdfrwt beam="2">  1       21 0.11493591E+00 0.88962221E+03</pdfrwt>
<pdfrwt beam="1">  1       -4 0.66873485E-01 0.88962221E+03</pdfrwt>
<totfact> 0.45810322E+01</totfact>
</mgrwt>
</event>
<event>
 6    2  0.2345636E-005  0.1016255E+04  0.7818608E-02  0.9837641E-01
         21   -1    0    0  501  502  0.00000000000E+00  0.00000000000E+00  0.34852491638E+03  0.34852491638E+03  0.00000000000E+00 0. -1.
         -4   -1    0    0    0  501 -0.00000000000E+00 -0.00000000000E+00 -0.10191280258E+04  0.10191280258E+04  0.00000000000E+00 0. -1.
   -9000010    2    1    2    0  502 -0.13232323188E+03  0.78302701089E+02 -0.48329684369E+03  0.11253217658E+04  0.10045558654E+04 0.  0.
         13    1    3    3    0    0 -0.46534041695E+03 -0.26363274209E+03 -0.20474808057E+03  0.57268290878E+03  0.10566000000E+00 0. -1.
         -4    1    3    3    0  502  0.33301718508E+03  0.34193544318E+03 -0.27854876312E+03  0.55263885702E+03  0.00000000000E+00 0. -1.
        -13    1    1    2    0    0  0.13232323188E+03 -0.78302701089E+02 -0.18730626569E+03  0.24233117633E+03  0.10566000000E+00 0.  1.
<mgrwt>
<rscale>  1 0.63381067E+03</rscale>
<asrwt>0</asrwt>
<pdfrwt beam="1">  1       21 0.53619218E-01 0.10162545E+04</pdfrwt>
<pdfrwt beam="2">  1       -4 0.15678893E+00 0.10162545E+04</pdfrwt>
<totfact> 0.34165860E+01</totfact>
</mgrwt>
</event>
<event>
 6    2  0.2345636E-005  0.9862761E+03  0.7818608E-02  0.9823235E-01
         21   -1    0    0  501  502  0.00000000000E+00  0.00000000000E+00  0.23823510318E+03  0.23823510318E+03  0.00000000000E+00 0. -1.
         -4   -1    0    0    0  501 -0.00000000000E+00 -0.00000000000E+00 -0.16280894377E+04  0.16280894377E+04  0.00000000000E+00 0. -1.
   -9000010    2    1    2    0  502 -0.12302996714E+03 -0.12627918298E+03 -0.86225395736E+03  0.13100467559E+04  0.97039054556E+03 0.  0.
         13    1    3    3    0    0 -0.52868709433E+03  0.67907984004E+02 -0.41242734681E+03  0.67395687219E+03  0.10566000000E+00 0. -1.
         -4    1    3    3    0  502  0.40565712719E+03 -0.19418716699E+03 -0.44982661055E+03  0.63608988376E+03  0.00000000000E+00 0. -1.
        -13    1    1    2    0    0  0.12302996714E+03  0.12627918298E+03 -0.52760037713E+03  0.55627778491E+03  0.10566000000E+00 0.  1.
<mgrwt>
<rscale>  1 0.64130398E+03</rscale>
<asrwt>0</asrwt>
<pdfrwt beam="1">  1       21 0.36651554E-01 0.98627614E+03</pdfrwt>
<pdfrwt beam="2">  1       -4 0.25047530E+00 0.98627614E+03</pdfrwt>
<totfact> 0.18244157E+01</totfact>
</mgrwt>
</event>
<event>
 6    2  0.2345636E-005  0.1015741E+04  0.7818608E-02  0.9867718E-01
         21   -1    0    0  501  502  0.00000000000E+00  0.00000000000E+00  0.99458989731E+03  0.99458989731E+03  0.00000000000E+00 0. -1.
         -4   -1    0    0    0  501 -0.00000000000E+00 -0.00000000000E+00 -0.34188648253E+03  0.34188648253E+03  0.00000000000E+00 0. -1.
   -9000010    2    1    2    0  502 -0.79452679179E+02  0.11485071098E+03  0.62927286776E+03  0.11948698272E+04  0.10060945025E+04 0.  0.
         13    1    3    3    0    0  0.31467879355E+03  0.40683740499E+03  0.40920803608E+03  0.65725995250E+03  0.10566000000E+00 0. -1.
         -4    1    3    3    0  502 -0.39413147273E+03 -0.29198669401E+03  0.22006483168E+03  0.53760987474E+03  0.00000000000E+00 0. -1.
        -13    1    1    2    0    0  0.79452679179E+02 -0.11485071098E+03  0.23430547016E+02  0.14160655260E+03  0.10566000000E+00 0.  1.
<mgrwt>
<rscale>  1 0.61851618E+03</rscale>
<asrwt>0</asrwt>
<pdfrwt beam="1">  1       21 0.15301383E+00 0.10157409E+04</pdfrwt>
<pdfrwt beam="2">  1       -4 0.52597921E-01 0.10157409E+04</pdfrwt>
<totfact> 0.35458438E+01</totfact>
</mgrwt>
</event>
<event>
 6    2  0.2345636E-005  0.1233904E+04  0.7818608E-02  0.9222384E-01
         -4   -1    0    0    0  501 -0.00000000000E+00  0.00000000000E+00  0.14530644707E+04  0.14530644707E+04  0.00000000000E+00 0. -1.
         21   -1    0    0  501  502  0.00000000000E+00 -0.00000000000E+00 -0.68011460742E+03  0.68011460742E+03  0.00000000000E+00 0.  1.
   -9000010    2    1    2    0  502 -0.67488749503E+03  0.28089152906E+03  0.32555758988E+03  0.12761300483E+04  0.99405582028E+03 0.  0.
         13    1    3    3    0    0 -0.28785651107E+03  0.51809943703E+03  0.51409921839E+03  0.78459315261E+03  0.10566000000E+00 0. -1.
         -4    1    3    3    0  502 -0.38703098396E+03 -0.23720790797E+03 -0.18854162851E+03  0.49153689570E+03  0.00000000000E+00 0. -1.
        -13    1    1    2    0    0  0.67488749503E+03 -0.28089152906E+03  0.44739227339E+03  0.85704902981E+03  0.10566000000E+00 0.  1.
<mgrwt>
<rscale>  1 0.10825345E+04</rscale>
<asrwt>0</asrwt>
<pdfrwt beam="2">  1       21 0.10463302E+00 0.12339044E+04</pdfrwt>
<pdfrwt beam="1">  1       -4 0.22354838E+00 0.12339044E+04</pdfrwt>
<totfact> 0.24418663E+00</totfact>
</mgrwt>
</event>
<event>
 6    2  0.2345636E-005  0.1036199E+04  0.7818608E-02  0.9661030E-01
         -4   -1    0    0    0  501 -0.00000000000E+00  0.00000000000E+00  0.61338169028E+03  0.61338169028E+03  0.00000000000E+00 0. -1.
         21   -1    0    0  501  502  0.00000000000E+00 -0.00000000000E+00 -0.68634289539E+03  0.68634289539E+03  0.00000000000E+00 0. -1.
   -9000010    2    1    2    0  502  0.19750806737E+02 -0.25992910985E+03 -0.76532329095E+02  0.10390216885E+04  0.10028736886E+04 0.  0.
         13    1    3    3    0    0 -0.10305473470E+03 -0.49143774585E+03 -0.38611221211E+03  0.63341454663E+03  0.10566000000E+00 0. -1.
         -4    1    3    3    0  502  0.12280554143E+03  0.23150863600E+03  0.30957988301E+03  0.40560714184E+03  0.00000000000E+00 0. -1.
        -13    1    1    2    0    0 -0.19750806737E+02  0.25992910985E+03  0.35711239835E+01  0.26070289719E+03  0.10566000000E+00 0.  1.
<mgrwt>
<rscale>  1 0.73385242E+03</rscale>
<asrwt>0</asrwt>
<pdfrwt beam="2">  1       21 0.10559121E+00 0.10361992E+04</pdfrwt>
<pdfrwt beam="1">  1       -4 0.94366414E-01 0.10361992E+04</pdfrwt>
<totfact> 0.25410349E+01</totfact>
</mgrwt>
</event>
<event>
 6    2  0.2345636E-005  0.1015382E+04  0.7818608E-02  0.9758498E-01
         21   -1    0    0  501  502  0.00000000000E+00  0.00000000000E+00  0.32186876526E+03  0.32186876526E+03  0.00000000000E+00 0. -1.
         -4   -1    0    0    0  501 -0.00000000000E+00 -0.00000000000E+00 -0.16512177097E+04  0.16512177097E+04  0.00000000000E+00 0. -1.
   -9000010    2    1    2    0  502  0.17344407889E+03  0.99445176474E+02 -0.52268541623E+03  0.11420159301E+04  0.99550396717E+03 0.  0.
         13    1    3    3    0    0 -0.36636372656E+03  0.78501800085E+02 -0.46731368496E+03  0.59897162209E+03  0.10566000000E+00 0. -1.
         -4    1    3    3    0  502  0.53980780545E+03  0.20943376389E+02 -0.55371731270E+02  0.54304430801E+03  0.00000000000E+00 0. -1.
        -13    1    1    2    0    0 -0.17344407889E+03 -0.99445176474E+02 -0.80666352822E+03  0.83107054487E+03  0.10566000000E+00 0.  1.
<mgrwt>
<rscale>  1 0.67638164E+03</rscale>
<asrwt>0</asrwt>
<pdfrwt beam="1">  1       21 0.49518272E-01 0.10153819E+04</pdfrwt>
<pdfrwt beam="2">  1       -4 0.25403349E+00 0.10153819E+04</pdfrwt>
<totfact> 0.91526570E+00</totfact>
</mgrwt>
</event>
<event>
 6    2  0.2345636E-005  0.1009044E+04  0.7818608E-02  0.9980096E-01
         21   -1    0    0  501  502  0.00000000000E+00  0.00000000000E+00  0.32858052179E+03  0.32858052179E+03  0.00000000000E+00 0. -1.
         -4   -1    0    0    0  501 -0.00000000000E+00 -0.00000000000E+00 -0.95219299280E+03  0.95219299280E+03  0.00000000000E+00 0. -1.
   -9000010    2    1    2    0  502 -0.66181708628E+02 -0.74179291685E+02 -0.61334981009E+03  0.11808339366E+04  0.10041355538E+04 0.  0.
         13    1    3    3    0    0  0.23667904061E+03  0.36829995271E+03 -0.43133203113E+03  0.61458047128E+03  0.10566000000E+00 0. -1.
         -4    1    3    3    0  502 -0.30286074924E+03 -0.44247924440E+03 -0.18201777896E+03  0.56625346534E+03  0.00000000000E+00 0. -1.
        -13    1    1    2    0    0  0.66181708628E+02  0.74179291685E+02 -0.10262660914E+02  0.99939577970E+02  0.10566000000E+00 0.  1.
<mgrwt>
<rscale>  1 0.56531652E+03</rscale>
<asrwt>0</asrwt>
<pdfrwt beam="1">  1       21 0.50550850E-01 0.10090445E+04</pdfrwt>
<pdfrwt beam="2">  1       -4 0.14649123E+00 0.10090445E+04</pdfrwt>
<totfact> 0.46674572E+01</totfact>
</mgrwt>
</event>
<event>
 6    2  0.2345636E-005  0.9632075E+03  0.7818608E-02  0.9917178E-01
         21   -1    0    0  501  502  0.00000000000E+00  0.00000000000E+00  0.28353670446E+04  0.28353670446E+04  0.00000000000E+00 0. -1.
         -4   -1    0    0    0  501 -0.00000000000E+00 -0.00000000000E+00 -0.11042212481E+03  0.11042212481E+03  0.00000000000E+00 0. -1.
   -9000010    2    1    2    0  502  0.13923376681E+03  0.10758075535E+02  0.25198200127E+04  0.26976399871E+04  0.95303033818E+03 0.  0.
         13    1    3    3    0    0  0.19807460754E+02 -0.27692291880E+02 -0.84083734094E+02  0.90715401307E+02  0.10566000000E+00 0. -1.
         -4    1    3    3    0  502  0.11942630605E+03  0.38450367415E+02  0.26039037468E+04  0.26069245858E+04  0.00000000000E+00 0. -1.
        -13    1    1    2    0    0 -0.13923376681E+03 -0.10758075535E+02  0.20512490701E+03  0.24814918225E+03  0.10566000000E+00 0.  1.
<mgrwt>
<rscale>  1 0.59435947E+03</rscale>
<asrwt>0</asrwt>
<pdfrwt beam="1">  1       21 0.43621026E+00 0.96320746E+03</pdfrwt>
<pdfrwt beam="2">  1       -4 0.16988021E-01 0.96320746E+03</pdfrwt>
<totfact> 0.45167458E+00</totfact>
</mgrwt>
</event>
<event>
 6    2  0.2345636E-005  0.1093350E+04  0.7818608E-02  0.9440517E-01
         21   -1    0    0  501  502  0.00000000000E+00  0.00000000000E+00  0.52444463342E+03  0.52444463342E+03  0.00000000000E+00 0. -1.
         -4   -1    0    0    0  501 -0.00000000000E+00 -0.00000000000E+00 -0.18586910141E+04  0.18586910141E+04  0.00000000000E+00 0. -1.
   -9000010    2    1    2    0  502  0.45798791309E+03 -0.12994818443E+03 -0.14598143974E+03  0.11030524314E+04  0.98426349444E+03 0.  0.
         13    1    3    3    0    0  0.74547823108E+02  0.40931316331E+03  0.33683562944E+02  0.41740775887E+03  0.10566000000E+00 0. -1.
         -4    1    3    3    0  502  0.38344008998E+03 -0.53926134774E+03 -0.17966500268E+03  0.68564467253E+03  0.00000000000E+00 0. -1.
        -13    1    1    2    0    0 -0.45798791309E+03  0.12994818443E+03 -0.11882649409E+04  0.12800832161E+04  0.10566000000E+00 0.  1.
<mgrwt>
<rscale>  1 0.88815002E+03</rscale>
<asrwt>0</asrwt>
<pdfrwt beam="1">  1       21 0.80683790E-01 0.10933499E+04</pdfrwt>
<pdfrwt beam="2">  1       -4 0.28595246E+00 0.10933499E+04</pdfrwt>
<totfact> 0.19153353E+00</totfact>
</mgrwt>
</event>
<event>
 6    2  0.2345636E-005  0.1065530E+04  0.7818608E-02  0.9626696E-01
         21   -1    0    0  501  502  0.00000000000E+00  0.00000000000E+00  0.64867505404E+03  0.64867505404E+03  0.00000000000E+00 0. -1.
         -4   -1    0    0    0  501 -0.00000000000E+00 -0.00000000000E+00 -0.68773225334E+03  0.68773225334E+03  0.00000000000E+00 0. -1.
   -9000010    2    1    2    0  502 -0.26935190829E+03 -0.23412394084E+01 -0.10985923375E+02  0.10655864448E+04  0.10309208742E+04 0.  0.
         13    1    3    3    0    0  0.19727813342E+03 -0.37396368207E+03 -0.15773247656E+03  0.45127269224E+03  0.10566000000E+00 0. -1.
         -4    1    3    3    0  502 -0.46663004171E+03  0.37162244267E+03  0.14674655319E+03  0.61431375257E+03  0.00000000000E+00 0. -1.
        -13    1    1    2    0    0  0.26935190829E+03  0.23412394084E+01 -0.28071275925E+02  0.27082086256E+03  0.10566000000E+00 0.  1.
<mgrwt>
<rscale>  1 0.75554151E+03</rscale>
<asrwt>0</asrwt>
<pdfrwt beam="1">  1       21 0.99796162E-01 0.10655298E+04</pdfrwt>
<pdfrwt beam="2">  1       -4 0.10580496E+00 0.10655298E+04</pdfrwt>
<totfact> 0.22143953E+01</totfact>
</mgrwt>
</event>
<event>
 6    2  0.2345636E-005  0.1010167E+04  0.7818608E-02  0.9787212E-01
         21   -1    0    0  501  502  0.00000000000E+00  0.00000000000E+00  0.51293047187E+03  0.51293047187E+03  0.00000000000E+00 0. -1.
         -4   -1    0    0    0  501 -0.00000000000E+00 -0.00000000000E+00 -0.98372469910E+03  0.98372469910E+03  0.00000000000E+00 0. -1.
   -9000010    2    1    2    0  502 -0.64568832527E+01  0.18455806896E+03 -0.20954812798E+02  0.10103847913E+04  0.99314397256E+03 0.  0.
         13    1    3    3    0    0 -0.98684698907E+02  0.58775081058E+03 -0.29247264179E+02  0.59669514726E+03  0.10566000000E+00 0. -1.
         -4    1    3    3    0  502  0.92227815654E+02 -0.40319274162E+03  0.82924513812E+01  0.41368964408E+03  0.00000000000E+00 0. -1.
        -13    1    1    2    0    0  0.64568832527E+01 -0.18455806896E+03 -0.44983941443E+03  0.48627037962E+03  0.10566000000E+00 0.  1.
<mgrwt>
<rscale>  1 0.66053330E+03</rscale>
<asrwt>0</asrwt>
<pdfrwt beam="1">  1       21 0.78912380E-01 0.10101675E+04</pdfrwt>
<pdfrwt beam="2">  1       -4 0.15134226E+00 0.10101675E+04</pdfrwt>
<totfact> 0.15691473E+01</totfact>
</mgrwt>
</event>
<event>
 6    2  0.2345636E-005  0.1027636E+04  0.7818608E-02  0.9652034E-01
         21   -1    0    0  501  502  0.00000000000E+00  0.00000000000E+00  0.32864586552E+03  0.32864586552E+03  0.00000000000E+00 0. -1.
         -4   -1    0    0    0  501 -0.00000000000E+00 -0.00000000000E+00 -0.17039851202E+04  0.17039851202E+04  0.00000000000E+00 0. -1.
   -9000010    2    1    2    0  502  0.15871810294E+03 -0.22519959563E+03 -0.55641384507E+03  0.11686025535E+04  0.99001478116E+03 0.  0.
         13    1    3    3    0    0 -0.27026443054E+02 -0.55551308062E+03 -0.83210345456E+02  0.56236036855E+03  0.10566000000E+00 0. -1.
         -4    1    3    3    0  502  0.18574454599E+03  0.33031348499E+03 -0.47320349962E+03  0.60624218492E+03  0.00000000000E+00 0. -1.
        -13    1    1    2    0    0 -0.15871810294E+03  0.22519959563E+03 -0.81892540958E+03  0.86402843222E+03  0.10566000000E+00 0.  1.
<mgrwt>
<rscale>  1 0.73945915E+03</rscale>
<asrwt>0</asrwt>
<pdfrwt beam="1">  1       21 0.50560901E-01 0.10276359E+04</pdfrwt>
<pdfrwt beam="2">  1       -4 0.26215156E+00 0.10276359E+04</pdfrwt>
<totfact> 0.77841419E+00</totfact>
</mgrwt>
</event>
<event>
 6    2  0.2345636E-005  0.1007343E+04  0.7818608E-02  0.9866122E-01
         21   -1    0    0  501  502  0.00000000000E+00  0.00000000000E+00  0.30543871455E+03  0.30543871455E+03  0.00000000000E+00 0. -1.
         -4   -1    0    0    0  501 -0.00000000000E+00 -0.00000000000E+00 -0.12172991197E+04  0.12172991197E+04  0.00000000000E+00 0. -1.
   -9000010    2    1    2    0  502 -0.98675380299E+02 -0.10476513897E+03 -0.58329150210E+03  0.11640316868E+04  0.99700964208E+03 0.  0.
         13    1    3    3    0    0 -0.48180887712E+03 -0.30388118021E+03 -0.39375358299E+03  0.69247776935E+03  0.10566000000E+00 0. -1.
         -4    1    3    3    0  502  0.38313349683E+03  0.19911604124E+03 -0.18953791911E+03  0.47155391743E+03  0.00000000000E+00 0. -1.
        -13    1    1    2    0    0  0.98675380299E+02  0.10476513897E+03 -0.32856890305E+03  0.35870614748E+03  0.10566000000E+00 0.  1.
<mgrwt>
<rscale>  1 0.61931619E+03</rscale>
<asrwt>0</asrwt>
<pdfrwt beam="1">  1       21 0.46990572E-01 0.10073434E+04</pdfrwt>
<pdfrwt beam="2">  1       -4 0.18727679E+00 0.10073434E+04</pdfrwt>
<totfact> 0.27501924E+01</totfact>
</mgrwt>
</event>
<event>
 6    2  0.2345636E-005  0.1015950E+04  0.7818608E-02  0.9937056E-01
         -4   -1    0    0    0  501 -0.00000000000E+00  0.00000000000E+00  0.10266695835E+04  0.10266695835E+04  0.00000000000E+00 0. -1.
         21   -1    0    0  501  502  0.00000000000E+00 -0.00000000000E+00 -0.33251229452E+03  0.33251229452E+03  0.00000000000E+00 0. -1.
   -9000010    2    1    2    0  502 -0.45036190546E+02 -0.10219313030E+03  0.49333252541E+03  0.11293943867E+04  0.10097935461E+04 0.  0.
         13    1    3    3    0    0 -0.54106134252E+02  0.13475498123E+03 -0.28277000204E+03  0.31787617707E+03  0.10566000000E+00 0. -1.
         -4    1    3    3    0  502  0.90699437064E+01 -0.23694811153E+03  0.77610252745E+03  0.81151820962E+03  0.00000000000E+00 0. -1.
        -13    1    1    2    0    0  0.45036190546E+02  0.10219313030E+03  0.20082476357E+03  0.22978749132E+03  0.10566000000E+00 0.  1.
<mgrwt>
<rscale>  1 0.58498540E+03</rscale>
<asrwt>0</asrwt>
<pdfrwt beam="2">  1       21 0.51155738E-01 0.10159501E+04</pdfrwt>
<pdfrwt beam="1">  1       -4 0.15794917E+00 0.10159501E+04</pdfrwt>
<totfact> 0.37096069E+01</totfact>
</mgrwt>
</event>
<event>
 6    2  0.2345636E-005  0.1600201E+04  0.7818608E-02  0.8882656E-01
         21   -1    0    0  501  502  0.00000000000E+00  0.00000000000E+00  0.97329929691E+03  0.97329929691E+03  0.00000000000E+00 0.  1.
         -4   -1    0    0    0  501 -0.00000000000E+00 -0.00000000000E+00 -0.20850641476E+04  0.20850641476E+04  0.00000000000E+00 0. -1.
   -9000010    2    1    2    0  502  0.39105878762E+03 -0.11813894457E+04 -0.71044627341E+03  0.17508220075E+04  0.10059998990E+04 0.  0.
         13    1    3    3    0    0  0.44411528815E+03 -0.29010921138E+02 -0.16366006753E+03  0.47419895780E+03  0.10566000000E+00 0. -1.
         -4    1    3    3    0  502 -0.53056500528E+02 -0.11523785246E+04 -0.54678620587E+03  0.12766230497E+04  0.00000000000E+00 0. -1.
        -13    1    1    2    0    0 -0.39105878762E+03  0.11813894457E+04 -0.40131857724E+03  0.13075414370E+04  0.10566000000E+00 0.  1.
<mgrwt>
<rscale>  1 0.15027048E+04</rscale>
<asrwt>0</asrwt>
<pdfrwt beam="1">  1       21 0.14973835E+00 0.16002012E+04</pdfrwt>
<pdfrwt beam="2">  1       -4 0.32077910E+00 0.16002012E+04</pdfrwt>
<totfact> 0.22148302E-01</totfact>
</mgrwt>
</event>
<event>
 6    2  0.2345636E-005  0.1271791E+04  0.7818608E-02  0.9177816E-01
         -4   -1    0    0    0  501 -0.00000000000E+00  0.00000000000E+00  0.21762946346E+04  0.21762946346E+04  0.00000000000E+00 0. -1.
         21   -1    0    0  501  502  0.00000000000E+00 -0.00000000000E+00 -0.50538056986E+03  0.50538056986E+03  0.00000000000E+00 0.  1.
   -9000010    2    1    2    0  502  0.75731048262E+03  0.21966494543E+03  0.78000682109E+03  0.14919325502E+04  0.99783778147E+03 0.  0.
         13    1    3    3    0    0  0.70536038430E+03  0.56692181432E+03  0.45248302932E+03  0.10117680160E+04  0.10566000000E+00 0. -1.
         -4    1    3    3    0  502  0.51950098323E+02 -0.34725686890E+03  0.32752379177E+03  0.48016453418E+03  0.00000000000E+00 0. -1.
        -13    1    1    2    0    0 -0.75731048262E+03 -0.21966494543E+03  0.89090724361E+03  0.11897426542E+04  0.10566000000E+00 0.  1.
<mgrwt>
<rscale>  1 0.11285367E+04</rscale>
<asrwt>0</asrwt>
<pdfrwt beam="2">  1       21 0.77750858E-01 0.12717909E+04</pdfrwt>
<pdfrwt beam="1">  1       -4 0.33481455E+00 0.12717909E+04</pdfrwt>
<totfact> 0.10064438E+00</totfact>
</mgrwt>
</event>
<event>
 6    2  0.2345636E-005  0.1013612E+04  0.7818608E-02  0.9761631E-01
         21   -1    0    0  501  502  0.00000000000E+00  0.00000000000E+00  0.87606193838E+03  0.87606193838E+03  0.00000000000E+00 0. -1.
         -4   -1    0    0    0  501 -0.00000000000E+00 -0.00000000000E+00 -0.42280420001E+03  0.42280420001E+03  0.00000000000E+00 0. -1.
   -9000010    2    1    2    0  502 -0.12645230772E+03 -0.15353486820E+03  0.42008072865E+03  0.10972133005E+04  0.99390445536E+03 0.  0.
         13    1    3    3    0    0 -0.42493405059E+03 -0.42017636030E+03  0.15570981210E+03  0.61754568888E+03  0.10566000000E+00 0. -1.
         -4    1    3    3    0  502  0.29848174288E+03  0.26664149210E+03  0.26437091655E+03  0.47966761164E+03  0.00000000000E+00 0. -1.
        -13    1    1    2    0    0  0.12645230772E+03  0.15353486820E+03  0.33177009723E+02  0.20165283786E+03  0.10566000000E+00 0.  1.
<mgrwt>
<rscale>  1 0.67462923E+03</rscale>
<asrwt>0</asrwt>
<pdfrwt beam="1">  1       21 0.13477876E+00 0.10136120E+04</pdfrwt>
<pdfrwt beam="2">  1       -4 0.65046800E-01 0.10136120E+04</pdfrwt>
<totfact> 0.31706946E+01</totfact>
</mgrwt>
</event>
<event>
 6    2  0.2345636E-005  0.9916188E+03  0.7818608E-02  0.9967252E-01
         21   -1    0    0  501  502  0.00000000000E+00  0.00000000000E+00  0.60680396639E+03  0.60680396639E+03  0.00000000000E+00 0. -1.
         -4   -1    0    0    0  501 -0.00000000000E+00 -0.00000000000E+00 -0.50304595164E+03  0.50304595164E+03  0.00000000000E+00 0. -1.
   -9000010    2    1    2    0  502 -0.74102516963E+02 -0.80066915484E+02  0.63808570349E+02  0.99366961314E+03  0.98559924535E+03 0.  0.
         13    1    3    3    0    0  0.15302904262E+02 -0.11193420724E+03  0.51773918337E+03  0.52992199312E+03  0.10566000000E+00 0. -1.
         -4    1    3    3    0  502 -0.89405421225E+02  0.31867291759E+02 -0.45393061302E+03  0.46374762001E+03  0.00000000000E+00 0. -1.
        -13    1    1    2    0    0  0.74102516963E+02  0.80066915484E+02  0.39949444400E+02  0.11618030490E+03  0.10566000000E+00 0.  1.
<mgrwt>
<rscale>  1 0.57109803E+03</rscale>
<asrwt>0</asrwt>
<pdfrwt beam="1">  1       21 0.93354456E-01 0.99161876E+03</pdfrwt>
<pdfrwt beam="2">  1       -4 0.77391685E-01 0.99161876E+03</pdfrwt>
<totfact> 0.54915656E+01</totfact>
</mgrwt>
</event>
<event>
 6    2  0.2345636E-005  0.1085112E+04  0.7818608E-02  0.9492660E-01
         -4   -1    0    0    0  501 -0.00000000000E+00  0.00000000000E+00  0.14178083690E+04  0.14178083690E+04  0.00000000000E+00 0. -1.
         21   -1    0    0  501  502  0.00000000000E+00 -0.00000000000E+00 -0.74918824770E+03  0.74918824770E+03  0.00000000000E+00 0.  1.
   -9000010    2    1    2    0  502  0.40482497604E+03 -0.18391835730E+02 -0.29257870192E+03  0.11238644536E+04  0.10066019533E+04 0.  0.
         13    1    3    3    0    0 -0.33061284714E+03  0.72487867334E+02 -0.14531405461E+03  0.36834159585E+03  0.10566000000E+00 0. -1.
         -4    1    3    3    0  502  0.73543782318E+03 -0.90879703064E+02 -0.14726464731E+03  0.75552285772E+03  0.00000000000E+00 0. -1.
        -13    1    1    2    0    0 -0.40482497604E+03  0.18391835730E+02  0.96119882325E+03  0.10431321632E+04  0.10566000000E+00 0.  1.
<mgrwt>
<rscale>  1 0.84827139E+03</rscale>
<asrwt>0</asrwt>
<pdfrwt beam="2">  1       21 0.11525973E+00 0.10851124E+04</pdfrwt>
<pdfrwt beam="1">  1       -4 0.21812436E+00 0.10851124E+04</pdfrwt>
<totfact> 0.21085896E+00</totfact>
</mgrwt>
</event>
<event>
 6    2  0.2345636E-005  0.1001321E+04  0.7818608E-02  0.9956004E-01
         21   -1    0    0  501  502  0.00000000000E+00  0.00000000000E+00  0.78336563632E+03  0.78336563632E+03  0.00000000000E+00 0. -1.
         -4   -1    0    0    0  501 -0.00000000000E+00 -0.00000000000E+00 -0.89257715980E+03  0.89257715980E+03  0.00000000000E+00 0. -1.
   -9000010    2    1    2    0  502 -0.24145946843E+02  0.10712164428E+03  0.45592808726E+03  0.11002337861E+04  0.99528181430E+03 0.  0.
         13    1    3    3    0    0  0.36574336915E+03  0.10896771847E+03  0.57716473151E+03  0.69192580108E+03  0.10566000000E+00 0. -1.
         -4    1    3    3    0  502 -0.38988931599E+03 -0.18460741837E+01 -0.12123664424E+03  0.40830798501E+03  0.00000000000E+00 0. -1.
        -13    1    1    2    0    0  0.24145946843E+02 -0.10712164428E+03 -0.56513961075E+03  0.57570901003E+03  0.10566000000E+00 0.  1.
<mgrwt>
<rscale>  1 0.57622198E+03</rscale>
<asrwt>0</asrwt>
<pdfrwt beam="1">  1       21 0.12051779E+00 0.10013211E+04</pdfrwt>
<pdfrwt beam="2">  1       -4 0.13731956E+00 0.10013211E+04</pdfrwt>
<totfact> 0.71608887E+00</totfact>
</mgrwt>
</event>
<event>
 6    2  0.2345636E-005  0.9937372E+03  0.7818608E-02  0.9840075E-01
         21   -1    0    0  501  502  0.00000000000E+00  0.00000000000E+00  0.10674375728E+04  0.10674375728E+04  0.00000000000E+00 0. -1.
         -4   -1    0    0    0  501 -0.00000000000E+00 -0.00000000000E+00 -0.42360610497E+03  0.42360610497E+03  0.00000000000E+00 0. -1.
   -9000010    2    1    2    0  502 -0.83604065692E+02 -0.14009751640E+03  0.79193568788E+03  0.12706988910E+04  0.98025332638E+03 0.  0.
         13    1    3    3    0    0  0.19831866755E+03 -0.17954935346E+03  0.92032293920E+03  0.95841670885E+03  0.10566000000E+00 0. -1.
         -4    1    3    3    0  502 -0.28192273324E+03  0.39451837053E+02 -0.12838725133E+03  0.31228218212E+03  0.00000000000E+00 0. -1.
        -13    1    1    2    0    0  0.83604065692E+02  0.14009751640E+03 -0.14810422005E+03  0.22034478679E+03  0.10566000000E+00 0.  1.
<mgrwt>
<rscale>  1 0.63255525E+03</rscale>
<asrwt>0</asrwt>
<pdfrwt beam="1">  1       21 0.16422116E+00 0.99373716E+03</pdfrwt>
<pdfrwt beam="2">  1       -4 0.65170170E-01 0.99373716E+03</pdfrwt>
<totfact> 0.18255036E+01</totfact>
</mgrwt>
</event>
<event>
 6    2  0.2345636E-005  0.9261566E+03  0.7818608E-02  0.1029243E+00
         -4   -1    0    0    0  501 -0.00000000000E+00  0.00000000000E+00  0.47415855272E+03  0.47415855272E+03  0.00000000000E+00 0. -1.
         21   -1    0    0  501  502  0.00000000000E+00 -0.00000000000E+00 -0.57627931105E+03  0.57627931105E+03  0.00000000000E+00 0. -1.
   -9000010    2    1    2    0  502 -0.46605547886E+02  0.16175155781E+02 -0.19390350577E+03  0.94623711210E+03  0.92484181891E+03 0.  0.
         13    1    3    3    0    0 -0.44071276203E+03  0.16430110892E+03  0.26350638123E+02  0.47108063036E+03  0.10566000000E+00 0. -1.
         -4    1    3    3    0  502  0.39410721414E+03 -0.14812595314E+03 -0.22025414389E+03  0.47515648174E+03  0.00000000000E+00 0. -1.
        -13    1    1    2    0    0  0.46605547886E+02 -0.16175155781E+02  0.91782747442E+02  0.10420075168E+03  0.10566000000E+00 0.  1.
<mgrwt>
<rscale>  1 0.44493569E+03</rscale>
<asrwt>0</asrwt>
<pdfrwt beam="2">  1       21 0.88658355E-01 0.92615663E+03</pdfrwt>
<pdfrwt beam="1">  1       -4 0.72947470E-01 0.92615663E+03</pdfrwt>
<totfact> 0.71526449E+01</totfact>
</mgrwt>
</event>
<event>
 6    2  0.2345636E-005  0.1044082E+04  0.7818608E-02  0.9615504E-01
         -4   -1    0    0    0  501 -0.00000000000E+00  0.00000000000E+00  0.55698888803E+03  0.55698888803E+03  0.00000000000E+00 0. -1.
         21   -1    0    0  501  502  0.00000000000E+00 -0.00000000000E+00 -0.86677048428E+03  0.86677048428E+03  0.00000000000E+00 0.  1.
   -9000010    2    1    2    0  502 -0.20623085060E+03  0.21433933990E+03 -0.39186548722E+03  0.11151977209E+04  0.10008171063E+04 0.  0.
         13    1    3    3    0    0 -0.55724998981E+03  0.26672430812E+03 -0.45788941940E+02  0.61948853586E+03  0.10566000000E+00 0. -1.
         -4    1    3    3    0  502  0.35101913921E+03 -0.52384968221E+02 -0.34607654528E+03  0.49570918509E+03  0.00000000000E+00 0. -1.
        -13    1    1    2    0    0  0.20623085060E+03 -0.21433933990E+03  0.82083890967E+02  0.30856165136E+03  0.10566000000E+00 0.  1.
<mgrwt>
<rscale>  1 0.76278481E+03</rscale>
<asrwt>0</asrwt>
<pdfrwt beam="2">  1       21 0.13334931E+00 0.10440821E+04</pdfrwt>
<pdfrwt beam="1">  1       -4 0.85690598E-01 0.10440821E+04</pdfrwt>
<totfact> 0.17403533E+01</totfact>
</mgrwt>
</event>
<event>
 6    2  0.2345636E-005  0.1019431E+04  0.7818608E-02  0.9767109E-01
         -4   -1    0    0    0  501 -0.00000000000E+00  0.00000000000E+00  0.21611792253E+04  0.21611792253E+04  0.00000000000E+00 0. -1.
         21   -1    0    0  501  502  0.00000000000E+00 -0.00000000000E+00 -0.21158586410E+03  0.21158586410E+03  0.00000000000E+00 0. -1.
   -9000010    2    1    2    0  502 -0.15962259886E+03  0.10671013716E+03  0.10917894709E+04  0.14937349689E+04  0.10011860372E+04 0.  0.
         13    1    3    3    0    0 -0.48928036283E+03 -0.32680561394E+02  0.19421436772E+03  0.52743011322E+03  0.10566000000E+00 0. -1.
         -4    1    3    3    0  502  0.32965776397E+03  0.13939069856E+03  0.89757510320E+03  0.96630485566E+03  0.00000000000E+00 0. -1.
        -13    1    1    2    0    0  0.15962259886E+03 -0.10671013716E+03  0.85780389031E+03  0.87903012055E+03  0.10566000000E+00 0.  1.
<mgrwt>
<rscale>  1 0.67157934E+03</rscale>
<asrwt>0</asrwt>
<pdfrwt beam="2">  1       21 0.32551673E-01 0.10194312E+04</pdfrwt>
<pdfrwt beam="1">  1       -4 0.33248910E+00 0.10194312E+04</pdfrwt>
<totfact> 0.71829705E+00</totfact>
</mgrwt>
</event>
<event>
 6    2  0.2345636E-005  0.9994241E+03  0.7818608E-02  0.9692062E-01
         21   -1    0    0  501  502  0.00000000000E+00  0.00000000000E+00  0.29250027417E+03  0.29250027417E+03  0.00000000000E+00 0. -1.
         -4   -1    0    0    0  501 -0.00000000000E+00 -0.00000000000E+00 -0.13592944793E+04  0.13592944793E+04  0.00000000000E+00 0. -1.
   -9000010    2    1    2    0  502  0.26064303219E+03  0.23238245227E+02 -0.84566370914E+03  0.13091965724E+04  0.96455883695E+03 0.  0.
         13    1    3    3    0    0  0.40726507289E+03 -0.29076552697E+03 -0.82136670904E+03  0.96179660695E+03  0.10566000000E+00 0. -1.
         -4    1    3    3    0  502 -0.14662204070E+03  0.31400377220E+03 -0.24297000102E+02  0.34739996544E+03  0.00000000000E+00 0. -1.
        -13    1    1    2    0    0 -0.26064303219E+03 -0.23238245227E+02 -0.22113049602E+03  0.34259818112E+03  0.10566000000E+00 0.  1.
<mgrwt>
<rscale>  1 0.71491397E+03</rscale>
<asrwt>0</asrwt>
<pdfrwt beam="1">  1       21 0.45000042E-01 0.99942411E+03</pdfrwt>
<pdfrwt beam="2">  1       -4 0.20912223E+00 0.99942411E+03</pdfrwt>
<totfact> 0.21604397E+01</totfact>
</mgrwt>
</event>
<event>
 6    2  0.2345636E-005  0.1015436E+04  0.7818608E-02  0.9619368E-01
         -4   -1    0    0    0  501 -0.00000000000E+00  0.00000000000E+00  0.61185439612E+03  0.61185439612E+03  0.00000000000E+00 0. -1.
         21   -1    0    0  501  502  0.00000000000E+00 -0.00000000000E+00 -0.75366254378E+03  0.75366254378E+03  0.00000000000E+00 0. -1.
   -9000010    2    1    2    0  502 -0.16066878096E+03 -0.27569775427E+03  0.21764024384E+01  0.10154379906E+04  0.96399474439E+03 0.  0.
         13    1    3    3    0    0 -0.89579079268E+02 -0.45460295957E+03  0.37484410805E+03  0.59598353903E+03  0.10566000000E+00 0. -1.
         -4    1    3    3    0  502 -0.71089701693E+02  0.17890520530E+03 -0.37266770561E+03  0.41945445161E+03  0.00000000000E+00 0. -1.
        -13    1    1    2    0    0  0.16066878096E+03  0.27569775427E+03 -0.14398455010E+03  0.35007894927E+03  0.10566000000E+00 0.  1.
<mgrwt>
<rscale>  1 0.76027460E+03</rscale>
<asrwt>0</asrwt>
<pdfrwt beam="2">  1       21 0.11594808E+00 0.10154357E+04</pdfrwt>
<pdfrwt beam="1">  1       -4 0.94131446E-01 0.10154357E+04</pdfrwt>
<totfact> 0.20198975E+01</totfact>
</mgrwt>
</event>
<event>
 6    2  0.2345636E-005  0.1212532E+04  0.7818608E-02  0.9250347E-01
         -4   -1    0    0    0  501 -0.00000000000E+00  0.00000000000E+00  0.15244451466E+04  0.15244451466E+04  0.00000000000E+00 0. -1.
         21   -1    0    0  501  502  0.00000000000E+00 -0.00000000000E+00 -0.59642747194E+03  0.59642747194E+03  0.00000000000E+00 0. -1.
   -9000010    2    1    2    0  502 -0.69331043241E+03 -0.41106151541E+02  0.59147515956E+03  0.13491019615E+04  0.99391356102E+03 0.  0.
         13    1    3    3    0    0 -0.51640342669E+03  0.38573573384E+03  0.63786695538E+02  0.64771390996E+03  0.10566000000E+00 0. -1.
         -4    1    3    3    0  502 -0.17690700572E+03 -0.42684188538E+03  0.52768846403E+03  0.70138805155E+03  0.00000000000E+00 0. -1.
        -13    1    1    2    0    0  0.69331043241E+03  0.41106151541E+02  0.33654251505E+03  0.77177065699E+03  0.10566000000E+00 0.  1.
<mgrwt>
<rscale>  1 0.10548539E+04</rscale>
<asrwt>0</asrwt>
<pdfrwt beam="2">  1       21 0.91758073E-01 0.12125317E+04</pdfrwt>
<pdfrwt beam="1">  1       -4 0.23453002E+00 0.12125317E+04</pdfrwt>
<totfact> 0.28874277E+00</totfact>
</mgrwt>
</event>
<event>
 6    2  0.2345636E-005  0.1032501E+04  0.7818608E-02  0.9623935E-01
         -4   -1    0    0    0  501 -0.00000000000E+00  0.00000000000E+00  0.97817520260E+03  0.97817520260E+03  0.00000000000E+00 0. -1.
         21   -1    0    0  501  502  0.00000000000E+00 -0.00000000000E+00 -0.49008728539E+03  0.49008728539E+03  0.00000000000E+00 0. -1.
   -9000010    2    1    2    0  502 -0.29069049334E+03  0.69338440111E+02  0.19709124489E+03  0.10511439717E+04  0.98830658612E+03 0.  0.
         13    1    3    3    0    0 -0.59343510259E+02 -0.43673604650E+03  0.22328501781E+03  0.49408120472E+03  0.10566000000E+00 0. -1.
         -4    1    3    3    0  502 -0.23134698308E+03  0.50607448661E+03 -0.26193772917E+02  0.55706276694E+03  0.00000000000E+00 0. -1.
        -13    1    1    2    0    0  0.29069049334E+03 -0.69338440111E+02  0.29099667232E+03  0.41711851632E+03  0.10566000000E+00 0.  1.
<mgrwt>
<rscale>  1 0.75732047E+03</rscale>
<asrwt>0</asrwt>
<pdfrwt beam="2">  1       21 0.75398044E-01 0.10325012E+04</pdfrwt>
<pdfrwt beam="1">  1       -4 0.15048849E+00 0.10325012E+04</pdfrwt>
<totfact> 0.17681406E+01</totfact>
</mgrwt>
</event>
<event>
 6    2  0.2345636E-005  0.1038513E+04  0.7818608E-02  0.9751107E-01
         21   -1    0    0  501  502  0.00000000000E+00  0.00000000000E+00  0.17359661143E+03  0.17359661143E+03  0.00000000000E+00 0. -1.
         -4   -1    0    0    0  501 -0.00000000000E+00 -0.00000000000E+00 -0.23255670592E+04  0.23255670592E+04  0.00000000000E+00 0. -1.
   -9000010    2    1    2    0  502 -0.33491554075E+02  0.18854987894E+03 -0.20041795139E+04  0.22572651127E+04  0.10207044254E+04 0.  0.
         13    1    3    3    0    0  0.12738095618E+03  0.56458991689E+03 -0.15016450187E+04  0.16093245340E+04  0.10566000000E+00 0. -1.
         -4    1    3    3    0  502 -0.16087251025E+03 -0.37604003795E+03 -0.50253449523E+03  0.64794057875E+03  0.00000000000E+00 0. -1.
        -13    1    1    2    0    0  0.33491554075E+02 -0.18854987894E+03 -0.14779093387E+03  0.24189855795E+03  0.10566000000E+00 0.  1.
<mgrwt>
<rscale>  1 0.68053756E+03</rscale>
<asrwt>0</asrwt>
<pdfrwt beam="1">  1       21 0.26707174E-01 0.10385135E+04</pdfrwt>
<pdfrwt beam="2">  1       -4 0.35777951E+00 0.10385135E+04</pdfrwt>
<totfact> 0.73363423E+00</totfact>
</mgrwt>
</event>
<event>
 6    2  0.2345636E-005  0.1014007E+04  0.7818608E-02  0.1000419E+00
         -4   -1    0    0    0  501 -0.00000000000E+00  0.00000000000E+00  0.32871221393E+03  0.32871221393E+03  0.00000000000E+00 0. -1.
         21   -1    0    0  501  502  0.00000000000E+00 -0.00000000000E+00 -0.11524995114E+04  0.11524995114E+04  0.00000000000E+00 0. -1.
   -9000010    2    1    2    0  502  0.75611471859E+02 -0.50247009278E+02 -0.90520450679E+03  0.13592665338E+04  0.10099348762E+04 0.  0.
         13    1    3    3    0    0  0.19182398367E+02  0.41840816748E+03 -0.75588336770E+03  0.86417187859E+03  0.10566000000E+00 0. -1.
         -4    1    3    3    0  502  0.56429073492E+02 -0.46865517675E+03 -0.14932113909E+03  0.49509465520E+03  0.00000000000E+00 0. -1.
        -13    1    1    2    0    0 -0.75611471859E+02  0.50247009278E+02  0.81417209272E+02  0.12194519157E+03  0.10566000000E+00 0.  1.
<mgrwt>
<rscale>  1 0.55466906E+03</rscale>
<asrwt>0</asrwt>
<pdfrwt beam="2">  1       21 0.17730762E+00 0.10140071E+04</pdfrwt>
<pdfrwt beam="1">  1       -4 0.50571110E-01 0.10140071E+04</pdfrwt>
<totfact> 0.25161431E+01</totfact>
</mgrwt>
</event>
<event>
 6    2  0.2345636E-005  0.1018758E+04  0.7818608E-02  0.9687222E-01
         -4   -1    0    0    0  501 -0.00000000000E+00  0.00000000000E+00  0.82021460272E+03  0.82021460272E+03  0.00000000000E+00 0. -1.
         21   -1    0    0  501  502  0.00000000000E+00 -0.00000000000E+00 -0.49360061513E+03  0.49360061513E+03  0.00000000000E+00 0.  1.
   -9000010    2    1    2    0  502  0.14605895131E+03  0.20426361986E+03  0.22749515563E+03  0.10438496688E+04  0.98732529674E+03 0.  0.
         13    1    3    3    0    0  0.53316230552E+03  0.31081989054E+03  0.13034893804E+03  0.63076295484E+03  0.10566000000E+00 0. -1.
         -4    1    3    3    0  502 -0.38710335422E+03 -0.10655627068E+03  0.97146217588E+02  0.41308671397E+03  0.00000000000E+00 0. -1.
        -13    1    1    2    0    0 -0.14605895131E+03 -0.20426361986E+03  0.99118831955E+02  0.26996554904E+03  0.10566000000E+00 0.  1.
<mgrwt>
<rscale>  1 0.71782710E+03</rscale>
<asrwt>0</asrwt>
<pdfrwt beam="2">  1       21 0.75938556E-01 0.10187581E+04</pdfrwt>
<pdfrwt beam="1">  1       -4 0.12618686E+00 0.10187581E+04</pdfrwt>
<totfact> 0.27607559E+01</totfact>
</mgrwt>
</event>
<event>
 6    2  0.2345636E-005  0.1011029E+04  0.7818608E-02  0.9530176E-01
         21   -1    0    0  501  502  0.00000000000E+00  0.00000000000E+00  0.15007845338E+04  0.15007845338E+04  0.00000000000E+00 0. -1.
         -4   -1    0    0    0  501 -0.00000000000E+00 -0.00000000000E+00 -0.77705727220E+03  0.77705727220E+03  0.00000000000E+00 0. -1.
   -9000010    2    1    2    0  502 -0.36939500652E+03  0.23817127538E+03  0.12399267298E+04  0.15998741598E+04  0.91049481303E+03 0.  0.
         13    1    3    3    0    0 -0.37783626289E+03  0.53482570008E+03  0.10793148614E+04  0.12624259789E+04  0.10566000000E+00 0. -1.
         -4    1    3    3    0  502  0.84412563705E+01 -0.29665442470E+03  0.16061186846E+03  0.33744818090E+03  0.00000000000E+00 0. -1.
        -13    1    1    2    0    0  0.36939500652E+03 -0.23817127538E+03 -0.51619946819E+03  0.67796764626E+03  0.10566000000E+00 0.  1.
<mgrwt>
<rscale>  1 0.82095129E+03</rscale>
<asrwt>0</asrwt>
<pdfrwt beam="1">  1       21 0.23088993E+00 0.10110287E+04</pdfrwt>
<pdfrwt beam="2">  1       -4 0.11954727E+00 0.10110287E+04</pdfrwt>
<totfact> 0.15019608E+00</totfact>
</mgrwt>
</event>
<event>
 6    2  0.2345636E-005  0.1158564E+04  0.7818608E-02  0.9403378E-01
         21   -1    0    0  501  502  0.00000000000E+00  0.00000000000E+00  0.15314656802E+04  0.15314656802E+04  0.00000000000E+00 0. -1.
         -4   -1    0    0    0  501 -0.00000000000E+00 -0.00000000000E+00 -0.52002812142E+03  0.52002812142E+03  0.00000000000E+00 0. -1.
   -9000010    2    1    2    0  502 -0.18296621214E+03  0.41838581061E+03  0.10869778359E+04  0.15886442949E+04  0.10647753559E+04 0.  0.
         13    1    3    3    0    0 -0.27250185595E+03  0.71220983925E+03  0.46024616724E+03  0.89068886950E+03  0.10566000000E+00 0. -1.
         -4    1    3    3    0  502  0.89535643811E+02 -0.29382402864E+03  0.62673166865E+03  0.69795542537E+03  0.00000000000E+00 0. -1.
        -13    1    1    2    0    0  0.18296621214E+03 -0.41838581061E+03 -0.75540277074E+02  0.46284950678E+03  0.10566000000E+00 0.  1.
<mgrwt>
<rscale>  1 0.91798223E+03</rscale>
<asrwt>0</asrwt>
<pdfrwt beam="1">  1       21 0.23561010E+00 0.11585637E+04</pdfrwt>
<pdfrwt beam="2">  1       -4 0.80004327E-01 0.11585637E+04</pdfrwt>
<totfact> 0.35896078E+00</totfact>
</mgrwt>
</event>
<event>
 6    2  0.2345636E-005  0.9675211E+03  0.7818608E-02  0.9860567E-01
         21   -1    0    0  501  502  0.00000000000E+00  0.00000000000E+00  0.12387955097E+04  0.12387955097E+04  0.00000000000E+00 0. -1.
         -4   -1    0    0    0  501 -0.00000000000E+00 -0.00000000000E+00 -0.26617054178E+03  0.26617054178E+03  0.00000000000E+00 0. -1.
   -9000010    2    1    2    0  502  0.15480085197E+03 -0.58205100721E+02  0.73309194567E+03  0.12138866509E+04  0.95328162834E+03 0.  0.
         13    1    3    3    0    0  0.12193162943E+03 -0.39801983416E+03  0.76507419035E+03  0.87099118167E+03  0.10566000000E+00 0. -1.
         -4    1    3    3    0  502  0.32869222541E+02  0.33981473344E+03 -0.31982244680E+02  0.34289546924E+03  0.00000000000E+00 0. -1.
        -13    1    1    2    0    0 -0.15480085197E+03  0.58205100721E+02  0.23953302222E+03  0.29107940054E+03  0.10566000000E+00 0.  1.
<mgrwt>
<rscale>  1 0.62211020E+03</rscale>
<asrwt>0</asrwt>
<pdfrwt beam="1">  1       21 0.19058392E+00 0.96752106E+03</pdfrwt>
<pdfrwt beam="2">  1       -4 0.40949315E-01 0.96752106E+03</pdfrwt>
<totfact> 0.31514391E+01</totfact>
</mgrwt>
</event>
<event>
 6    2  0.2345636E-005  0.1019419E+04  0.7818608E-02  0.9740041E-01
         21   -1    0    0  501  502  0.00000000000E+00  0.00000000000E+00  0.62204964936E+03  0.62204964936E+03  0.00000000000E+00 0. -1.
         -4   -1    0    0    0  501 -0.00000000000E+00 -0.00000000000E+00 -0.65890976024E+03  0.65890976024E+03  0.00000000000E+00 0. -1.
   -9000010    2    1    2    0  502 -0.60299952940E+02 -0.20120377236E+03  0.10900920993E+03  0.10252312096E+04  0.99754547919E+03 0.  0.
         13    1    3    3    0    0 -0.99710086067E+02  0.11106717672E+03  0.50085876872E+03  0.52262561780E+03  0.10566000000E+00 0. -1.
         -4    1    3    3    0  502  0.39410133127E+02 -0.31227094908E+03 -0.39184955879E+03  0.50260559185E+03  0.00000000000E+00 0. -1.
        -13    1    1    2    0    0  0.60299952940E+02  0.20120377236E+03 -0.14586932081E+03  0.25572819996E+03  0.10566000000E+00 0.  1.
<mgrwt>
<rscale>  1 0.68682004E+03</rscale>
<asrwt>0</asrwt>
<pdfrwt beam="1">  1       21 0.95699947E-01 0.10194195E+04</pdfrwt>
<pdfrwt beam="2">  1       -4 0.10137073E+00 0.10194195E+04</pdfrwt>
<totfact> 0.27367738E+01</totfact>
</mgrwt>
</event>
<event>
 6    2  0.2345636E-005  0.9962247E+03  0.7818608E-02  0.9915888E-01
         21   -1    0    0  501  502  0.00000000000E+00  0.00000000000E+00  0.59740990625E+03  0.59740990625E+03  0.00000000000E+00 0. -1.
         -4   -1    0    0    0  501 -0.00000000000E+00 -0.00000000000E+00 -0.85236680212E+03  0.85236680212E+03  0.00000000000E+00 0. -1.
   -9000010    2    1    2    0  502  0.69706365009E+02  0.10585159158E+03  0.16617258238E+03  0.10099885942E+04  0.98812959498E+03 0.  0.
         13    1    3    3    0    0  0.42820894470E+03  0.34879645000E+03  0.19057402823E+02  0.55261655750E+03  0.10566000000E+00 0. -1.
         -4    1    3    3    0  502 -0.35850257970E+03 -0.24294485842E+03  0.14711517955E+03  0.45737203668E+03  0.00000000000E+00 0. -1.
        -13    1    1    2    0    0 -0.69706365009E+02 -0.10585159158E+03 -0.42112947825E+03  0.43978811418E+03  0.10566000000E+00 0.  1.
<mgrwt>
<rscale>  1 0.59497424E+03</rscale>
<asrwt>0</asrwt>
<pdfrwt beam="1">  1       21 0.91909216E-01 0.99622469E+03</pdfrwt>
<pdfrwt beam="2">  1       -4 0.13113335E+00 0.99622469E+03</pdfrwt>
<totfact> 0.15931250E+01</totfact>
</mgrwt>
</event>
<event>
 6    2  0.2345636E-005  0.1032657E+04  0.7818608E-02  0.9646296E-01
         -4   -1    0    0    0  501 -0.00000000000E+00  0.00000000000E+00  0.75971281045E+03  0.75971281045E+03  0.00000000000E+00 0. -1.
         21   -1    0    0  501  502  0.00000000000E+00 -0.00000000000E+00 -0.56672985781E+03  0.56672985781E+03  0.00000000000E+00 0. -1.
   -9000010    2    1    2    0  502 -0.85022425465E+02  0.26346567135E+03  0.18751872117E+03  0.10495440554E+04  0.99485500483E+03 0.  0.
         13    1    3    3    0    0 -0.38893265770E+03  0.10101455156E+03 -0.26455542156E+03  0.48110511751E+03  0.10566000000E+00 0. -1.
         -4    1    3    3    0  502  0.30391023224E+03  0.16245111979E+03  0.45207414273E+03  0.56843893789E+03  0.00000000000E+00 0. -1.
        -13    1    1    2    0    0  0.85022425465E+02 -0.26346567135E+03  0.54642314685E+01  0.27689861285E+03  0.10566000000E+00 0.  1.
<mgrwt>
<rscale>  1 0.74306365E+03</rscale>
<asrwt>0</asrwt>
<pdfrwt beam="2">  1       21 0.87189208E-01 0.10326565E+04</pdfrwt>
<pdfrwt beam="1">  1       -4 0.11687889E+00 0.10326565E+04</pdfrwt>
<totfact> 0.24144528E+01</totfact>
</mgrwt>
</event>
<event>
 6    2  0.2345636E-005  0.1253160E+04  0.7818608E-02  0.9201408E-01
         21   -1    0    0  501  502  0.00000000000E+00  0.00000000000E+00  0.53614634659E+03  0.53614634659E+03  0.00000000000E+00 0. -1.
         -4   -1    0    0    0  501 -0.00000000000E+00 -0.00000000000E+00 -0.22135143611E+04  0.22135143611E+04  0.00000000000E+00 0. -1.
   -9000010    2    1    2    0  502 -0.69475356435E+03  0.29437277491E+03 -0.49570755602E+03  0.13476409874E+04  0.10005360583E+04 0.  0.
         13    1    3    3    0    0 -0.23818189446E+03 -0.14868033001E+03  0.24399440951E+03  0.37198083071E+03  0.10566000000E+00 0. -1.
         -4    1    3    3    0  502 -0.45657166989E+03  0.44305310492E+03 -0.73970196553E+03  0.97566015668E+03  0.00000000000E+00 0. -1.
        -13    1    1    2    0    0  0.69475356435E+03 -0.29437277491E+03 -0.11816604585E+04  0.14020197203E+04  0.10566000000E+00 0.  1.
<mgrwt>
<rscale>  1 0.11038910E+04</rscale>
<asrwt>0</asrwt>
<pdfrwt beam="1">  1       21 0.82484052E-01 0.12531601E+04</pdfrwt>
<pdfrwt beam="2">  1       -4 0.34054067E+00 0.12531601E+04</pdfrwt>
<totfact> 0.80627750E-01</totfact>
</mgrwt>
</event>
<event>
 6    2  0.2345636E-005  0.1030190E+04  0.7818608E-02  0.9735562E-01
         21   -1    0    0  501  502  0.00000000000E+00  0.00000000000E+00  0.11540637522E+04  0.11540637522E+04  0.00000000000E+00 0. -1.
         -4   -1    0    0    0  501 -0.00000000000E+00 -0.00000000000E+00 -0.45073234228E+03  0.45073234228E+03  0.00000000000E+00 0. -1.
   -9000010    2    1    2    0  502 -0.42978741664E+02 -0.20206122833E+03  0.86284415834E+03  0.13437975498E+04  0.10092650301E+04 0.  0.
         13    1    3    3    0    0  0.38678245993E+03 -0.40041231105E+03  0.47775151692E+03  0.73360562514E+03  0.10566000000E+00 0. -1.
         -4    1    3    3    0  502 -0.42976120159E+03  0.19835108272E+03  0.38509264142E+03  0.61019192463E+03  0.00000000000E+00 0. -1.
        -13    1    1    2    0    0  0.42978741664E+02  0.20206122833E+03 -0.15951274847E+03  0.26099854466E+03  0.10566000000E+00 0.  1.
<mgrwt>
<rscale>  1 0.68938356E+03</rscale>
<asrwt>0</asrwt>
<pdfrwt beam="1">  1       21 0.17754827E+00 0.10301902E+04</pdfrwt>
<pdfrwt beam="2">  1       -4 0.69343438E-01 0.10301902E+04</pdfrwt>
<totfact> 0.12590745E+01</totfact>
</mgrwt>
</event>
<event>
 6    2  0.2345636E-005  0.1010708E+04  0.7818608E-02  0.9730355E-01
         21   -1    0    0  501  502  0.00000000000E+00  0.00000000000E+00  0.63099333361E+03  0.63099333361E+03  0.00000000000E+00 0. -1.
         -4   -1    0    0    0  501 -0.00000000000E+00 -0.00000000000E+00 -0.60854104042E+03  0.60854104042E+03  0.00000000000E+00 0. -1.
   -9000010    2    1    2    0  502  0.79576560352E+02 -0.20787556736E+03  0.65482198364E+02  0.10128269318E+04  0.98589339942E+03 0.  0.
         13    1    3    3    0    0 -0.37181638523E+03  0.10750604973E+03 -0.15865666118E+03  0.41830242930E+03  0.10566000000E+00 0. -1.
         -4    1    3    3    0  502  0.45139294559E+03 -0.31538161709E+03  0.22413885954E+03  0.59452450250E+03  0.00000000000E+00 0. -1.
        -13    1    1    2    0    0 -0.79576560352E+02  0.20787556736E+03 -0.43029905174E+02  0.22670744223E+03  0.10566000000E+00 0.  1.
<mgrwt>
<rscale>  1 0.69237900E+03</rscale>
<asrwt>0</asrwt>
<pdfrwt beam="1">  1       21 0.97075897E-01 0.10107079E+04</pdfrwt>
<pdfrwt beam="2">  1       -4 0.93621699E-01 0.10107079E+04</pdfrwt>
<totfact> 0.31997559E+01</totfact>
</mgrwt>
</event>
<event>
 6    2  0.2345636E-005  0.8636093E+03  0.7818608E-02  0.1025604E+00
         21   -1    0    0  501  502  0.00000000000E+00  0.00000000000E+00  0.90986192139E+03  0.90986192139E+03  0.00000000000E+00 0. -1.
         -4   -1    0    0    0  501 -0.00000000000E+00 -0.00000000000E+00 -0.23973097428E+03  0.23973097428E+03  0.00000000000E+00 0. -1.
   -9000010    2    1    2    0  502 -0.15842068399E+02 -0.65946360723E+02  0.64232774772E+03  0.10762926727E+04  0.86094197727E+03 0.  0.
         13    1    3    3    0    0  0.21995996862E+03  0.33007100298E+03  0.23398291017E+03  0.46051847761E+03  0.10566000000E+00 0. -1.
         -4    1    3    3    0  502 -0.23580203702E+03 -0.39601736370E+03  0.40834483755E+03  0.61577419511E+03  0.00000000000E+00 0. -1.
        -13    1    1    2    0    0  0.15842068399E+02  0.65946360723E+02  0.27803199385E+02  0.73300222946E+02  0.10566000000E+00 0.  1.
<mgrwt>
<rscale>  1 0.45717406E+03</rscale>
<asrwt>0</asrwt>
<pdfrwt beam="1">  1       21 0.13997875E+00 0.86360928E+03</pdfrwt>
<pdfrwt beam="2">  1       -4 0.36881689E-01 0.86360928E+03</pdfrwt>
<totfact> 0.95854292E+01</totfact>
</mgrwt>
</event>
<event>
 6    2  0.2345636E-005  0.1126786E+04  0.7818608E-02  0.9412452E-01
         21   -1    0    0  501  502  0.00000000000E+00  0.00000000000E+00  0.13630801325E+04  0.13630801325E+04  0.00000000000E+00 0. -1.
         -4   -1    0    0    0  501 -0.00000000000E+00 -0.00000000000E+00 -0.57562246339E+03  0.57562246339E+03  0.00000000000E+00 0. -1.
   -9000010    2    1    2    0  502 -0.40060468145E+02  0.47888683885E+03  0.90355354430E+03  0.14443184245E+04  0.10191708681E+04 0.  0.
         13    1    3    3    0    0 -0.31941005932E+03 -0.10260917328E+02  0.81330639110E+03  0.87383944143E+03  0.10566000000E+00 0. -1.
         -4    1    3    3    0  502  0.27934959117E+03  0.48914775618E+03  0.90247153201E+02  0.57047898307E+03  0.00000000000E+00 0. -1.
        -13    1    1    2    0    0  0.40060468145E+02 -0.47888683885E+03 -0.11609587519E+03  0.49438417140E+03  0.10566000000E+00 0.  1.
<mgrwt>
<rscale>  1 0.91057953E+03</rscale>
<asrwt>0</asrwt>
<pdfrwt beam="1">  1       21 0.20970463E+00 0.11267860E+04</pdfrwt>
<pdfrwt beam="2">  1       -4 0.88557303E-01 0.11267860E+04</pdfrwt>
<totfact> 0.42243833E+00</totfact>
</mgrwt>
</event>
<event>
 6    2  0.2345636E-005  0.8510127E+03  0.7818608E-02  0.1007886E+00
         21   -1    0    0  501  502  0.00000000000E+00  0.00000000000E+00  0.30209365713E+03  0.30209365713E+03  0.00000000000E+00 0. -1.
         -4   -1    0    0    0  501 -0.00000000000E+00 -0.00000000000E+00 -0.85729454386E+03  0.85729454386E+03  0.00000000000E+00 0. -1.
   -9000010    2    1    2    0  502  0.11462010929E+03 -0.40646287224E+02 -0.58683182246E+03  0.10337282735E+04  0.84227825892E+03 0.  0.
         13    1    3    3    0    0 -0.21419824099E+02 -0.30583541951E+03 -0.65921258529E+03  0.72701812663E+03  0.10566000000E+00 0. -1.
         -4    1    3    3    0  502  0.13603993339E+03  0.26518913229E+03  0.72380762823E+02  0.30671014686E+03  0.00000000000E+00 0. -1.
        -13    1    1    2    0    0 -0.11462010929E+03  0.40646287224E+02  0.31630935731E+02  0.12565992750E+03  0.10566000000E+00 0.  1.
<mgrwt>
<rscale>  1 0.52323614E+03</rscale>
<asrwt>0</asrwt>
<pdfrwt beam="1">  1       21 0.46475948E-01 0.85101266E+03</pdfrwt>
<pdfrwt beam="2">  1       -4 0.13189147E+00 0.85101266E+03</pdfrwt>
<totfact> 0.74562879E+01</totfact>
</mgrwt>
</event>
<event>
 6    2  0.2345636E-005  0.1002937E+04  0.7818608E-02  0.1006913E+00
         21   -1    0    0  501  502  0.00000000000E+00  0.00000000000E+00  0.56262321639E+03  0.56262321639E+03  0.00000000000E+00 0. -1.
         -4   -1    0    0    0  501 -0.00000000000E+00 -0.00000000000E+00 -0.68914662460E+03  0.68914662460E+03  0.00000000000E+00 0. -1.
   -9000010    2    1    2    0  502  0.31060471556E+02 -0.69992726032E+02  0.10451925755E+03  0.10083679939E+04  0.10000090006E+04 0.  0.
         13    1    3    3    0    0  0.14946729078E+03  0.42221607357E+03 -0.10571767241E+03  0.46019900176E+03  0.10566000000E+00 0. -1.
         -4    1    3    3    0  502 -0.11840681922E+03 -0.49220879961E+03  0.21023692996E+03  0.54816899216E+03  0.00000000000E+00 0. -1.
        -13    1    1    2    0    0 -0.31060471556E+02  0.69992726032E+02 -0.23104266575E+03  0.24340184706E+03  0.10566000000E+00 0.  1.
<mgrwt>
<rscale>  1 0.52720193E+03</rscale>
<asrwt>0</asrwt>
<pdfrwt beam="1">  1       21 0.86557418E-01 0.10029366E+04</pdfrwt>
<pdfrwt beam="2">  1       -4 0.10602256E+00 0.10029366E+04</pdfrwt>
<totfact> 0.31332461E+01</totfact>
</mgrwt>
</event>
<event>
 6    2  0.2345636E-005  0.1082302E+04  0.7818608E-02  0.9473720E-01
         21   -1    0    0  501  502  0.00000000000E+00  0.00000000000E+00  0.19642433825E+04  0.19642433825E+04  0.00000000000E+00 0. -1.
         -4   -1    0    0    0  501 -0.00000000000E+00 -0.00000000000E+00 -0.42556784923E+03  0.42556784923E+03  0.00000000000E+00 0. -1.
   -9000010    2    1    2    0  502 -0.31352895114E+03 -0.30368739861E+03  0.16175596913E+04  0.19462470753E+04  0.99037966649E+03 0.  0.
         13    1    3    3    0    0  0.53068038670E+02 -0.58631214016E+03  0.67155993262E+03  0.89306824862E+03  0.10566000000E+00 0. -1.
         -4    1    3    3    0  502 -0.36659698981E+03  0.28262474155E+03  0.94599975870E+03  0.10531788267E+04  0.00000000000E+00 0. -1.
        -13    1    1    2    0    0  0.31352895114E+03  0.30368739861E+03 -0.78884158096E+02  0.44356415640E+03  0.10566000000E+00 0.  1.
<mgrwt>
<rscale>  1 0.86249354E+03</rscale>
<asrwt>0</asrwt>
<pdfrwt beam="1">  1       21 0.30219129E+00 0.10823023E+04</pdfrwt>
<pdfrwt beam="2">  1       -4 0.65471978E-01 0.10823023E+04</pdfrwt>
<totfact> 0.21689052E+00</totfact>
</mgrwt>
</event>
<event>
 6    2  0.2345636E-005  0.9980709E+03  0.7818608E-02  0.9924593E-01
         21   -1    0    0  501  502  0.00000000000E+00  0.00000000000E+00  0.88164035272E+03  0.88164035272E+03  0.00000000000E+00 0. -1.
         -4   -1    0    0    0  501 -0.00000000000E+00 -0.00000000000E+00 -0.35611836216E+03  0.35611836216E+03  0.00000000000E+00 0. -1.
   -9000010    2    1    2    0  502  0.39181667345E+02  0.11614268272E+03  0.46988533341E+03  0.11031490028E+04  0.99051560816E+03 0.  0.
         13    1    3    3    0    0  0.12916275189E+03  0.18560102585E+03  0.75927740787E+03  0.79223288908E+03  0.10566000000E+00 0. -1.
         -4    1    3    3    0  502 -0.89981084545E+02 -0.69458343129E+02 -0.28939207446E+03  0.31091611371E+03  0.00000000000E+00 0. -1.
        -13    1    1    2    0    0 -0.39181667345E+02 -0.11614268272E+03  0.55636657143E+02  0.13460971208E+03  0.10566000000E+00 0.  1.
<mgrwt>
<rscale>  1 0.59084077E+03</rscale>
<asrwt>0</asrwt>
<pdfrwt beam="1">  1       21 0.13563698E+00 0.99807089E+03</pdfrwt>
<pdfrwt beam="2">  1       -4 0.54787441E-01 0.99807089E+03</pdfrwt>
<totfact> 0.45355728E+01</totfact>
</mgrwt>
</event>
<event>
 6    2  0.2345636E-005  0.1210066E+04  0.7818608E-02  0.9250862E-01
         21   -1    0    0  501  502  0.00000000000E+00  0.00000000000E+00  0.11370911836E+04  0.11370911836E+04  0.00000000000E+00 0.  1.
         -4   -1    0    0    0  501 -0.00000000000E+00 -0.00000000000E+00 -0.86227755992E+03  0.86227755992E+03  0.00000000000E+00 0. -1.
   -9000010    2    1    2    0  502  0.45260716657E+03  0.53064774283E+03 -0.87868966875E+02  0.12132523737E+04  0.98884786131E+03 0.  0.
         13    1    3    3    0    0  0.31872606196E+03 -0.24364682278E+03  0.81603212147E+02  0.40940099196E+03  0.10566000000E+00 0. -1.
         -4    1    3    3    0  502  0.13388110461E+03  0.77429456561E+03 -0.16947217902E+03  0.80385138176E+03  0.00000000000E+00 0. -1.
        -13    1    1    2    0    0 -0.45260716657E+03 -0.53064774283E+03  0.36268259057E+03  0.78611636980E+03  0.10566000000E+00 0.  1.
<mgrwt>
<rscale>  1 0.10543520E+04</rscale>
<asrwt>0</asrwt>
<pdfrwt beam="1">  1       21 0.17493711E+00 0.12100663E+04</pdfrwt>
<pdfrwt beam="2">  1       -4 0.13265809E+00 0.12100663E+04</pdfrwt>
<totfact> 0.27163327E+00</totfact>
</mgrwt>
</event>
<event>
 6    2  0.2345636E-005  0.9844043E+03  0.7818608E-02  0.9902213E-01
         -4   -1    0    0    0  501 -0.00000000000E+00  0.00000000000E+00  0.13417166813E+03  0.13417166813E+03  0.00000000000E+00 0. -1.
         21   -1    0    0  501  502  0.00000000000E+00 -0.00000000000E+00 -0.23454835299E+04  0.23454835299E+04  0.00000000000E+00 0. -1.
   -9000010    2    1    2    0  502 -0.10291546087E+03 -0.90821658657E+02 -0.19588871410E+04  0.21923253935E+04  0.97478799433E+03 0.  0.
         13    1    3    3    0    0 -0.25020189253E+03  0.40005206253E+03 -0.95108351668E+03  0.10616979357E+04  0.10566000000E+00 0. -1.
         -4    1    3    3    0  502  0.14728643166E+03 -0.49087372119E+03 -0.10078036243E+04  0.11306274578E+04  0.00000000000E+00 0. -1.
        -13    1    1    2    0    0  0.10291546087E+03  0.90821658657E+02 -0.25242472078E+03  0.28732980457E+03  0.10566000000E+00 0.  1.
<mgrwt>
<rscale>  1 0.60154171E+03</rscale>
<asrwt>0</asrwt>
<pdfrwt beam="2">  1       21 0.36084361E+00 0.98440429E+03</pdfrwt>
<pdfrwt beam="1">  1       -4 0.20641796E-01 0.98440429E+03</pdfrwt>
<totfact> 0.97810211E+00</totfact>
</mgrwt>
</event>
<event>
 6    2  0.2345636E-005  0.1017220E+04  0.7818608E-02  0.9855490E-01
         -4   -1    0    0    0  501 -0.00000000000E+00  0.00000000000E+00  0.43690135320E+03  0.43690135320E+03  0.00000000000E+00 0. -1.
         21   -1    0    0  501  502  0.00000000000E+00 -0.00000000000E+00 -0.10135266109E+04  0.10135266109E+04  0.00000000000E+00 0. -1.
   -9000010    2    1    2    0  502  0.13534447836E+03  0.51101918292E+02 -0.72038859200E+03  0.12464734560E+04  0.10068797442E+04 0.  0.
         13    1    3    3    0    0 -0.20427337236E+03 -0.37991896267E+03 -0.48586240418E+03  0.64971402617E+03  0.10566000000E+00 0. -1.
         -4    1    3    3    0  502  0.33961785072E+03  0.43102088096E+03 -0.23452618782E+03  0.59675942986E+03  0.00000000000E+00 0. -1.
        -13    1    1    2    0    0 -0.13534447836E+03 -0.51101918292E+02  0.14376333434E+03  0.20395450802E+03  0.10566000000E+00 0.  1.
<mgrwt>
<rscale>  1 0.62467786E+03</rscale>
<asrwt>0</asrwt>
<pdfrwt beam="2">  1       21 0.15592717E+00 0.10172199E+04</pdfrwt>
<pdfrwt beam="1">  1       -4 0.67215592E-01 0.10172199E+04</pdfrwt>
<totfact> 0.19720129E+01</totfact>
</mgrwt>
</event>
<event>
 6    2  0.2345636E-005  0.1030884E+04  0.7818608E-02  0.9703502E-01
         -4   -1    0    0    0  501 -0.00000000000E+00  0.00000000000E+00  0.81067981858E+03  0.81067981858E+03  0.00000000000E+00 0. -1.
         21   -1    0    0  501  502  0.00000000000E+00 -0.00000000000E+00 -0.49108775141E+03  0.49108775141E+03  0.00000000000E+00 0. -1.
   -9000010    2    1    2    0  502 -0.20046913411E+03  0.11165348730E+03  0.28628751064E+03  0.10698978229E+04  0.10050206156E+04 0.  0.
         13    1    3    3    0    0 -0.10715569820E+03 -0.44932611407E+03  0.14048298136E+03  0.48281650723E+03  0.10566000000E+00 0. -1.
         -4    1    3    3    0  502 -0.93313435909E+02  0.56097960137E+03  0.14580452928E+03  0.58708131569E+03  0.00000000000E+00 0. -1.
        -13    1    1    2    0    0  0.20046913411E+03 -0.11165348730E+03  0.33304556541E+02  0.23186974707E+03  0.10566000000E+00 0.  1.
<mgrwt>
<rscale>  1 0.70808691E+03</rscale>
<asrwt>0</asrwt>
<pdfrwt beam="2">  1       21 0.75551962E-01 0.10308835E+04</pdfrwt>
<pdfrwt beam="1">  1       -4 0.12471997E+00 0.10308835E+04</pdfrwt>
<totfact> 0.28751797E+01</totfact>
</mgrwt>
</event>
<event>
 6    2  0.2345636E-005  0.1150412E+04  0.7818608E-02  0.9351418E-01
         -4   -1    0    0    0  501 -0.00000000000E+00  0.00000000000E+00  0.43169123557E+03  0.43169123557E+03  0.00000000000E+00 0. -1.
         21   -1    0    0  501  502  0.00000000000E+00 -0.00000000000E+00 -0.22055212230E+04  0.22055212230E+04  0.00000000000E+00 0. -1.
   -9000010    2    1    2    0  502  0.54793124623E+03  0.12562267924E+03 -0.17243661838E+04  0.20728930568E+04  0.10037117021E+04 0.  0.
         13    1    3    3    0    0  0.39742527002E+02  0.10094957105E+03 -0.15211647643E+04  0.15250287000E+04  0.10566000000E+00 0. -1.
         -4    1    3    3    0  502  0.50818871923E+03  0.24673108189E+02 -0.20320141951E+03  0.54786435685E+03  0.00000000000E+00 0. -1.
        -13    1    1    2    0    0 -0.54793124623E+03 -0.12562267924E+03 -0.49463803576E+02  0.56431940172E+03  0.10566000000E+00 0.  1.
<mgrwt>
<rscale>  1 0.96183926E+03</rscale>
<asrwt>0</asrwt>
<pdfrwt beam="2">  1       21 0.33931096E+00 0.11504116E+04</pdfrwt>
<pdfrwt beam="1">  1       -4 0.66414035E-01 0.11504116E+04</pdfrwt>
<totfact> 0.12154700E+00</totfact>
</mgrwt>
</event>
<event>
 6    2  0.2345636E-005  0.1163341E+04  0.7818608E-02  0.9330672E-01
         21   -1    0    0  501  502  0.00000000000E+00  0.00000000000E+00  0.31893834229E+03  0.31893834229E+03  0.00000000000E+00 0. -1.
         -4   -1    0    0    0  501 -0.00000000000E+00 -0.00000000000E+00 -0.24384016106E+04  0.24384016106E+04  0.00000000000E+00 0. -1.
   -9000010    2    1    2    0  502  0.15504963133E+03 -0.56514130249E+03 -0.12377681085E+04  0.16986561257E+04  0.10049565478E+04 0.  0.
         13    1    3    3    0    0 -0.39502536996E+03 -0.45327954415E+03 -0.67063573006E+03  0.90069955127E+03  0.10566000000E+00 0. -1.
         -4    1    3    3    0  502  0.55007500129E+03 -0.11186175834E+03 -0.56713237848E+03  0.79795657447E+03  0.00000000000E+00 0. -1.
        -13    1    1    2    0    0 -0.15504963133E+03  0.56514130249E+03 -0.88169515975E+03  0.10586838271E+04  0.10566000000E+00 0.  1.
<mgrwt>
<rscale>  1 0.98007505E+03</rscale>
<asrwt>0</asrwt>
<pdfrwt beam="1">  1       21 0.49067437E-01 0.11633412E+04</pdfrwt>
<pdfrwt beam="2">  1       -4 0.37513871E+00 0.11633412E+04</pdfrwt>
<totfact> 0.15687621E+00</totfact>
</mgrwt>
</event>
<event>
 6    2  0.2345636E-005  0.1011228E+04  0.7818608E-02  0.9950122E-01
         21   -1    0    0  501  502  0.00000000000E+00  0.00000000000E+00  0.21720248044E+04  0.21720248044E+04  0.00000000000E+00 0. -1.
         -4   -1    0    0    0  501 -0.00000000000E+00 -0.00000000000E+00 -0.16043185391E+03  0.16043185391E+03  0.00000000000E+00 0. -1.
   -9000010    2    1    2    0  502 -0.99124415899E+02  0.44433257451E+02  0.14971199930E+04  0.18066407215E+04  0.10053767747E+04 0.  0.
         13    1    3    3    0    0  0.33669093034E+03 -0.20742560185E+03  0.10891321090E+04  0.11587039850E+04  0.10566000000E+00 0. -1.
         -4    1    3    3    0  502 -0.43581534624E+03  0.25185885930E+03  0.40798788394E+03  0.64793673647E+03  0.00000000000E+00 0. -1.
        -13    1    1    2    0    0  0.99124415899E+02 -0.44433257451E+02  0.51447295755E+03  0.52581593682E+03  0.10566000000E+00 0.  1.
<mgrwt>
<rscale>  1 0.57892468E+03</rscale>
<asrwt>0</asrwt>
<pdfrwt beam="1">  1       21 0.33415764E+00 0.10112282E+04</pdfrwt>
<pdfrwt beam="2">  1       -4 0.24681825E-01 0.10112282E+04</pdfrwt>
<totfact> 0.10231146E+01</totfact>
</mgrwt>
</event>
<event>
 6    2  0.2345636E-005  0.9553117E+03  0.7818608E-02  0.1006094E+00
         21   -1    0    0  501  502  0.00000000000E+00  0.00000000000E+00  0.84014269236E+03  0.84014269236E+03  0.00000000000E+00 0. -1.
         -4   -1    0    0    0  501 -0.00000000000E+00 -0.00000000000E+00 -0.38287527710E+03  0.38287527710E+03  0.00000000000E+00 0. -1.
   -9000010    2    1    2    0  502  0.73718716940E+02 -0.53171002549E+02  0.54234003116E+03  0.10985231267E+04  0.95097778403E+03 0.  0.
         13    1    3    3    0    0  0.12825633129E+03 -0.23515307004E+03  0.76223446592E+03  0.80792824252E+03  0.10566000000E+00 0. -1.
         -4    1    3    3    0  502 -0.54537614351E+02  0.18198206749E+03 -0.21989443475E+03  0.29059488416E+03  0.00000000000E+00 0. -1.
        -13    1    1    2    0    0 -0.73718716940E+02  0.53171002549E+02 -0.85072615904E+02  0.12449484279E+03  0.10566000000E+00 0.  1.
<mgrwt>
<rscale>  1 0.53056907E+03</rscale>
<asrwt>0</asrwt>
<pdfrwt beam="1">  1       21 0.12925272E+00 0.95531165E+03</pdfrwt>
<pdfrwt beam="2">  1       -4 0.58903889E-01 0.95531165E+03</pdfrwt>
<totfact> 0.44294584E+01</totfact>
</mgrwt>
</event>
<event>
 6    2  0.2345636E-005  0.1017511E+04  0.7818608E-02  0.9747115E-01
         -4   -1    0    0    0  501 -0.00000000000E+00  0.00000000000E+00  0.37160900574E+03  0.37160900574E+03  0.00000000000E+00 0. -1.
         21   -1    0    0  501  502  0.00000000000E+00 -0.00000000000E+00 -0.10297179545E+04  0.10297179545E+04  0.00000000000E+00 0. -1.
   -9000010    2    1    2    0  502 -0.17284432883E+03  0.11266522511E+03 -0.46498728852E+03  0.11187237016E+04  0.99637388924E+03 0.  0.
         13    1    3    3    0    0 -0.41792038861E+03  0.15400066785E+03  0.13819925782E+03  0.46633968621E+03  0.10566000000E+00 0. -1.
         -4    1    3    3    0  502  0.24507605978E+03 -0.41335442740E+02 -0.60318654634E+03  0.65238401543E+03  0.00000000000E+00 0. -1.
        -13    1    1    2    0    0  0.17284432883E+03 -0.11266522511E+03 -0.19312166028E+03  0.28260325863E+03  0.10566000000E+00 0.  1.
<mgrwt>
<rscale>  1 0.68279563E+03</rscale>
<asrwt>0</asrwt>
<pdfrwt beam="2">  1       21 0.15841815E+00 0.10175114E+04</pdfrwt>
<pdfrwt beam="1">  1       -4 0.57170617E-01 0.10175114E+04</pdfrwt>
<totfact> 0.26875176E+01</totfact>
</mgrwt>
</event>
<event>
 6    2  0.2345636E-005  0.1049864E+04  0.7818608E-02  0.9706630E-01
         -4   -1    0    0    0  501 -0.00000000000E+00  0.00000000000E+00  0.38212928767E+03  0.38212928767E+03  0.00000000000E+00 0. -1.
         21   -1    0    0  501  502  0.00000000000E+00 -0.00000000000E+00 -0.11381941198E+04  0.11381941198E+04  0.00000000000E+00 0. -1.
   -9000010    2    1    2    0  502  0.16376025153E+03 -0.13927789256E+03 -0.77438741787E+03  0.13045654884E+04  0.10276183578E+04 0.  0.
         13    1    3    3    0    0  0.54505811572E+03 -0.65226451908E+02 -0.73035922500E+03  0.91365608861E+03  0.10566000000E+00 0. -1.
         -4    1    3    3    0  502 -0.38129786419E+03 -0.74051440653E+02 -0.44028192866E+02  0.39090939982E+03  0.00000000000E+00 0. -1.
        -13    1    1    2    0    0 -0.16376025153E+03  0.13927789256E+03  0.18322585705E+02  0.21575791909E+03  0.10566000000E+00 0.  1.
<mgrwt>
<rscale>  1 0.70623408E+03</rscale>
<asrwt>0</asrwt>
<pdfrwt beam="2">  1       21 0.17510679E+00 0.10498644E+04</pdfrwt>
<pdfrwt beam="1">  1       -4 0.58789121E-01 0.10498644E+04</pdfrwt>
<totfact> 0.18837519E+01</totfact>
</mgrwt>
</event>
<event>
 6    2  0.2345636E-005  0.1050572E+04  0.7818608E-02  0.9755023E-01
         -4   -1    0    0    0  501 -0.00000000000E+00  0.00000000000E+00  0.76141059977E+03  0.76141059977E+03  0.00000000000E+00 0. -1.
         21   -1    0    0  501  502  0.00000000000E+00 -0.00000000000E+00 -0.55944752376E+03  0.55944752376E+03  0.00000000000E+00 0. -1.
   -9000010    2    1    2    0  502 -0.63874290867E+02  0.17105891320E+03  0.26859357961E+01  0.10505759255E+04  0.10345827585E+04 0.  0.
         13    1    3    3    0    0 -0.61403231013E+02 -0.16292683487E+03 -0.45316514713E+03  0.48546284310E+03  0.10566000000E+00 0. -1.
         -4    1    3    3    0  502 -0.24710598543E+01  0.33398574807E+03  0.45585108292E+03  0.56511308236E+03  0.00000000000E+00 0. -1.
        -13    1    1    2    0    0  0.63874290867E+02 -0.17105891320E+03  0.19927714021E+03  0.27028219807E+03  0.10566000000E+00 0.  1.
<mgrwt>
<rscale>  1 0.67833151E+03</rscale>
<asrwt>0</asrwt>
<pdfrwt beam="2">  1       21 0.86068850E-01 0.10505725E+04</pdfrwt>
<pdfrwt beam="1">  1       -4 0.11714009E+00 0.10505725E+04</pdfrwt>
<totfact> 0.24726200E+01</totfact>
</mgrwt>
</event>
<event>
 6    2  0.2345636E-005  0.1037800E+04  0.7818608E-02  0.9433739E-01
         -4   -1    0    0    0  501 -0.00000000000E+00  0.00000000000E+00  0.10119432992E+04  0.10119432992E+04  0.00000000000E+00 0. -1.
         21   -1    0    0  501  502  0.00000000000E+00 -0.00000000000E+00 -0.64199759549E+03  0.64199759549E+03  0.00000000000E+00 0.  1.
   -9000010    2    1    2    0  502  0.32471258264E+02  0.56929697464E+03  0.29430481729E+03  0.10787235594E+04  0.86710770041E+03 0.  0.
         13    1    3    3    0    0  0.11554168206E+03  0.68567816488E+03 -0.58740610920E+02  0.69782153637E+03  0.10566000000E+00 0. -1.
         -4    1    3    3    0  502 -0.83070423792E+02 -0.11638119024E+03  0.35304542821E+03  0.38090202300E+03  0.00000000000E+00 0. -1.
        -13    1    1    2    0    0 -0.32471258264E+02 -0.56929697464E+03  0.75640886383E+02  0.57521733528E+03  0.10566000000E+00 0.  1.
<mgrwt>
<rscale>  1 0.89350379E+03</rscale>
<asrwt>0</asrwt>
<pdfrwt beam="2">  1       21 0.98768861E-01 0.10378002E+04</pdfrwt>
<pdfrwt beam="1">  1       -4 0.15568358E+00 0.10378002E+04</pdfrwt>
<totfact> 0.84452178E+00</totfact>
</mgrwt>
</event>
<event>
 6    2  0.2345636E-005  0.1031791E+04  0.7818608E-02  0.9620088E-01
         -4   -1    0    0    0  501 -0.00000000000E+00  0.00000000000E+00  0.59049809974E+03  0.59049809974E+03  0.00000000000E+00 0. -1.
         21   -1    0    0  501  502  0.00000000000E+00 -0.00000000000E+00 -0.77720120048E+03  0.77720120048E+03  0.00000000000E+00 0. -1.
   -9000010    2    1    2    0  502  0.28341409363E+03 -0.10834210378E+03 -0.44861806717E+02  0.10327656892E+04  0.98616977607E+03 0.  0.
         13    1    3    3    0    0  0.62907920494E+03  0.48193305337E+01 -0.16384146731E+03  0.65008300210E+03  0.10566000000E+00 0. -1.
         -4    1    3    3    0  502 -0.34566511132E+03 -0.11316143431E+03  0.11897966060E+03  0.38268268713E+03  0.00000000000E+00 0. -1.
        -13    1    1    2    0    0 -0.28341409363E+03  0.10834210378E+03 -0.14184129402E+03  0.33493361099E+03  0.10566000000E+00 0.  1.
<mgrwt>
<rscale>  1 0.75980756E+03</rscale>
<asrwt>0</asrwt>
<pdfrwt beam="2">  1       21 0.11956942E+00 0.10317909E+04</pdfrwt>
<pdfrwt beam="1">  1       -4 0.90845862E-01 0.10317909E+04</pdfrwt>
<totfact> 0.20264102E+01</totfact>
</mgrwt>
</event>
<event>
 6    2  0.2345636E-005  0.1029288E+04  0.7818608E-02  0.9754126E-01
         21   -1    0    0  501  502  0.00000000000E+00  0.00000000000E+00  0.73481457960E+03  0.73481457960E+03  0.00000000000E+00 0. -1.
         -4   -1    0    0    0  501 -0.00000000000E+00 -0.00000000000E+00 -0.10308019315E+04  0.10308019315E+04  0.00000000000E+00 0. -1.
   -9000010    2    1    2    0  502 -0.23391981606E+02  0.19332684169E+03  0.35292592303E+03  0.10881130778E+04  0.10106982292E+04 0.  0.
         13    1    3    3    0    0 -0.13972166860E+00 -0.33144314080E+03 -0.14734578306E+03  0.36271940402E+03  0.10566000000E+00 0. -1.
         -4    1    3    3    0  502 -0.23252259938E+02  0.52476998248E+03  0.50027170609E+03  0.72539367382E+03  0.00000000000E+00 0. -1.
        -13    1    1    2    0    0  0.23391981606E+02 -0.19332684169E+03 -0.64891327491E+03  0.67750343323E+03  0.10566000000E+00 0.  1.
<mgrwt>
<rscale>  1 0.67883572E+03</rscale>
<asrwt>0</asrwt>
<pdfrwt beam="1">  1       21 0.11304840E+00 0.10292878E+04</pdfrwt>
<pdfrwt beam="2">  1       -4 0.15858491E+00 0.10292878E+04</pdfrwt>
<totfact> 0.57224577E+00</totfact>
</mgrwt>
</event>
<event>
 6    2  0.2345636E-005  0.1176909E+04  0.7818608E-02  0.9303786E-01
         21   -1    0    0  501  502  0.00000000000E+00  0.00000000000E+00  0.16613718943E+04  0.16613718943E+04  0.00000000000E+00 0. -1.
         -4   -1    0    0    0  501 -0.00000000000E+00 -0.00000000000E+00 -0.77878294231E+03  0.77878294231E+03  0.00000000000E+00 0. -1.
   -9000010    2    1    2    0  502 -0.59052399688E+02 -0.62138497640E+03  0.12491919291E+04  0.17162734728E+04  0.99775131318E+03 0.  0.
         13    1    3    3    0    0  0.97322268944E+02 -0.79140595388E+03  0.12530568894E+04  0.14852429387E+04  0.10566000000E+00 0. -1.
         -4    1    3    3    0  502 -0.15637466863E+03  0.17002097748E+03 -0.38649602461E+01  0.23103053411E+03  0.00000000000E+00 0. -1.
        -13    1    1    2    0    0  0.59052399688E+02  0.62138497640E+03 -0.36660297714E+03  0.72388136377E+03  0.10566000000E+00 0.  1.
<mgrwt>
<rscale>  1 0.10043506E+04</rscale>
<asrwt>0</asrwt>
<pdfrwt beam="1">  1       21 0.25559568E+00 0.11769087E+04</pdfrwt>
<pdfrwt beam="2">  1       -4 0.11981276E+00 0.11769087E+04</pdfrwt>
<totfact> 0.10080163E+00</totfact>
</mgrwt>
</event>
<event>
 6    2  0.2345636E-005  0.1028873E+04  0.7818608E-02  0.9715125E-01
         21   -1    0    0  501  502  0.00000000000E+00  0.00000000000E+00  0.11282766187E+04  0.11282766187E+04  0.00000000000E+00 0. -1.
         -4   -1    0    0    0  501 -0.00000000000E+00 -0.00000000000E+00 -0.36540773377E+03  0.36540773377E+03  0.00000000000E+00 0. -1.
   -9000010    2    1    2    0  502  0.15012430473E+03  0.16355312659E+03  0.74633894204E+03  0.12710631894E+04  0.10046356966E+04 0.  0.
         13    1    3    3    0    0  0.77697467216E+02  0.15500909073E+03 -0.23220813585E+03  0.28980225006E+03  0.10566000000E+00 0. -1.
         -4    1    3    3    0  502  0.72426837509E+02  0.85440358590E+01  0.97854707789E+03  0.98126093929E+03  0.00000000000E+00 0. -1.
        -13    1    1    2    0    0 -0.15012430473E+03 -0.16355312659E+03  0.16529942891E+02  0.22262116311E+03  0.10566000000E+00 0.  1.
<mgrwt>
<rscale>  1 0.70123380E+03</rscale>
<asrwt>0</asrwt>
<pdfrwt beam="1">  1       21 0.17358102E+00 0.10288731E+04</pdfrwt>
<pdfrwt beam="2">  1       -4 0.56216575E-01 0.10288731E+04</pdfrwt>
<totfact> 0.21348712E+01</totfact>
</mgrwt>
</event>
<event>
 6    2  0.2345636E-005  0.1043460E+04  0.7818608E-02  0.9976073E-01
         21   -1    0    0  501  502  0.00000000000E+00  0.00000000000E+00  0.11513763235E+04  0.11513763235E+04  0.00000000000E+00 0. -1.
         -4   -1    0    0    0  501 -0.00000000000E+00 -0.00000000000E+00 -0.27989763353E+03  0.27989763353E+03  0.00000000000E+00 0. -1.
   -9000010    2    1    2    0  502 -0.91004285072E+02  0.28280824637E+01  0.81617976978E+03  0.13247480931E+04  0.10394798293E+04 0.  0.
         13    1    3    3    0    0 -0.50363946662E+02 -0.26878014884E+03 -0.15579174894E+03  0.31472269657E+03  0.10566000000E+00 0. -1.
         -4    1    3    3    0  502 -0.40640338409E+02  0.27160823131E+03  0.97197151872E+03  0.10100253965E+04  0.00000000000E+00 0. -1.
        -13    1    1    2    0    0  0.91004285072E+02 -0.28280824637E+01  0.55298920219E+02  0.10652586396E+03  0.10566000000E+00 0.  1.
<mgrwt>
<rscale>  1 0.56711964E+03</rscale>
<asrwt>0</asrwt>
<pdfrwt beam="1">  1       21 0.17713482E+00 0.10434597E+04</pdfrwt>
<pdfrwt beam="2">  1       -4 0.43061175E-01 0.10434597E+04</pdfrwt>
<totfact> 0.35192286E+01</totfact>
</mgrwt>
</event>
<event>
 6    2  0.2345636E-005  0.1348000E+04  0.7818608E-02  0.9096487E-01
         21   -1    0    0  501  502  0.00000000000E+00  0.00000000000E+00  0.73161598309E+03  0.73161598309E+03  0.00000000000E+00 0.  1.
         -4   -1    0    0    0  501 -0.00000000000E+00 -0.00000000000E+00 -0.18579423747E+04  0.18579423747E+04  0.00000000000E+00 0. -1.
   -9000010    2    1    2    0  502  0.77789335093E+03 -0.45484250841E+03 -0.10026430488E+04  0.16799994794E+04  0.10025494474E+04 0.  0.
         13    1    3    3    0    0  0.62198430137E+03 -0.70676398555E+03 -0.10137877394E+04  0.13835264342E+04  0.10566000000E+00 0. -1.
         -4    1    3    3    0  502  0.15590904957E+03  0.25192147714E+03  0.11144690608E+02  0.29647304517E+03  0.00000000000E+00 0. -1.
        -13    1    1    2    0    0 -0.77789335093E+03  0.45484250841E+03 -0.12368334284E+03  0.90955887843E+03  0.10566000000E+00 0.  1.
<mgrwt>
<rscale>  1 0.12188831E+04</rscale>
<asrwt>0</asrwt>
<pdfrwt beam="1">  1       21 0.11255631E+00 0.13480004E+04</pdfrwt>
<pdfrwt beam="2">  1       -4 0.28583728E+00 0.13480004E+04</pdfrwt>
<totfact> 0.81636951E-01</totfact>
</mgrwt>
</event>
<event>
 6    2  0.2345636E-005  0.1061392E+04  0.7818608E-02  0.9619342E-01
         -4   -1    0    0    0  501 -0.00000000000E+00  0.00000000000E+00  0.32750144532E+03  0.32750144532E+03  0.00000000000E+00 0. -1.
         21   -1    0    0  501  502  0.00000000000E+00 -0.00000000000E+00 -0.18403145234E+04  0.18403145234E+04  0.00000000000E+00 0. -1.
   -9000010    2    1    2    0  502 -0.27660796294E+03 -0.39697313356E+02 -0.15575537497E+04  0.18848149428E+04  0.10239462111E+04 0.  0.
         13    1    3    3    0    0  0.13339231660E+03  0.42244977055E+03 -0.61986354406E+03  0.76189772489E+03  0.10566000000E+00 0. -1.
         -4    1    3    3    0  502 -0.41000027955E+03 -0.46214708390E+03 -0.93769020568E+03  0.11229172179E+04  0.00000000000E+00 0. -1.
        -13    1    1    2    0    0  0.27660796294E+03  0.39697313356E+02  0.44740671618E+02  0.28300102599E+03  0.10566000000E+00 0.  1.
<mgrwt>
<rscale>  1 0.76029108E+03</rscale>
<asrwt>0</asrwt>
<pdfrwt beam="2">  1       21 0.28312531E+00 0.10613923E+04</pdfrwt>
<pdfrwt beam="1">  1       -4 0.50384838E-01 0.10613923E+04</pdfrwt>
<totfact> 0.50445211E+00</totfact>
</mgrwt>
</event>
<event>
 6    2  0.2345636E-005  0.1022050E+04  0.7818608E-02  0.9759799E-01
         21   -1    0    0  501  502  0.00000000000E+00  0.00000000000E+00  0.44977288447E+03  0.44977288447E+03  0.00000000000E+00 0. -1.
         -4   -1    0    0    0  501 -0.00000000000E+00 -0.00000000000E+00 -0.87171272919E+03  0.87171272919E+03  0.00000000000E+00 0. -1.
   -9000010    2    1    2    0  502 -0.79511061331E+02 -0.17827173387E+03 -0.22975653252E+03  0.10475563224E+04  0.10032364449E+04 0.  0.
         13    1    3    3    0    0  0.39567913553E+03 -0.31431040644E+03 -0.22525432490E+03  0.55325629860E+03  0.10566000000E+00 0. -1.
         -4    1    3    3    0  502 -0.47519019687E+03  0.13603867257E+03 -0.45022076251E+01  0.49430002378E+03  0.00000000000E+00 0. -1.
        -13    1    1    2    0    0  0.79511061331E+02  0.17827173387E+03 -0.19218331219E+03  0.27392929128E+03  0.10566000000E+00 0.  1.
<mgrwt>
<rscale>  1 0.67565308E+03</rscale>
<asrwt>0</asrwt>
<pdfrwt beam="1">  1       21 0.69195829E-01 0.10220500E+04</pdfrwt>
<pdfrwt beam="2">  1       -4 0.13410965E+00 0.10220500E+04</pdfrwt>
<totfact> 0.29251912E+01</totfact>
</mgrwt>
</event>
<event>
 6    2  0.2345636E-005  0.1037286E+04  0.7818608E-02  0.9636717E-01
         21   -1    0    0  501  502  0.00000000000E+00  0.00000000000E+00  0.14610447169E+04  0.14610447169E+04  0.00000000000E+00 0. -1.
         -4   -1    0    0    0  501 -0.00000000000E+00 -0.00000000000E+00 -0.46614165822E+03  0.46614165822E+03  0.00000000000E+00 0. -1.
   -9000010    2    1    2    0  502  0.99049491969E+02 -0.26422921531E+03  0.11941434025E+04  0.15817524367E+04  0.99816552999E+03 0.  0.
         13    1    3    3    0    0  0.24082605479E+03 -0.58388849312E+03  0.50390251601E+03  0.80798559261E+03  0.10566000000E+00 0. -1.
         -4    1    3    3    0  502 -0.14177656282E+03  0.31965927782E+03  0.69024088647E+03  0.77376684409E+03  0.00000000000E+00 0. -1.
        -13    1    1    2    0    0 -0.99049491969E+02  0.26422921531E+03 -0.19924034377E+03  0.34543393845E+03  0.10566000000E+00 0.  1.
<mgrwt>
<rscale>  1 0.74912976E+03</rscale>
<asrwt>0</asrwt>
<pdfrwt beam="1">  1       21 0.22477611E+00 0.10372860E+04</pdfrwt>
<pdfrwt beam="2">  1       -4 0.71714102E-01 0.10372860E+04</pdfrwt>
<totfact> 0.55130591E+00</totfact>
</mgrwt>
</event>
<event>
 6    2  0.2345636E-005  0.9865507E+03  0.7818608E-02  0.1008382E+00
         -4   -1    0    0    0  501 -0.00000000000E+00  0.00000000000E+00  0.20953239940E+04  0.20953239940E+04  0.00000000000E+00 0. -1.
         21   -1    0    0  501  502  0.00000000000E+00 -0.00000000000E+00 -0.13493897147E+03  0.13493897147E+03  0.00000000000E+00 0. -1.
   -9000010    2    1    2    0  502  0.58551690333E+02 -0.49806649255E+02  0.18131811116E+04  0.20641966976E+04  0.98355135116E+03 0.  0.
         13    1    3    3    0    0  0.32210832643E+03 -0.41073024513E+03  0.11682388024E+04  0.12795448483E+04  0.10566000000E+00 0. -1.
         -4    1    3    3    0  502 -0.26355663610E+03  0.36092359587E+03  0.64494230920E+03  0.78465184935E+03  0.00000000000E+00 0. -1.
        -13    1    1    2    0    0 -0.58551690333E+02  0.49806649255E+02  0.14720391101E+03  0.16606626790E+03  0.10566000000E+00 0.  1.
<mgrwt>
<rscale>  1 0.52122943E+03</rscale>
<asrwt>0</asrwt>
<pdfrwt beam="2">  1       21 0.20759843E-01 0.98655069E+03</pdfrwt>
<pdfrwt beam="1">  1       -4 0.32235751E+00 0.98655069E+03</pdfrwt>
<totfact> 0.20428403E+01</totfact>
</mgrwt>
</event>
<event>
 6    2  0.2345636E-005  0.1003991E+04  0.7818608E-02  0.1002413E+00
         -4   -1    0    0    0  501 -0.00000000000E+00  0.00000000000E+00  0.39238763619E+03  0.39238763619E+03  0.00000000000E+00 0. -1.
         21   -1    0    0  501  502  0.00000000000E+00 -0.00000000000E+00 -0.87351142536E+03  0.87351142536E+03  0.00000000000E+00 0. -1.
   -9000010    2    1    2    0  502  0.18413477249E+02  0.85895500410E+02 -0.55846179121E+03  0.11488594492E+04  0.10001406744E+04 0.  0.
         13    1    3    3    0    0  0.28277364195E+03 -0.11208596780E+03 -0.71968977415E+03  0.78133064636E+03  0.10566000000E+00 0. -1.
         -4    1    3    3    0  502 -0.26436016470E+03  0.19798146821E+03  0.16122798294E+03  0.36752880284E+03  0.00000000000E+00 0. -1.
        -13    1    1    2    0    0 -0.18413477249E+02 -0.85895500410E+02  0.77338002039E+02  0.11703961235E+03  0.10566000000E+00 0.  1.
<mgrwt>
<rscale>  1 0.54604602E+03</rscale>
<asrwt>0</asrwt>
<pdfrwt beam="2">  1       21 0.13438637E+00 0.10039913E+04</pdfrwt>
<pdfrwt beam="1">  1       -4 0.60367328E-01 0.10039913E+04</pdfrwt>
<totfact> 0.37680719E+01</totfact>
</mgrwt>
</event>
<event>
 6    2  0.2345636E-005  0.1042902E+04  0.7818608E-02  0.9684861E-01
         21   -1    0    0  501  502  0.00000000000E+00  0.00000000000E+00  0.99766542190E+03  0.99766542190E+03  0.00000000000E+00 0. -1.
         -4   -1    0    0    0  501 -0.00000000000E+00 -0.00000000000E+00 -0.43263091343E+03  0.43263091343E+03  0.00000000000E+00 0. -1.
   -9000010    2    1    2    0  502  0.15400151998E+03 -0.17874604922E+03  0.58099897476E+03  0.11938190772E+04  0.10158629642E+04 0.  0.
         13    1    3    3    0    0  0.39854871070E+03 -0.49379444180E+03  0.27720553492E+03  0.69247162058E+03  0.10566000000E+00 0. -1.
         -4    1    3    3    0  502 -0.24454719073E+03  0.31504839258E+03  0.30379343985E+03  0.50134745661E+03  0.00000000000E+00 0. -1.
        -13    1    1    2    0    0 -0.15400151998E+03  0.17874604922E+03 -0.15964466300E+02  0.23647725814E+03  0.10566000000E+00 0.  1.
<mgrwt>
<rscale>  1 0.71925341E+03</rscale>
<asrwt>0</asrwt>
<pdfrwt beam="1">  1       21 0.15348699E+00 0.10429018E+04</pdfrwt>
<pdfrwt beam="2">  1       -4 0.66558602E-01 0.10429018E+04</pdfrwt>
<totfact> 0.21013638E+01</totfact>
</mgrwt>
</event>
<event>
 6    2  0.2345636E-005  0.1007907E+04  0.7818608E-02  0.1010285E+00
         21   -1    0    0  501  502  0.00000000000E+00  0.00000000000E+00  0.93829544627E+03  0.93829544627E+03  0.00000000000E+00 0. -1.
         -4   -1    0    0    0  501 -0.00000000000E+00 -0.00000000000E+00 -0.32160027585E+03  0.32160027585E+03  0.00000000000E+00 0. -1.
   -9000010    2    1    2    0  502 -0.67670146416E+02  0.63338465194E+01  0.63274526458E+03  0.11900603227E+04  0.10056130645E+04 0.  0.
         13    1    3    3    0    0 -0.30935233951E+03 -0.22799269101E+03 -0.88300578686E+02  0.39430513625E+03  0.10566000000E+00 0. -1.
         -4    1    3    3    0  502  0.24168219309E+03  0.23432653753E+03  0.72104584326E+03  0.79575518643E+03  0.00000000000E+00 0. -1.
        -13    1    1    2    0    0  0.67670146416E+02 -0.63338465194E+01 -0.16050094157E+02  0.69835399434E+02  0.10566000000E+00 0.  1.
<mgrwt>
<rscale>  1 0.51361578E+03</rscale>
<asrwt>0</asrwt>
<pdfrwt beam="1">  1       21 0.14435314E+00 0.10079072E+04</pdfrwt>
<pdfrwt beam="2">  1       -4 0.49476966E-01 0.10079072E+04</pdfrwt>
<totfact> 0.47492707E+01</totfact>
</mgrwt>
</event>
<event>
 6    2  0.2345636E-005  0.1502298E+04  0.7818608E-02  0.8956642E-01
         21   -1    0    0  501  502  0.00000000000E+00  0.00000000000E+00  0.12799006179E+04  0.12799006179E+04  0.00000000000E+00 0.  1.
         -4   -1    0    0    0  501 -0.00000000000E+00 -0.00000000000E+00 -0.14233818856E+04  0.14233818856E+04  0.00000000000E+00 0. -1.
   -9000010    2    1    2    0  502 -0.11004109561E+04  0.21113590930E+03  0.23507472612E+03  0.15205791188E+04  0.10007087915E+04 0.  0.
         13    1    3    3    0    0 -0.10289487843E+03 -0.33653810790E+03 -0.26554249305E+02  0.35291697805E+03  0.10566000000E+00 0. -1.
         -4    1    3    3    0  502 -0.99751607763E+03  0.54767401720E+03  0.26162897542E+03  0.11676621408E+04  0.00000000000E+00 0. -1.
        -13    1    1    2    0    0  0.11004109561E+04 -0.21113590930E+03 -0.37855599375E+03  0.11827033846E+04  0.10566000000E+00 0.  1.
<mgrwt>
<rscale>  1 0.13961064E+04</rscale>
<asrwt>0</asrwt>
<pdfrwt beam="1">  1       21 0.19690779E+00 0.15022985E+04</pdfrwt>
<pdfrwt beam="2">  1       -4 0.21898183E+00 0.15022985E+04</pdfrwt>
<totfact> 0.43156136E-01</totfact>
</mgrwt>
</event>
<event>
 6    2  0.2345636E-005  0.9622644E+03  0.7818608E-02  0.9641479E-01
         -4   -1    0    0    0  501 -0.00000000000E+00  0.00000000000E+00  0.11417055410E+04  0.11417055410E+04  0.00000000000E+00 0. -1.
         21   -1    0    0  501  502  0.00000000000E+00 -0.00000000000E+00 -0.38614420922E+03  0.38614420922E+03  0.00000000000E+00 0. -1.
   -9000010    2    1    2    0  502  0.16980130042E+03 -0.30352308149E+03  0.43943083902E+03  0.10578526840E+04  0.89721463217E+03 0.  0.
         13    1    3    3    0    0  0.58443948964E+02 -0.95115764836E+02 -0.27956179196E+03  0.30102742496E+03  0.10566000000E+00 0. -1.
         -4    1    3    3    0  502  0.11135735145E+03 -0.20840731666E+03  0.71899263097E+03  0.75682525906E+03  0.00000000000E+00 0. -1.
        -13    1    1    2    0    0 -0.16980130042E+03  0.30352308149E+03  0.31613049276E+03  0.46999706620E+03  0.10566000000E+00 0.  1.
<mgrwt>
<rscale>  1 0.74610592E+03</rscale>
<asrwt>0</asrwt>
<pdfrwt beam="2">  1       21 0.59406802E-01 0.96226443E+03</pdfrwt>
<pdfrwt beam="1">  1       -4 0.17564700E+00 0.96226443E+03</pdfrwt>
<totfact> 0.19951694E+01</totfact>
</mgrwt>
</event>
<event>
 6    2  0.2345636E-005  0.9934148E+03  0.7818608E-02  0.1012909E+00
         -4   -1    0    0    0  501 -0.00000000000E+00  0.00000000000E+00  0.68603950837E+03  0.68603950837E+03  0.00000000000E+00 0. -1.
         21   -1    0    0  501  502  0.00000000000E+00 -0.00000000000E+00 -0.45560661698E+03  0.45560661698E+03  0.00000000000E+00 0. -1.
   -9000010    2    1    2    0  502  0.51048213924E+02  0.41002187445E+02  0.10346315994E+03  0.99878807205E+03  0.99125470384E+03 0.  0.
         13    1    3    3    0    0  0.59721760458E+02 -0.46267093825E+03  0.15696190807E+03  0.49220741312E+03  0.10566000000E+00 0. -1.
         -4    1    3    3    0  502 -0.86735465338E+01  0.50367312570E+03 -0.53498748134E+02  0.50658065894E+03  0.00000000000E+00 0. -1.
        -13    1    1    2    0    0 -0.51048213924E+02 -0.41002187445E+02  0.12696973146E+03  0.14285805329E+03  0.10566000000E+00 0.  1.
<mgrwt>
<rscale>  1 0.50334825E+03</rscale>
<asrwt>0</asrwt>
<pdfrwt beam="2">  1       21 0.70093326E-01 0.99341481E+03</pdfrwt>
<pdfrwt beam="1">  1       -4 0.10554454E+00 0.99341481E+03</pdfrwt>
<totfact> 0.51952600E+01</totfact>
</mgrwt>
</event>
<event>
 6    2  0.2345636E-005  0.1185072E+04  0.7818608E-02  0.9284058E-01
         -4   -1    0    0    0  501 -0.00000000000E+00  0.00000000000E+00  0.70363007910E+03  0.70363007910E+03  0.00000000000E+00 0. -1.
         21   -1    0    0  501  502  0.00000000000E+00 -0.00000000000E+00 -0.12249437201E+04  0.12249437201E+04  0.00000000000E+00 0. -1.
   -9000010    2    1    2    0  502 -0.60373656363E+03  0.25947595500E+03 -0.21858989892E+03  0.12050634091E+04  0.98618997483E+03 0.  0.
         13    1    3    3    0    0  0.10341299773E+03  0.16572028507E+03  0.27520936179E+03  0.33748728119E+03  0.10566000000E+00 0. -1.
         -4    1    3    3    0  502 -0.70714956135E+03  0.93755669936E+02 -0.49379926071E+03  0.86757612787E+03  0.00000000000E+00 0. -1.
        -13    1    1    2    0    0  0.60373656363E+03 -0.25947595500E+03 -0.30272374211E+03  0.72351039017E+03  0.10566000000E+00 0.  1.
<mgrwt>
<rscale>  1 0.10226387E+04</rscale>
<asrwt>0</asrwt>
<pdfrwt beam="2">  1       21 0.18845288E+00 0.11850723E+04</pdfrwt>
<pdfrwt beam="1">  1       -4 0.10825078E+00 0.11850723E+04</pdfrwt>
<totfact> 0.36306761E+00</totfact>
</mgrwt>
</event>
<event>
 6    2  0.2345636E-005  0.1030641E+04  0.7818608E-02  0.9741384E-01
         21   -1    0    0  501  502  0.00000000000E+00  0.00000000000E+00  0.59983799421E+03  0.59983799421E+03  0.00000000000E+00 0. -1.
         -4   -1    0    0    0  501 -0.00000000000E+00 -0.00000000000E+00 -0.10028854018E+04  0.10028854018E+04  0.00000000000E+00 0. -1.
   -9000010    2    1    2    0  502 -0.17036642974E+03 -0.10918773694E+03  0.12408693381E+03  0.10380843013E+04  0.10105814005E+04 0.  0.
         13    1    3    3    0    0 -0.49484600339E+03  0.19215395735E+03  0.23660760265E+03  0.58118747336E+03  0.10566000000E+00 0. -1.
         -4    1    3    3    0  502  0.32447957364E+03 -0.30134169429E+03 -0.11252066883E+03  0.45689682790E+03  0.00000000000E+00 0. -1.
        -13    1    1    2    0    0  0.17036642974E+03  0.10918773694E+03 -0.52713434142E+03  0.56463909477E+03  0.10566000000E+00 0.  1.
<mgrwt>
<rscale>  1 0.68605353E+03</rscale>
<asrwt>0</asrwt>
<pdfrwt beam="1">  1       21 0.92282769E-01 0.10306413E+04</pdfrwt>
<pdfrwt beam="2">  1       -4 0.15429006E+00 0.10306413E+04</pdfrwt>
<totfact> 0.10228699E+01</totfact>
</mgrwt>
</event>
<event>
 6    2  0.2345636E-005  0.1015412E+04  0.7818608E-02  0.9998709E-01
         -4   -1    0    0    0  501 -0.00000000000E+00  0.00000000000E+00  0.20603911787E+04  0.20603911787E+04  0.00000000000E+00 0. -1.
         21   -1    0    0  501  502  0.00000000000E+00 -0.00000000000E+00 -0.16071208016E+03  0.16071208016E+03  0.00000000000E+00 0. -1.
   -9000010    2    1    2    0  502 -0.89701521992E+02  0.20360587398E+02  0.15026981498E+04  0.18136050363E+04  0.10112371540E+04 0.  0.
         13    1    3    3    0    0 -0.17307778620E+03 -0.44003184367E+03  0.10960869300E+04  0.11937296648E+04  0.10566000000E+00 0. -1.
         -4    1    3    3    0  502  0.83376264213E+02  0.46039243107E+03  0.40661121982E+03  0.61987537143E+03  0.00000000000E+00 0. -1.
        -13    1    1    2    0    0  0.89701521992E+02 -0.20360587398E+02  0.39698094874E+03  0.40749822256E+03  0.10566000000E+00 0.  1.
<mgrwt>
<rscale>  1 0.55706896E+03</rscale>
<asrwt>0</asrwt>
<pdfrwt beam="2">  1       21 0.24724937E-01 0.10154120E+04</pdfrwt>
<pdfrwt beam="1">  1       -4 0.31698324E+00 0.10154120E+04</pdfrwt>
<totfact> 0.15627944E+01</totfact>
</mgrwt>
</event>
<event>
 6    2  0.2345636E-005  0.1001123E+04  0.7818608E-02  0.9736903E-01
         21   -1    0    0  501  502  0.00000000000E+00  0.00000000000E+00  0.56216545763E+03  0.56216545763E+03  0.00000000000E+00 0. -1.
         -4   -1    0    0    0  501 -0.00000000000E+00 -0.00000000000E+00 -0.95837704126E+03  0.95837704126E+03  0.00000000000E+00 0. -1.
   -9000010    2    1    2    0  502  0.17629649218E+03  0.13834967044E+03  0.69690328306E+02  0.10035457028E+04  0.97571827453E+03 0.  0.
         13    1    3    3    0    0  0.38218704442E+03 -0.22804403582E+03 -0.21665971302E+03  0.49498733479E+03  0.10566000000E+00 0. -1.
         -4    1    3    3    0  502 -0.20589055223E+03  0.36639370626E+03  0.28635004133E+03  0.50855836800E+03  0.00000000000E+00 0. -1.
        -13    1    1    2    0    0 -0.17629649218E+03 -0.13834967044E+03 -0.46590191193E+03  0.51699679610E+03  0.10566000000E+00 0.  1.
<mgrwt>
<rscale>  1 0.68861479E+03</rscale>
<asrwt>0</asrwt>
<pdfrwt beam="1">  1       21 0.86486995E-01 0.10011230E+04</pdfrwt>
<pdfrwt beam="2">  1       -4 0.14744262E+00 0.10011230E+04</pdfrwt>
<totfact> 0.13556781E+01</totfact>
</mgrwt>
</event>
<event>
 6    2  0.2345636E-005  0.1001646E+04  0.7818608E-02  0.9844827E-01
         -4   -1    0    0    0  501 -0.00000000000E+00  0.00000000000E+00  0.42363890731E+03  0.42363890731E+03  0.00000000000E+00 0. -1.
         21   -1    0    0  501  502  0.00000000000E+00 -0.00000000000E+00 -0.80764946336E+03  0.80764946336E+03  0.00000000000E+00 0. -1.
   -9000010    2    1    2    0  502  0.15119480736E+03 -0.41802835192E+02 -0.38851818275E+03  0.10743562941E+04  0.98928647089E+03 0.  0.
         13    1    3    3    0    0  0.30539455864E+03 -0.45976685270E+03 -0.26363665855E+03  0.61168267442E+03  0.10566000000E+00 0. -1.
         -4    1    3    3    0  502 -0.15419975129E+03  0.41796401751E+03 -0.12488152420E+03  0.46267361965E+03  0.00000000000E+00 0. -1.
        -13    1    1    2    0    0 -0.15119480736E+03  0.41802835192E+02  0.45076267037E+01  0.15693207659E+03  0.10566000000E+00 0.  1.
<mgrwt>
<rscale>  1 0.63011364E+03</rscale>
<asrwt>0</asrwt>
<pdfrwt beam="2">  1       21 0.12425376E+00 0.10016462E+04</pdfrwt>
<pdfrwt beam="1">  1       -4 0.65175217E-01 0.10016462E+04</pdfrwt>
<totfact> 0.39212805E+01</totfact>
</mgrwt>
</event>
<event>
 6    2  0.2345636E-005  0.1026452E+04  0.7818608E-02  0.9761698E-01
         -4   -1    0    0    0  501 -0.00000000000E+00  0.00000000000E+00  0.25406901829E+03  0.25406901829E+03  0.00000000000E+00 0. -1.
         21   -1    0    0  501  502  0.00000000000E+00 -0.00000000000E+00 -0.14677871715E+04  0.14677871715E+04  0.00000000000E+00 0. -1.
   -9000010    2    1    2    0  502  0.12619623928E+02 -0.19107481837E+03 -0.97373338478E+03  0.14148357648E+04  0.10084318002E+04 0.  0.
         13    1    3    3    0    0 -0.65162765963E+02 -0.39324846243E+03 -0.10958994133E+04  0.11661415328E+04  0.10566000000E+00 0. -1.
         -4    1    3    3    0  502  0.77782389891E+02  0.20217364406E+03  0.12216602848E+03  0.24869423203E+03  0.00000000000E+00 0. -1.
        -13    1    1    2    0    0 -0.12619623928E+02  0.19107481837E+03 -0.23998476845E+03  0.30702042502E+03  0.10566000000E+00 0.  1.
<mgrwt>
<rscale>  1 0.67459198E+03</rscale>
<asrwt>0</asrwt>
<pdfrwt beam="2">  1       21 0.22581341E+00 0.10264519E+04</pdfrwt>
<pdfrwt beam="1">  1       -4 0.39087541E-01 0.10264519E+04</pdfrwt>
<totfact> 0.19865264E+01</totfact>
</mgrwt>
</event>
<event>
 6    2  0.2345636E-005  0.1110020E+04  0.7818608E-02  0.9424988E-01
         -4   -1    0    0    0  501 -0.00000000000E+00  0.00000000000E+00  0.29774679416E+04  0.29774679416E+04  0.00000000000E+00 0. -1.
         21   -1    0    0  501  502  0.00000000000E+00 -0.00000000000E+00 -0.22003856558E+03  0.22003856558E+03  0.00000000000E+00 0. -1.
   -9000010    2    1    2    0  502  0.45648259904E+03  0.15072340715E+03  0.16321341770E+04  0.19738304043E+04  0.10005251544E+04 0.  0.
         13    1    3    3    0    0  0.45239309867E+03  0.53500523874E+03  0.12433332535E+04  0.14271537098E+04  0.10566000000E+00 0. -1.
         -4    1    3    3    0  502  0.40895003674E+01 -0.38428183159E+03  0.38880092353E+03  0.54667669444E+03  0.00000000000E+00 0. -1.
        -13    1    1    2    0    0 -0.45648259904E+03 -0.15072340715E+03  0.11252951990E+04  0.12236761029E+04  0.10566000000E+00 0.  1.
<mgrwt>
<rscale>  1 0.90047504E+03</rscale>
<asrwt>0</asrwt>
<pdfrwt beam="2">  1       21 0.33852089E-01 0.11100200E+04</pdfrwt>
<pdfrwt beam="1">  1       -4 0.45807196E+00 0.11100200E+04</pdfrwt>
<totfact> 0.88763670E-01</totfact>
</mgrwt>
</event>
<event>
 6    2  0.2345636E-005  0.1247917E+04  0.7818608E-02  0.9215231E-01
         -4   -1    0    0    0  501 -0.00000000000E+00  0.00000000000E+00  0.75951545258E+03  0.75951545258E+03  0.00000000000E+00 0. -1.
         21   -1    0    0  501  502  0.00000000000E+00 -0.00000000000E+00 -0.13786623740E+04  0.13786623740E+04  0.00000000000E+00 0.  1.
   -9000010    2    1    2    0  502  0.53476389673E+03  0.49059624921E+03 -0.11223025815E+03  0.12529537760E+04  0.10152046242E+04 0.  0.
         13    1    3    3    0    0 -0.19165500052E+03  0.30535561076E+03  0.23128715342E+03  0.42833100139E+03  0.10566000000E+00 0. -1.
         -4    1    3    3    0  502  0.72641889725E+03  0.18524063845E+03 -0.34351741157E+03  0.82462277465E+03  0.00000000000E+00 0. -1.
        -13    1    1    2    0    0 -0.53476389673E+03 -0.49059624921E+03 -0.50691666325E+03  0.88522405053E+03  0.10566000000E+00 0.  1.
<mgrwt>
<rscale>  1 0.10897588E+04</rscale>
<asrwt>0</asrwt>
<pdfrwt beam="2">  1       21 0.21210190E+00 0.12479173E+04</pdfrwt>
<pdfrwt beam="1">  1       -4 0.11684853E+00 0.12479173E+04</pdfrwt>
<totfact> 0.20435295E+00</totfact>
</mgrwt>
</event>
<event>
 6    2  0.2345636E-005  0.1001387E+04  0.7818608E-02  0.1011805E+00
         -4   -1    0    0    0  501 -0.00000000000E+00  0.00000000000E+00  0.40521336761E+03  0.40521336761E+03  0.00000000000E+00 0. -1.
         21   -1    0    0  501  502  0.00000000000E+00 -0.00000000000E+00 -0.79732134412E+03  0.79732134412E+03  0.00000000000E+00 0. -1.
   -9000010    2    1    2    0  502  0.65668889770E+02 -0.78014865016E+01 -0.46502677088E+03  0.11040947401E+04  0.99920069618E+03 0.  0.
         13    1    3    3    0    0 -0.32096509833E+02  0.10958241455E+03  0.30154966904E+03  0.32244488767E+03  0.10566000000E+00 0. -1.
         -4    1    3    3    0  502  0.97765399603E+02 -0.11738390105E+03 -0.76657643992E+03  0.78164985244E+03  0.00000000000E+00 0. -1.
        -13    1    1    2    0    0 -0.65668889770E+02  0.78014865016E+01  0.72918794371E+02  0.98439971617E+02  0.10566000000E+00 0.  1.
<mgrwt>
<rscale>  1 0.50763580E+03</rscale>
<asrwt>0</asrwt>
<pdfrwt beam="2">  1       21 0.12266482E+00 0.10013867E+04</pdfrwt>
<pdfrwt beam="1">  1       -4 0.62340519E-01 0.10013867E+04</pdfrwt>
<totfact> 0.44731438E+01</totfact>
</mgrwt>
</event>
<event>
 6    2  0.2345636E-005  0.8475829E+03  0.7818608E-02  0.1004212E+00
         -4   -1    0    0    0  501 -0.00000000000E+00  0.00000000000E+00  0.11957412928E+04  0.11957412928E+04  0.00000000000E+00 0. -1.
         21   -1    0    0  501  502  0.00000000000E+00 -0.00000000000E+00 -0.27345134104E+03  0.27345134104E+03  0.00000000000E+00 0. -1.
   -9000010    2    1    2    0  502  0.13780049562E+03 -0.76289525421E+01  0.41550155497E+03  0.94394824520E+03  0.83627122988E+03 0.  0.
         13    1    3    3    0    0 -0.93888304775E+02 -0.36255267202E+03  0.38135797058E+02  0.37644893936E+03  0.10566000000E+00 0. -1.
         -4    1    3    3    0  502  0.23168880040E+03  0.35492371948E+03  0.37736575792E+03  0.56749930584E+03  0.00000000000E+00 0. -1.
        -13    1    1    2    0    0 -0.13780049562E+03  0.76289525421E+01  0.50678839675E+03  0.52524438860E+03  0.10566000000E+00 0.  1.
<mgrwt>
<rscale>  1 0.53841295E+03</rscale>
<asrwt>0</asrwt>
<pdfrwt beam="2">  1       21 0.42069438E-01 0.84758289E+03</pdfrwt>
<pdfrwt beam="1">  1       -4 0.18396020E+00 0.84758289E+03</pdfrwt>
<totfact> 0.37230705E+01</totfact>
</mgrwt>
</event>
<event>
 6    2  0.2345636E-005  0.1108282E+04  0.7818608E-02  0.9423793E-01
         -4   -1    0    0    0  501 -0.00000000000E+00  0.00000000000E+00  0.63876850812E+03  0.63876850812E+03  0.00000000000E+00 0. -1.
         21   -1    0    0  501  502  0.00000000000E+00 -0.00000000000E+00 -0.10933737739E+04  0.10933737739E+04  0.00000000000E+00 0.  1.
   -9000010    2    1    2    0  502 -0.45880161268E+03 -0.15737793669E+03 -0.65326595390E+02  0.11102060882E+04  0.99650552409E+03 0.  0.
         13    1    3    3    0    0 -0.10439669740E+02 -0.35453819807E+03  0.32717509944E+03  0.48254520768E+03  0.10566000000E+00 0. -1.
         -4    1    3    3    0  502 -0.44836194294E+03  0.19716026138E+03 -0.39250169483E+03  0.62766088056E+03  0.00000000000E+00 0. -1.
        -13    1    1    2    0    0  0.45880161268E+03  0.15737793669E+03 -0.38927867040E+03  0.62193619379E+03  0.10566000000E+00 0.  1.
<mgrwt>
<rscale>  1 0.90143199E+03</rscale>
<asrwt>0</asrwt>
<pdfrwt beam="2">  1       21 0.16821135E+00 0.11082825E+04</pdfrwt>
<pdfrwt beam="1">  1       -4 0.98272079E-01 0.11082825E+04</pdfrwt>
<totfact> 0.65268812E+00</totfact>
</mgrwt>
</event>
<event>
 6    2  0.2345636E-005  0.1015926E+04  0.7818608E-02  0.9826522E-01
         -4   -1    0    0    0  501 -0.00000000000E+00  0.00000000000E+00  0.14067354784E+04  0.14067354784E+04  0.00000000000E+00 0. -1.
         21   -1    0    0  501  502  0.00000000000E+00 -0.00000000000E+00 -0.34386619259E+03  0.34386619259E+03  0.00000000000E+00 0. -1.
   -9000010    2    1    2    0  502  0.15316173829E+03 -0.44836026094E+02  0.43913158257E+03  0.11067713200E+04  0.10033132216E+04 0.  0.
         13    1    3    3    0    0  0.62678009759E+02  0.56195572693E+02  0.75674463828E+03  0.76141245986E+03  0.10566000000E+00 0. -1.
         -4    1    3    3    0  502  0.90483728531E+02 -0.10103159879E+03 -0.31761305572E+03  0.34535886009E+03  0.00000000000E+00 0. -1.
        -13    1    1    2    0    0 -0.15316173829E+03  0.44836026094E+02  0.62373770326E+03  0.64383035106E+03  0.10566000000E+00 0.  1.
<mgrwt>
<rscale>  1 0.63958417E+03</rscale>
<asrwt>0</asrwt>
<pdfrwt beam="2">  1       21 0.52902492E-01 0.10159263E+04</pdfrwt>
<pdfrwt beam="1">  1       -4 0.21642084E+00 0.10159263E+04</pdfrwt>
<totfact> 0.13652886E+01</totfact>
</mgrwt>
</event>
<event>
 6    2  0.2345636E-005  0.1038899E+04  0.7818608E-02  0.9648745E-01
         21   -1    0    0  501  502  0.00000000000E+00  0.00000000000E+00  0.11850196996E+04  0.11850196996E+04  0.00000000000E+00 0. -1.
         -4   -1    0    0    0  501 -0.00000000000E+00 -0.00000000000E+00 -0.41030365275E+03  0.41030365275E+03  0.00000000000E+00 0. -1.
   -9000010    2    1    2    0  502  0.25926433700E+03 -0.74064226077E+02  0.81793781336E+03  0.13222452714E+04  0.10032979544E+04 0.  0.
         13    1    3    3    0    0  0.46180317274E+03  0.23378199972E+03  0.11748072040E+03  0.53077106607E+03  0.10566000000E+00 0. -1.
         -4    1    3    3    0  502 -0.20253883573E+03 -0.30784622580E+03  0.70045709295E+03  0.79147420538E+03  0.00000000000E+00 0. -1.
        -13    1    1    2    0    0 -0.25926433700E+03  0.74064226077E+02 -0.43221766472E+02  0.27307808093E+03  0.10566000000E+00 0.  1.
<mgrwt>
<rscale>  1 0.74152244E+03</rscale>
<asrwt>0</asrwt>
<pdfrwt beam="1">  1       21 0.18231072E+00 0.10388986E+04</pdfrwt>
<pdfrwt beam="2">  1       -4 0.63123639E-01 0.10388986E+04</pdfrwt>
<totfact> 0.14304957E+01</totfact>
</mgrwt>
</event>
<event>
 6    2  0.2345636E-005  0.1016866E+04  0.7818608E-02  0.9821228E-01
         -4   -1    0    0    0  501 -0.00000000000E+00  0.00000000000E+00  0.51652683906E+03  0.51652683906E+03  0.00000000000E+00 0. -1.
         21   -1    0    0  501  502  0.00000000000E+00 -0.00000000000E+00 -0.14175572358E+04  0.14175572358E+04  0.00000000000E+00 0. -1.
   -9000010    2    1    2    0  502 -0.15871344555E+03  0.32089438180E+02 -0.12128511660E+04  0.15827268590E+04  0.10038907658E+04 0.  0.
         13    1    3    3    0    0  0.14947018540E+02  0.50353632323E+03 -0.49275312356E+03  0.70468283229E+03  0.10566000000E+00 0. -1.
         -4    1    3    3    0  502 -0.17366046409E+03 -0.47144688505E+03 -0.72009804239E+03  0.87804402673E+03  0.00000000000E+00 0. -1.
        -13    1    1    2    0    0  0.15871344555E+03 -0.32089438180E+02  0.31182076922E+03  0.35135721584E+03  0.10566000000E+00 0.  1.
<mgrwt>
<rscale>  1 0.64235668E+03</rscale>
<asrwt>0</asrwt>
<pdfrwt beam="2">  1       21 0.21808573E+00 0.10168659E+04</pdfrwt>
<pdfrwt beam="1">  1       -4 0.79465669E-01 0.10168659E+04</pdfrwt>
<totfact> 0.48478459E+00</totfact>
</mgrwt>
</event>
<event>
 6    2  0.2345636E-005  0.7345292E+03  0.7818608E-02  0.1035042E+00
         -4   -1    0    0    0  501 -0.00000000000E+00  0.00000000000E+00  0.12155997123E+03  0.12155997123E+03  0.00000000000E+00 0. -1.
         21   -1    0    0  501  502  0.00000000000E+00 -0.00000000000E+00 -0.20781561838E+04  0.20781561838E+04  0.00000000000E+00 0. -1.
   -9000010    2    1    2    0  502  0.59805066193E+02 -0.58013206104E+02 -0.19810845181E+04  0.21128722359E+04  0.72978835235E+03 0.  0.
         13    1    3    3    0    0  0.24961733595E+03  0.29156625207E+02 -0.20437150697E+03  0.32392382936E+03  0.10566000000E+00 0. -1.
         -4    1    3    3    0  502 -0.18981226976E+03 -0.87169831311E+02 -0.17767130111E+04  0.17889484065E+04  0.00000000000E+00 0. -1.
        -13    1    1    2    0    0 -0.59805066193E+02  0.58013206104E+02  0.24488305515E+02  0.86843919165E+02  0.10566000000E+00 0.  1.
<mgrwt>
<rscale>  1 0.42627894E+03</rscale>
<asrwt>0</asrwt>
<pdfrwt beam="2">  1       21 0.31971629E+00 0.73452925E+03</pdfrwt>
<pdfrwt beam="1">  1       -4 0.18701537E-01 0.73452925E+03</pdfrwt>
<totfact> 0.22360972E+01</totfact>
</mgrwt>
</event>
<event>
 6    2  0.2345636E-005  0.1003088E+04  0.7818608E-02  0.9921620E-01
         21   -1    0    0  501  502  0.00000000000E+00  0.00000000000E+00  0.18162621910E+03  0.18162621910E+03  0.00000000000E+00 0. -1.
         -4   -1    0    0    0  501 -0.00000000000E+00 -0.00000000000E+00 -0.17448216995E+04  0.17448216995E+04  0.00000000000E+00 0. -1.
   -9000010    2    1    2    0  502  0.32623997666E+02 -0.11745130265E+03 -0.14168098739E+04  0.17359541112E+04  0.99565421890E+03 0.  0.
         13    1    3    3    0    0  0.27563685333E+02 -0.30922048095E+03 -0.14963994363E+04  0.15282631798E+04  0.10566000000E+00 0. -1.
         -4    1    3    3    0  502  0.50603123335E+01  0.19176917830E+03  0.79589562452E+02  0.20769093134E+03  0.00000000000E+00 0. -1.
        -13    1    1    2    0    0 -0.32623997666E+02  0.11745130265E+03 -0.14638560656E+03  0.19049380748E+03  0.10566000000E+00 0.  1.
<mgrwt>
<rscale>  1 0.59224814E+03</rscale>
<asrwt>0</asrwt>
<pdfrwt beam="1">  1       21 0.27942497E-01 0.10030885E+04</pdfrwt>
<pdfrwt beam="2">  1       -4 0.26843409E+00 0.10030885E+04</pdfrwt>
<totfact> 0.24504753E+01</totfact>
</mgrwt>
</event>
<event>
 6    2  0.2345636E-005  0.1061514E+04  0.7818608E-02  0.9538065E-01
         21   -1    0    0  501  502  0.00000000000E+00  0.00000000000E+00  0.78119843453E+03  0.78119843453E+03  0.00000000000E+00 0. -1.
         -4   -1    0    0    0  501 -0.00000000000E+00 -0.00000000000E+00 -0.71443177851E+03  0.71443177851E+03  0.00000000000E+00 0. -1.
   -9000010    2    1    2    0  502  0.19142496116E+03 -0.31602598182E+03  0.23883037458E+03  0.10880497040E+04  0.99513630906E+03 0.  0.
         13    1    3    3    0    0  0.37058674230E+02  0.60409816803E+02  0.56324527130E+03  0.56768647871E+03  0.10566000000E+00 0. -1.
         -4    1    3    3    0  502  0.15436628693E+03 -0.37643579862E+03 -0.32441489672E+03  0.52036322529E+03  0.00000000000E+00 0. -1.
        -13    1    1    2    0    0 -0.19142496116E+03  0.31602598182E+03 -0.17206371857E+03  0.40758050904E+03  0.10566000000E+00 0.  1.
<mgrwt>
<rscale>  1 0.81534658E+03</rscale>
<asrwt>0</asrwt>
<pdfrwt beam="1">  1       21 0.12018437E+00 0.10615141E+04</pdfrwt>
<pdfrwt beam="2">  1       -4 0.10991258E+00 0.10615141E+04</pdfrwt>
<totfact> 0.12587792E+01</totfact>
</mgrwt>
</event>
<event>
 6    2  0.2345636E-005  0.1033273E+04  0.7818608E-02  0.9697112E-01
         -4   -1    0    0    0  501 -0.00000000000E+00  0.00000000000E+00  0.84865096889E+03  0.84865096889E+03  0.00000000000E+00 0. -1.
         21   -1    0    0  501  502  0.00000000000E+00 -0.00000000000E+00 -0.50800259433E+03  0.50800259433E+03  0.00000000000E+00 0. -1.
   -9000010    2    1    2    0  502 -0.14750902391E+03 -0.18011897323E+03  0.12768954420E+03  0.10411329914E+04  0.10067032976E+04 0.  0.
         13    1    3    3    0    0 -0.33341942896E+03  0.23211349497E+03  0.35090915079E+03  0.53682626001E+03  0.10566000000E+00 0. -1.
         -4    1    3    3    0  502  0.18591040505E+03 -0.41223246821E+03 -0.22321960660E+03  0.50430673138E+03  0.00000000000E+00 0. -1.
        -13    1    1    2    0    0  0.14750902391E+03  0.18011897323E+03  0.21295883036E+03  0.31552057183E+03  0.10566000000E+00 0.  1.
<mgrwt>
<rscale>  1 0.71189021E+03</rscale>
<asrwt>0</asrwt>
<pdfrwt beam="2">  1       21 0.78154245E-01 0.10332731E+04</pdfrwt>
<pdfrwt beam="1">  1       -4 0.13056169E+00 0.10332731E+04</pdfrwt>
<totfact> 0.23624439E+01</totfact>
</mgrwt>
</event>
<event>
 6    2  0.2345636E-005  0.1019335E+04  0.7818608E-02  0.9767277E-01
         21   -1    0    0  501  502  0.00000000000E+00  0.00000000000E+00  0.35951593315E+03  0.35951593315E+03  0.00000000000E+00 0. -1.
         -4   -1    0    0    0  501 -0.00000000000E+00 -0.00000000000E+00 -0.11165866725E+04  0.11165866725E+04  0.00000000000E+00 0. -1.
   -9000010    2    1    2    0  502  0.98451213804E+02 -0.16478358419E+03 -0.45061713950E+03  0.11144949576E+04  0.10010978638E+04 0.  0.
         13    1    3    3    0    0 -0.16471421562E+02 -0.20280824266E+03  0.29541301890E+03  0.35870789497E+03  0.10566000000E+00 0. -1.
         -4    1    3    3    0  502  0.11492263537E+03  0.38024658466E+02 -0.74603015840E+03  0.75578706261E+03  0.00000000000E+00 0. -1.
        -13    1    1    2    0    0 -0.98451213804E+02  0.16478358419E+03 -0.30645359980E+03  0.36160764802E+03  0.10566000000E+00 0.  1.
<mgrwt>
<rscale>  1 0.67148577E+03</rscale>
<asrwt>0</asrwt>
<pdfrwt beam="1">  1       21 0.55310145E-01 0.10193347E+04</pdfrwt>
<pdfrwt beam="2">  1       -4 0.17178256E+00 0.10193347E+04</pdfrwt>
<totfact> 0.24751846E+01</totfact>
</mgrwt>
</event>
<event>
 6    2  0.2345636E-005  0.1015381E+04  0.7818608E-02  0.9698211E-01
         -4   -1    0    0    0  501 -0.00000000000E+00  0.00000000000E+00  0.49951044079E+03  0.49951044079E+03  0.00000000000E+00 0. -1.
         21   -1    0    0  501  502  0.00000000000E+00 -0.00000000000E+00 -0.10015282530E+04  0.10015282530E+04  0.00000000000E+00 0. -1.
   -9000010    2    1    2    0  502 -0.22893269736E+03  0.85661566653E+02 -0.65904501386E+03  0.12105122112E+04  0.98552087706E+03 0.  0.
         13    1    3    3    0    0 -0.27076400516E+02  0.28404933532E+02  0.26248256824E+03  0.26539985212E+03  0.10566000000E+00 0. -1.
         -4    1    3    3    0  502 -0.20185629685E+03  0.57256633121E+02 -0.92152758210E+03  0.94511235903E+03  0.00000000000E+00 0. -1.
        -13    1    1    2    0    0  0.22893269736E+03 -0.85661566653E+02  0.15702720162E+03  0.29052648267E+03  0.10566000000E+00 0.  1.
<mgrwt>
<rscale>  1 0.71123386E+03</rscale>
<asrwt>0</asrwt>
<pdfrwt beam="2">  1       21 0.15408127E+00 0.10153814E+04</pdfrwt>
<pdfrwt beam="1">  1       -4 0.76847761E-01 0.10153814E+04</pdfrwt>
<totfact> 0.15088859E+01</totfact>
</mgrwt>
</event>
<event>
 6    2  0.2345636E-005  0.9847918E+03  0.7818608E-02  0.9845359E-01
         -4   -1    0    0    0  501 -0.00000000000E+00  0.00000000000E+00  0.13496810291E+04  0.13496810291E+04  0.00000000000E+00 0. -1.
         21   -1    0    0  501  502  0.00000000000E+00 -0.00000000000E+00 -0.34976503394E+03  0.34976503394E+03  0.00000000000E+00 0. -1.
   -9000010    2    1    2    0  502  0.14557581778E+03  0.77190210788E+02  0.37598676037E+03  0.10541257173E+04  0.97090902593E+03 0.  0.
         13    1    3    3    0    0 -0.16865948617E+03 -0.34663260235E+03  0.35819784592E+03  0.52621848245E+03  0.10566000000E+00 0. -1.
         -4    1    3    3    0  502  0.31423530394E+03  0.42382281314E+03  0.17788914447E+02  0.52790723490E+03  0.00000000000E+00 0. -1.
        -13    1    1    2    0    0 -0.14557581778E+03 -0.77190210788E+02  0.62392923477E+03  0.64532034566E+03  0.10566000000E+00 0.  1.
<mgrwt>
<rscale>  1 0.62984093E+03</rscale>
<asrwt>0</asrwt>
<pdfrwt beam="2">  1       21 0.53810006E-01 0.98479185E+03</pdfrwt>
<pdfrwt beam="1">  1       -4 0.20764323E+00 0.98479185E+03</pdfrwt>
<totfact> 0.15042742E+01</totfact>
</mgrwt>
</event>
<event>
 6    2  0.2345636E-005  0.9979912E+03  0.7818608E-02  0.9937905E-01
         21   -1    0    0  501  502  0.00000000000E+00  0.00000000000E+00  0.12166707943E+04  0.12166707943E+04  0.00000000000E+00 0. -1.
         -4   -1    0    0    0  501 -0.00000000000E+00 -0.00000000000E+00 -0.26499532007E+03  0.26499532007E+03  0.00000000000E+00 0. -1.
   -9000010    2    1    2    0  502  0.62809054114E+02 -0.99299070715E+02  0.75050694890E+03  0.12486981563E+04  0.99105051464E+03 0.  0.
         13    1    3    3    0    0  0.14291590367E+03  0.89642329832E+02 -0.20837218910E+03  0.26810386639E+03  0.10566000000E+00 0. -1.
         -4    1    3    3    0  502 -0.80106849557E+02 -0.18894140055E+03  0.95887913799E+03  0.98059428994E+03  0.00000000000E+00 0. -1.
        -13    1    1    2    0    0 -0.62809054114E+02  0.99299070715E+02  0.20116852531E+03  0.23296795802E+03  0.10566000000E+00 0.  1.
<mgrwt>
<rscale>  1 0.58458920E+03</rscale>
<asrwt>0</asrwt>
<pdfrwt beam="1">  1       21 0.18718012E+00 0.99799118E+03</pdfrwt>
<pdfrwt beam="2">  1       -4 0.40768511E-01 0.99799118E+03</pdfrwt>
<totfact> 0.33491559E+01</totfact>
</mgrwt>
</event>
<event>
 6    2  0.2345636E-005  0.9446557E+03  0.7818608E-02  0.9790927E-01
         21   -1    0    0  501  502  0.00000000000E+00  0.00000000000E+00  0.74654481513E+03  0.74654481513E+03  0.00000000000E+00 0. -1.
         -4   -1    0    0    0  501 -0.00000000000E+00 -0.00000000000E+00 -0.45709978788E+03  0.45709978788E+03  0.00000000000E+00 0. -1.
   -9000010    2    1    2    0  502 -0.11139017574E+03 -0.19327141408E+03  0.21895011376E+03  0.96969769719E+03  0.91793946471E+03 0.  0.
         13    1    3    3    0    0  0.40649431446E+03 -0.86445426114E+02  0.84560709457E+02  0.42410018172E+03  0.10566000000E+00 0. -1.
         -4    1    3    3    0  502 -0.51788449020E+03 -0.10682598797E+03  0.13438940430E+03  0.54559751547E+03  0.00000000000E+00 0. -1.
        -13    1    1    2    0    0  0.11139017574E+03  0.19327141408E+03  0.70494913498E+02  0.23394690583E+03  0.10566000000E+00 0.  1.
<mgrwt>
<rscale>  1 0.65851708E+03</rscale>
<asrwt>0</asrwt>
<pdfrwt beam="1">  1       21 0.11485305E+00 0.94465574E+03</pdfrwt>
<pdfrwt beam="2">  1       -4 0.70323044E-01 0.94465574E+03</pdfrwt>
<totfact> 0.40812596E+01</totfact>
</mgrwt>
</event>
<event>
 6    2  0.2345636E-005  0.9858988E+03  0.7818608E-02  0.9749090E-01
         -4   -1    0    0    0  501 -0.00000000000E+00  0.00000000000E+00  0.35518163659E+03  0.35518163659E+03  0.00000000000E+00 0. -1.
         21   -1    0    0  501  502  0.00000000000E+00 -0.00000000000E+00 -0.11712813654E+04  0.11712813654E+04  0.00000000000E+00 0. -1.
   -9000010    2    1    2    0  502  0.15060938198E+03 -0.16760165345E+03 -0.84604873045E+03  0.12991516427E+04  0.95980364462E+03 0.  0.
         13    1    3    3    0    0 -0.24223085498E+03  0.98234526644E+02  0.67353846535E+02  0.26993028940E+03  0.10566000000E+00 0. -1.
         -4    1    3    3    0  502  0.39284023696E+03 -0.26583618009E+03 -0.91340257699E+03  0.10292213533E+04  0.00000000000E+00 0. -1.
        -13    1    1    2    0    0 -0.15060938198E+03  0.16760165345E+03  0.29949001689E+02  0.22731135925E+03  0.10566000000E+00 0.  1.
<mgrwt>
<rscale>  1 0.68167744E+03</rscale>
<asrwt>0</asrwt>
<pdfrwt beam="2">  1       21 0.18019713E+00 0.98589885E+03</pdfrwt>
<pdfrwt beam="1">  1       -4 0.54643328E-01 0.98589885E+03</pdfrwt>
<totfact> 0.20394103E+01</totfact>
</mgrwt>
</event>
<event>
 6    2  0.2345636E-005  0.1309614E+04  0.7818608E-02  0.9143683E-01
         -4   -1    0    0    0  501 -0.00000000000E+00  0.00000000000E+00  0.94332212741E+03  0.94332212741E+03  0.00000000000E+00 0. -1.
         21   -1    0    0  501  502  0.00000000000E+00 -0.00000000000E+00 -0.16380849026E+04  0.16380849026E+04  0.00000000000E+00 0. -1.
   -9000010    2    1    2    0  502  0.25742847448E+03  0.77988233735E+03 -0.10578164326E+04  0.16834683635E+04  0.10201001157E+04 0.  0.
         13    1    3    3    0    0  0.24303295740E+03  0.87344208644E+03 -0.12053025776E+04  0.15082176273E+04  0.10566000000E+00 0. -1.
         -4    1    3    3    0  502  0.14395517083E+02 -0.93559749091E+02  0.14748614495E+03  0.17525073613E+03  0.00000000000E+00 0. -1.
        -13    1    1    2    0    0 -0.25742847448E+03 -0.77988233735E+03  0.36305365741E+03  0.89793866656E+03  0.10566000000E+00 0.  1.
<mgrwt>
<rscale>  1 0.11654113E+04</rscale>
<asrwt>0</asrwt>
<pdfrwt beam="2">  1       21 0.25201306E+00 0.13096145E+04</pdfrwt>
<pdfrwt beam="1">  1       -4 0.14512648E+00 0.13096145E+04</pdfrwt>
<totfact> 0.63293377E-01</totfact>
</mgrwt>
</event>
<event>
 6    2  0.4145197E-005  0.7746145E+03  0.7818608E-02  0.9915255E-01
         21   -1    0    0  501  502  0.00000000000E+00  0.00000000000E+00  0.68551768709E+03  0.68551768709E+03  0.00000000000E+00 0. -1.
         -4   -1    0    0    0  501 -0.00000000000E+00 -0.00000000000E+00 -0.42255598653E+03  0.42255598653E+03  0.00000000000E+00 0. -1.
   -9000010    2    1    2    0  502 -0.90074012326E+02  0.25469937229E+03  0.30909256179E+03  0.83400586182E+03  0.72597690587E+03 0.  0.
         13    1    3    3    0    0 -0.89740523138E+02  0.37887403908E+03  0.48295157051E+03  0.62035564768E+03  0.10566000000E+00 0. -1.
         -4    1    3    3    0  502 -0.33348918809E+00 -0.12417466679E+03 -0.17385900873E+03  0.21365021414E+03  0.00000000000E+00 0. -1.
        -13    1    1    2    0    0  0.90074012326E+02 -0.25469937229E+03 -0.46130861218E+02  0.27406781180E+03  0.10566000000E+00 0.  1.
<mgrwt>
<rscale>  1 0.59527615E+03</rscale>
<asrwt>0</asrwt>
<pdfrwt beam="1">  1       21 0.10546426E+00 0.77461446E+03</pdfrwt>
<pdfrwt beam="2">  1       -4 0.65008613E-01 0.77461446E+03</pdfrwt>
<totfact> 0.61285420E+01</totfact>
</mgrwt>
</event>
<event>
 6    2  0.2345636E-005  0.1033521E+04  0.7818608E-02  0.9686911E-01
         -4   -1    0    0    0  501 -0.00000000000E+00  0.00000000000E+00  0.29679283475E+03  0.29679283475E+03  0.00000000000E+00 0. -1.
         21   -1    0    0  501  502  0.00000000000E+00 -0.00000000000E+00 -0.18854323711E+04  0.18854323711E+04  0.00000000000E+00 0. -1.
   -9000010    2    1    2    0  502 -0.12357731044E+03 -0.20661996132E+03 -0.16376730561E+04  0.19365273074E+04  0.10050879631E+04 0.  0.
         13    1    3    3    0    0 -0.12827710981E+03 -0.18132911869E+03 -0.17790333821E+04  0.17928455181E+04  0.10566000000E+00 0. -1.
         -4    1    3    3    0  502  0.46997993753E+01 -0.25290842626E+02  0.14136032593E+03  0.14368178932E+03  0.00000000000E+00 0. -1.
        -13    1    1    2    0    0  0.12357731044E+03  0.20661996132E+03  0.49033519769E+02  0.24569789844E+03  0.10566000000E+00 0.  1.
<mgrwt>
<rscale>  1 0.71801479E+03</rscale>
<asrwt>0</asrwt>
<pdfrwt beam="2">  1       21 0.29006652E+00 0.10335207E+04</pdfrwt>
<pdfrwt beam="1">  1       -4 0.45660436E-01 0.10335207E+04</pdfrwt>
<totfact> 0.56396448E+00</totfact>
</mgrwt>
</event>
<event>
 6    2  0.2345636E-005  0.9021787E+03  0.7818608E-02  0.1002595E+00
         -4   -1    0    0    0  501 -0.00000000000E+00  0.00000000000E+00  0.17101137658E+03  0.17101137658E+03  0.00000000000E+00 0. -1.
         21   -1    0    0  501  502  0.00000000000E+00 -0.00000000000E+00 -0.17491928334E+04  0.17491928334E+04  0.00000000000E+00 0. -1.
   -9000010    2    1    2    0  502 -0.10764224440E+03  0.53899223500E+02 -0.15547733134E+04  0.17975668119E+04  0.89411095960E+03 0.  0.
         13    1    3    3    0    0  0.25182696491E+03 -0.26842919710E+03 -0.98044801866E+03  0.10472580306E+04  0.10566000000E+00 0. -1.
         -4    1    3    3    0  502 -0.35946920930E+03  0.32232842060E+03 -0.57432529471E+03  0.75030878131E+03  0.00000000000E+00 0. -1.
        -13    1    1    2    0    0  0.10764224440E+03 -0.53899223500E+02 -0.23408143460E+02  0.12263739812E+03  0.10566000000E+00 0.  1.
<mgrwt>
<rscale>  1 0.54526852E+03</rscale>
<asrwt>0</asrwt>
<pdfrwt beam="2">  1       21 0.26910659E+00 0.90217869E+03</pdfrwt>
<pdfrwt beam="1">  1       -4 0.26309443E-01 0.90217869E+03</pdfrwt>
<totfact> 0.23419502E+01</totfact>
</mgrwt>
</event>
<event>
 6    2  0.2345636E-005  0.9551355E+03  0.7818608E-02  0.1001225E+00
         21   -1    0    0  501  502  0.00000000000E+00  0.00000000000E+00  0.28226600806E+03  0.28226600806E+03  0.00000000000E+00 0. -1.
         -4   -1    0    0    0  501 -0.00000000000E+00 -0.00000000000E+00 -0.99745753930E+03  0.99745753930E+03  0.00000000000E+00 0. -1.
   -9000010    2    1    2    0  502 -0.75374913789E+02 -0.74398341196E+02 -0.63665892253E+03  0.11478756327E+04  0.94924569724E+03 0.  0.
         13    1    3    3    0    0  0.34079716986E+01 -0.12049279608E+03  0.23889139601E+03  0.26758034014E+03  0.10566000000E+00 0. -1.
         -4    1    3    3    0  502 -0.78782885487E+02  0.46094454888E+02 -0.87555031854E+03  0.88029529257E+03  0.00000000000E+00 0. -1.
        -13    1    1    2    0    0  0.75374913789E+02  0.74398341196E+02 -0.78532608709E+02  0.13184791464E+03  0.10566000000E+00 0.  1.
<mgrwt>
<rscale>  1 0.55116411E+03</rscale>
<asrwt>0</asrwt>
<pdfrwt beam="1">  1       21 0.43425540E-01 0.95513553E+03</pdfrwt>
<pdfrwt beam="2">  1       -4 0.15345500E+00 0.95513553E+03</pdfrwt>
<totfact> 0.57298178E+01</totfact>
</mgrwt>
</event>
<event>
 6    2  0.2345636E-005  0.9703873E+03  0.7818608E-02  0.9982647E-01
         21   -1    0    0  501  502  0.00000000000E+00  0.00000000000E+00  0.15716534119E+04  0.15716534119E+04  0.00000000000E+00 0. -1.
         -4   -1    0    0    0  501 -0.00000000000E+00 -0.00000000000E+00 -0.28763216063E+03  0.28763216063E+03  0.00000000000E+00 0. -1.
   -9000010    2    1    2    0  502 -0.10005971203E+03  0.47758992894E+02  0.13970212315E+04  0.17009761475E+04  0.96403250247E+03 0.  0.
         13    1    3    3    0    0 -0.27848127288E+03 -0.40020010990E+03  0.67134878286E+03  0.82971148403E+03  0.10566000000E+00 0. -1.
         -4    1    3    3    0  502  0.17842156085E+03  0.44795910279E+03  0.72567244863E+03  0.87126466349E+03  0.00000000000E+00 0. -1.
        -13    1    1    2    0    0  0.10005971203E+03 -0.47758992894E+02 -0.11299998018E+03  0.15830942505E+03  0.10566000000E+00 0.  1.
<mgrwt>
<rscale>  1 0.56417720E+03</rscale>
<asrwt>0</asrwt>
<pdfrwt beam="1">  1       21 0.24179283E+00 0.97038731E+03</pdfrwt>
<pdfrwt beam="2">  1       -4 0.44251103E-01 0.97038731E+03</pdfrwt>
<totfact> 0.12234370E+01</totfact>
</mgrwt>
</event>
<event>
 6    2  0.2345636E-005  0.1028744E+04  0.7818608E-02  0.9687990E-01
         -4   -1    0    0    0  501 -0.00000000000E+00  0.00000000000E+00  0.78306098949E+03  0.78306098949E+03  0.00000000000E+00 0. -1.
         21   -1    0    0  501  502  0.00000000000E+00 -0.00000000000E+00 -0.53283030416E+03  0.53283030416E+03  0.00000000000E+00 0. -1.
   -9000010    2    1    2    0  502  0.16362341624E+03 -0.17998152784E+03  0.10869863209E+03  0.10344711345E+04  0.99957449088E+03 0.  0.
         13    1    3    3    0    0 -0.41690655115E+03 -0.27874764248E+02 -0.28683562787E+02  0.41882076455E+03  0.10566000000E+00 0. -1.
         -4    1    3    3    0  502  0.58052996739E+03 -0.15210676360E+03  0.13738219487E+03  0.61565036997E+03  0.00000000000E+00 0. -1.
        -13    1    1    2    0    0 -0.16362341624E+03  0.17998152784E+03  0.14153205325E+03  0.28142015914E+03  0.10566000000E+00 0.  1.
<mgrwt>
<rscale>  1 0.71736410E+03</rscale>
<asrwt>0</asrwt>
<pdfrwt beam="2">  1       21 0.81973893E-01 0.10287444E+04</pdfrwt>
<pdfrwt beam="1">  1       -4 0.12047092E+00 0.10287444E+04</pdfrwt>
<totfact> 0.25930981E+01</totfact>
</mgrwt>
</event>
<event>
 6    2  0.2345636E-005  0.1020020E+04  0.7818608E-02  0.9671234E-01
         21   -1    0    0  501  502  0.00000000000E+00  0.00000000000E+00  0.19237530964E+04  0.19237530964E+04  0.00000000000E+00 0.  1.
         -4   -1    0    0    0  501 -0.00000000000E+00 -0.00000000000E+00 -0.21426429120E+03  0.21426429120E+03  0.00000000000E+00 0. -1.
   -9000010    2    1    2    0  502  0.26358866592E+03 -0.15129266354E+02  0.13570344618E+04  0.16976403277E+04  0.98525746501E+03 0.  0.
         13    1    3    3    0    0 -0.19493007189E+03  0.16718989846E+03  0.11221325791E+04  0.11511436624E+04  0.10566000000E+00 0. -1.
         -4    1    3    3    0  502  0.45851873781E+03 -0.18231916481E+03  0.23490188263E+03  0.54649666535E+03  0.00000000000E+00 0. -1.
        -13    1    1    2    0    0 -0.26358866592E+03  0.15129266354E+02  0.35245434342E+03  0.44037705987E+03  0.10566000000E+00 0.  1.
<mgrwt>
<rscale>  1 0.72755648E+03</rscale>
<asrwt>0</asrwt>
<pdfrwt beam="1">  1       21 0.29596200E+00 0.10200197E+04</pdfrwt>
<pdfrwt beam="2">  1       -4 0.32963738E-01 0.10200197E+04</pdfrwt>
<totfact> 0.10067332E+01</totfact>
</mgrwt>
</event>
<event>
 6    2  0.2345636E-005  0.1011853E+04  0.7818608E-02  0.1001342E+00
         21   -1    0    0  501  502  0.00000000000E+00  0.00000000000E+00  0.50410460836E+03  0.50410460836E+03  0.00000000000E+00 0. -1.
         -4   -1    0    0    0  501 -0.00000000000E+00 -0.00000000000E+00 -0.76119697607E+03  0.76119697607E+03  0.00000000000E+00 0. -1.
   -9000010    2    1    2    0  502 -0.46599406001E+02 -0.75532011193E+02 -0.19899362216E+02  0.10120485047E+04  0.10079531745E+04 0.  0.
         13    1    3    3    0    0 -0.49111472882E+03  0.14220012976E+03  0.42999744518E+02  0.51309213886E+03  0.10566000000E+00 0. -1.
         -4    1    3    3    0  502  0.44451532281E+03 -0.21773214095E+03 -0.62899106734E+02  0.49895636587E+03  0.00000000000E+00 0. -1.
        -13    1    1    2    0    0  0.46599406001E+02  0.75532011193E+02 -0.23719300550E+03  0.25325307969E+03  0.10566000000E+00 0.  1.
<mgrwt>
<rscale>  1 0.55065600E+03</rscale>
<asrwt>0</asrwt>
<pdfrwt beam="1">  1       21 0.77554555E-01 0.10118529E+04</pdfrwt>
<pdfrwt beam="2">  1       -4 0.11710723E+00 0.10118529E+04</pdfrwt>
<totfact> 0.31764799E+01</totfact>
</mgrwt>
</event>
<event>
 6    2  0.2345636E-005  0.1039180E+04  0.7818608E-02  0.9667562E-01
         21   -1    0    0  501  502  0.00000000000E+00  0.00000000000E+00  0.31584827249E+03  0.31584827249E+03  0.00000000000E+00 0. -1.
         -4   -1    0    0    0  501 -0.00000000000E+00 -0.00000000000E+00 -0.14038452358E+04  0.14038452358E+04  0.00000000000E+00 0. -1.
   -9000010    2    1    2    0  502  0.21668886751E+03  0.13020663885E+03 -0.68726049615E+03  0.12458817721E+04  0.10079615897E+04 0.  0.
         13    1    3    3    0    0  0.18876743798E+03 -0.16720194217E+02  0.24047357941E+03  0.30617031877E+03  0.10566000000E+00 0. -1.
         -4    1    3    3    0  502  0.27921429536E+02  0.14692683307E+03 -0.92773407556E+03  0.93971145329E+03  0.00000000000E+00 0. -1.
        -13    1    1    2    0    0 -0.21668886751E+03 -0.13020663885E+03 -0.40073646712E+03  0.47381173619E+03  0.10566000000E+00 0.  1.
<mgrwt>
<rscale>  1 0.72981411E+03</rscale>
<asrwt>0</asrwt>
<pdfrwt beam="1">  1       21 0.48592043E-01 0.10391797E+04</pdfrwt>
<pdfrwt beam="2">  1       -4 0.21597619E+00 0.10391797E+04</pdfrwt>
<totfact> 0.16482617E+01</totfact>
</mgrwt>
</event>
<event>
 6    2  0.2345636E-005  0.9952809E+03  0.7818608E-02  0.9999634E-01
         21   -1    0    0  501  502  0.00000000000E+00  0.00000000000E+00  0.29110803758E+03  0.29110803758E+03  0.00000000000E+00 0. -1.
         -4   -1    0    0    0  501 -0.00000000000E+00 -0.00000000000E+00 -0.11286832613E+04  0.11286832613E+04  0.00000000000E+00 0. -1.
   -9000010    2    1    2    0  502  0.37591182883E+02  0.89846929563E+02 -0.59785183077E+03  0.11610387451E+04  0.99050420916E+03 0.  0.
         13    1    3    3    0    0 -0.16026561296E+03 -0.22524905607E+02  0.24187717143E+03  0.29102751639E+03  0.10566000000E+00 0. -1.
         -4    1    3    3    0  502  0.19785679585E+03  0.11237183517E+03 -0.83972900220E+03  0.87001122874E+03  0.00000000000E+00 0. -1.
        -13    1    1    2    0    0 -0.37591182883E+02 -0.89846929563E+02 -0.23972339292E+03  0.25875255373E+03  0.10566000000E+00 0.  1.
<mgrwt>
<rscale>  1 0.55666286E+03</rscale>
<asrwt>0</asrwt>
<pdfrwt beam="1">  1       21 0.44785852E-01 0.99528094E+03</pdfrwt>
<pdfrwt beam="2">  1       -4 0.17364358E+00 0.99528094E+03</pdfrwt>
<totfact> 0.37969377E+01</totfact>
</mgrwt>
</event>
<event>
 6    2  0.2345636E-005  0.1015071E+04  0.7818608E-02  0.9753705E-01
         21   -1    0    0  501  502  0.00000000000E+00  0.00000000000E+00  0.12238035487E+04  0.12238035487E+04  0.00000000000E+00 0. -1.
         -4   -1    0    0    0  501 -0.00000000000E+00 -0.00000000000E+00 -0.45741744302E+03  0.45741744302E+03  0.00000000000E+00 0. -1.
   -9000010    2    1    2    0  502 -0.11826758908E+03  0.16538201967E+03  0.96241757431E+03  0.13987908536E+04  0.99449978864E+03 0.  0.
         13    1    3    3    0    0 -0.17182612630E+03  0.51498909981E+03  0.23826542131E+03  0.59288144917E+03  0.10566000000E+00 0. -1.
         -4    1    3    3    0  502  0.53558537226E+02 -0.34960708014E+03  0.72415215300E+03  0.80590940439E+03  0.00000000000E+00 0. -1.
        -13    1    1    2    0    0  0.11826758908E+03 -0.16538201967E+03 -0.19603146866E+03  0.28243013814E+03  0.10566000000E+00 0.  1.
<mgrwt>
<rscale>  1 0.67907297E+03</rscale>
<asrwt>0</asrwt>
<pdfrwt beam="1">  1       21 0.18827747E+00 0.10150706E+04</pdfrwt>
<pdfrwt beam="2">  1       -4 0.70371915E-01 0.10150706E+04</pdfrwt>
<totfact> 0.10217194E+01</totfact>
</mgrwt>
</event>
<event>
 6    2  0.2345636E-005  0.1004947E+04  0.7818608E-02  0.9746145E-01
         21   -1    0    0  501  502  0.00000000000E+00  0.00000000000E+00  0.81957620830E+03  0.81957620830E+03  0.00000000000E+00 0. -1.
         -4   -1    0    0    0  501 -0.00000000000E+00 -0.00000000000E+00 -0.46787268343E+03  0.46787268343E+03  0.00000000000E+00 0. -1.
   -9000010    2    1    2    0  502  0.18643956599E+03 -0.10677213880E+03  0.37212419846E+03  0.10716318014E+04  0.98171192178E+03 0.  0.
         13    1    3    3    0    0 -0.29605840780E+03 -0.33478319416E+03  0.28724726360E+03  0.53126393585E+03  0.10566000000E+00 0. -1.
         -4    1    3    3    0  502  0.48249797380E+03  0.22801105536E+03  0.84876934852E+02  0.54036786558E+03  0.00000000000E+00 0. -1.
        -13    1    1    2    0    0 -0.18643956599E+03  0.10677213880E+03 -0.20420673580E+02  0.21581709030E+03  0.10566000000E+00 0.  1.
<mgrwt>
<rscale>  1 0.68334588E+03</rscale>
<asrwt>0</asrwt>
<pdfrwt beam="1">  1       21 0.12608865E+00 0.10049469E+04</pdfrwt>
<pdfrwt beam="2">  1       -4 0.71980413E-01 0.10049469E+04</pdfrwt>
<totfact> 0.30222230E+01</totfact>
</mgrwt>
</event>
<event>
 6    2  0.2345636E-005  0.1055593E+04  0.7818608E-02  0.9675652E-01
         -4   -1    0    0    0  501 -0.00000000000E+00  0.00000000000E+00  0.11176158169E+04  0.11176158169E+04  0.00000000000E+00 0. -1.
         21   -1    0    0  501  502  0.00000000000E+00 -0.00000000000E+00 -0.38960413891E+03  0.38960413891E+03  0.00000000000E+00 0.  1.
   -9000010    2    1    2    0  502 -0.12688705806E+02  0.23435351759E+03  0.70933130840E+03  0.12717809152E+04  0.10291711309E+04 0.  0.
         13    1    3    3    0    0 -0.19443510065E+03  0.59582490913E+03  0.56008832329E+03  0.84054224864E+03  0.10566000000E+00 0. -1.
         -4    1    3    3    0  502  0.18174639484E+03 -0.36147139154E+03  0.14924298511E+03  0.43123866657E+03  0.00000000000E+00 0. -1.
        -13    1    1    2    0    0  0.12688705806E+02 -0.23435351759E+03  0.18680369601E+02  0.23543904060E+03  0.10566000000E+00 0.  1.
<mgrwt>
<rscale>  1 0.72485160E+03</rscale>
<asrwt>0</asrwt>
<pdfrwt beam="2">  1       21 0.59939098E-01 0.10555926E+04</pdfrwt>
<pdfrwt beam="1">  1       -4 0.17194089E+00 0.10555926E+04</pdfrwt>
<totfact> 0.20592281E+01</totfact>
</mgrwt>
</event>
<event>
 6    2  0.2345636E-005  0.1030357E+04  0.7818608E-02  0.9694078E-01
         21   -1    0    0  501  502  0.00000000000E+00  0.00000000000E+00  0.12817188004E+04  0.12817188004E+04  0.00000000000E+00 0. -1.
         -4   -1    0    0    0  501 -0.00000000000E+00 -0.00000000000E+00 -0.34094419181E+03  0.34094419181E+03  0.00000000000E+00 0. -1.
   -9000010    2    1    2    0  502 -0.85966866301E+02  0.22107159176E+03  0.92547933138E+03  0.13849722110E+04  0.10026829418E+04 0.  0.
         13    1    3    3    0    0 -0.39058007593E+03 -0.22583435205E+03  0.23752397934E+03  0.50987410427E+03  0.10566000000E+00 0. -1.
         -4    1    3    3    0  502  0.30461320963E+03  0.44690594381E+03  0.68795535204E+03  0.87509810678E+03  0.00000000000E+00 0. -1.
        -13    1    1    2    0    0  0.85966866301E+02 -0.22107159176E+03  0.15295277222E+02  0.23769078117E+03  0.10566000000E+00 0.  1.
<mgrwt>
<rscale>  1 0.71370492E+03</rscale>
<asrwt>0</asrwt>
<pdfrwt beam="1">  1       21 0.19718750E+00 0.10303572E+04</pdfrwt>
<pdfrwt beam="2">  1       -4 0.52452953E-01 0.10303572E+04</pdfrwt>
<totfact> 0.16780122E+01</totfact>
</mgrwt>
</event>
<event>
 6    2  0.2345636E-005  0.1064571E+04  0.7818608E-02  0.9531513E-01
         21   -1    0    0  501  502  0.00000000000E+00  0.00000000000E+00  0.10129378795E+04  0.10129378795E+04  0.00000000000E+00 0. -1.
         -4   -1    0    0    0  501 -0.00000000000E+00 -0.00000000000E+00 -0.61158142435E+03  0.61158142435E+03  0.00000000000E+00 0. -1.
   -9000010    2    1    2    0  502 -0.24142012565E+03 -0.28661061924E+03  0.57675059918E+03  0.12107652210E+04  0.99643456508E+03 0.  0.
         13    1    3    3    0    0 -0.81380003563E+02 -0.53303932106E+02 -0.28637787367E+03  0.30245051141E+03  0.10566000000E+00 0. -1.
         -4    1    3    3    0  502 -0.16004012209E+03 -0.23330668713E+03  0.86312847285E+03  0.90831470955E+03  0.00000000000E+00 0. -1.
        -13    1    1    2    0    0  0.24142012565E+03  0.28661061924E+03 -0.17539414407E+03  0.41375408284E+03  0.10566000000E+00 0.  1.
<mgrwt>
<rscale>  1 0.81999871E+03</rscale>
<asrwt>0</asrwt>
<pdfrwt beam="1">  1       21 0.15583660E+00 0.10645709E+04</pdfrwt>
<pdfrwt beam="2">  1       -4 0.94089450E-01 0.10645709E+04</pdfrwt>
<totfact> 0.90718947E+00</totfact>
</mgrwt>
</event>
<event>
 6    2  0.2345636E-005  0.8656803E+03  0.7818608E-02  0.9775042E-01
         -4   -1    0    0    0  501 -0.00000000000E+00  0.00000000000E+00  0.87622836108E+03  0.87622836108E+03  0.00000000000E+00 0. -1.
         21   -1    0    0  501  502  0.00000000000E+00 -0.00000000000E+00 -0.57428418855E+03  0.57428418855E+03  0.00000000000E+00 0. -1.
   -9000010    2    1    2    0  502 -0.23521003725E+03  0.19486673578E+03 -0.17591559630E+03  0.88337343427E+03  0.81000340803E+03 0.  0.
         13    1    3    3    0    0 -0.14215308589E+03  0.18716979748E+02 -0.49049297425E+03  0.51101975903E+03  0.10566000000E+00 0. -1.
         -4    1    3    3    0  502 -0.93056951360E+02  0.17614975603E+03  0.31457737796E+03  0.37235367524E+03  0.00000000000E+00 0. -1.
        -13    1    1    2    0    0  0.23521003725E+03 -0.19486673578E+03  0.47785976883E+03  0.56713911536E+03  0.10566000000E+00 0.  1.
<mgrwt>
<rscale>  1 0.66719302E+03</rscale>
<asrwt>0</asrwt>
<pdfrwt beam="2">  1       21 0.88351413E-01 0.86568027E+03</pdfrwt>
<pdfrwt beam="1">  1       -4 0.13480436E+00 0.86568027E+03</pdfrwt>
<totfact> 0.16556153E+01</totfact>
</mgrwt>
</event>
<event>
 6    2  0.2345636E-005  0.9999025E+03  0.7818608E-02  0.9645263E-01
         -4   -1    0    0    0  501 -0.00000000000E+00  0.00000000000E+00  0.12481195065E+04  0.12481195065E+04  0.00000000000E+00 0. -1.
         21   -1    0    0  501  502  0.00000000000E+00 -0.00000000000E+00 -0.39264680691E+03  0.39264680691E+03  0.00000000000E+00 0. -1.
   -9000010    2    1    2    0  502 -0.29762529708E+03 -0.71192541334E+02  0.36854512692E+03  0.10656596558E+04  0.95192215862E+03 0.  0.
         13    1    3    3    0    0  0.14248995023E+03 -0.36265651414E+03  0.37065346088E+03  0.53777981776E+03  0.10566000000E+00 0. -1.
         -4    1    3    3    0  502 -0.44011524731E+03  0.29146397280E+03 -0.21083339622E+01  0.52787983806E+03  0.00000000000E+00 0. -1.
        -13    1    1    2    0    0  0.29762529708E+03  0.71192541334E+02  0.48692757265E+03  0.57510665756E+03  0.10566000000E+00 0.  1.
<mgrwt>
<rscale>  1 0.74371450E+03</rscale>
<asrwt>0</asrwt>
<pdfrwt beam="2">  1       21 0.60407202E-01 0.99990249E+03</pdfrwt>
<pdfrwt beam="1">  1       -4 0.19201838E+00 0.99990249E+03</pdfrwt>
<totfact> 0.14763704E+01</totfact>
</mgrwt>
</event>
<event>
 6    2  0.2345636E-005  0.1055539E+04  0.7818608E-02  0.9557467E-01
         21   -1    0    0  501  502  0.00000000000E+00  0.00000000000E+00  0.22670456460E+04  0.22670456460E+04  0.00000000000E+00 0. -1.
         -4   -1    0    0    0  501 -0.00000000000E+00 -0.00000000000E+00 -0.25548067464E+03  0.25548067464E+03  0.00000000000E+00 0. -1.
   -9000010    2    1    2    0  502 -0.44874589433E+02  0.34849213782E+03  0.18625717690E+04  0.21408727022E+04  0.99534005930E+03 0.  0.
         13    1    3    3    0    0  0.30900488585E+03  0.30635596047E+03  0.16896068762E+04  0.17447376311E+04  0.10566000000E+00 0. -1.
         -4    1    3    3    0  502 -0.35387947529E+03  0.42136177352E+02  0.17296489279E+03  0.39613507117E+03  0.00000000000E+00 0. -1.
        -13    1    1    2    0    0  0.44874589433E+02 -0.34849213782E+03  0.14899320232E+03  0.38165361835E+03  0.10566000000E+00 0.  1.
<mgrwt>
<rscale>  1 0.80176425E+03</rscale>
<asrwt>0</asrwt>
<pdfrwt beam="1">  1       21 0.34877624E+00 0.10555389E+04</pdfrwt>
<pdfrwt beam="2">  1       -4 0.39304721E-01 0.10555389E+04</pdfrwt>
<totfact> 0.32837638E+00</totfact>
</mgrwt>
</event>
<event>
 6    2  0.2345636E-005  0.1029708E+04  0.7818608E-02  0.9822447E-01
         -4   -1    0    0    0  501 -0.00000000000E+00  0.00000000000E+00  0.81898820422E+03  0.81898820422E+03  0.00000000000E+00 0. -1.
         21   -1    0    0  501  502  0.00000000000E+00 -0.00000000000E+00 -0.59845836203E+03  0.59845836203E+03  0.00000000000E+00 0. -1.
   -9000010    2    1    2    0  502  0.13973087585E+03  0.67824206574E+02 -0.12630129201E+03  0.10374246097E+04  0.10179258145E+04 0.  0.
         13    1    3    3    0    0  0.43393245330E+03 -0.31601582275E+03  0.30057430870E+01  0.53681693333E+03  0.10566000000E+00 0. -1.
         -4    1    3    3    0  502 -0.29420157746E+03  0.38384002932E+03 -0.12930703509E+03  0.50060767634E+03  0.00000000000E+00 0. -1.
        -13    1    1    2    0    0 -0.13973087585E+03 -0.67824206574E+02  0.34683113420E+03  0.38002195657E+03  0.10566000000E+00 0.  1.
<mgrwt>
<rscale>  1 0.64171698E+03</rscale>
<asrwt>0</asrwt>
<pdfrwt beam="2">  1       21 0.92070518E-01 0.10297076E+04</pdfrwt>
<pdfrwt beam="1">  1       -4 0.12599818E+00 0.10297076E+04</pdfrwt>
<totfact> 0.17513584E+01</totfact>
</mgrwt>
</event>
<event>
 6    2  0.2345636E-005  0.9760333E+03  0.7818608E-02  0.9970027E-01
         21   -1    0    0  501  502  0.00000000000E+00  0.00000000000E+00  0.30590303620E+04  0.30590303620E+04  0.00000000000E+00 0. -1.
         -4   -1    0    0    0  501 -0.00000000000E+00 -0.00000000000E+00 -0.12263907542E+03  0.12263907542E+03  0.00000000000E+00 0. -1.
   -9000010    2    1    2    0  502  0.54429136729E+02  0.99487409188E+02  0.29041430073E+04  0.30637701661E+04  0.96942289428E+03 0.  0.
         13    1    3    3    0    0  0.40487807025E+03 -0.22982943881E+03  0.10557631834E+04  0.11538560280E+04  0.10566000000E+00 0. -1.
         -4    1    3    3    0  502 -0.35044893352E+03  0.32931684800E+03  0.18483798239E+04  0.19099141381E+04  0.00000000000E+00 0. -1.
        -13    1    1    2    0    0 -0.54429136729E+02 -0.99487409188E+02  0.32248279294E+02  0.11789927139E+03  0.10566000000E+00 0.  1.
<mgrwt>
<rscale>  1 0.56984247E+03</rscale>
<asrwt>0</asrwt>
<pdfrwt beam="1">  1       21 0.47062000E+00 0.97603331E+03</pdfrwt>
<pdfrwt beam="2">  1       -4 0.18867552E-01 0.97603331E+03</pdfrwt>
<totfact> 0.21514212E+00</totfact>
</mgrwt>
</event>
<event>
 6    2  0.2345636E-005  0.8322387E+03  0.7818608E-02  0.9801974E-01
         -4   -1    0    0    0  501 -0.00000000000E+00  0.00000000000E+00  0.39959869074E+03  0.39959869074E+03  0.00000000000E+00 0. -1.
         21   -1    0    0  501  502  0.00000000000E+00 -0.00000000000E+00 -0.87403555245E+03  0.87403555245E+03  0.00000000000E+00 0. -1.
   -9000010    2    1    2    0  502  0.44211092875E+02 -0.31147685487E+03 -0.19947436344E+03  0.85581031081E+03  0.77048608980E+03 0.  0.
         13    1    3    3    0    0  0.35796073472E+03  0.17594807485E+02 -0.17917283548E+03  0.40068488990E+03  0.10566000000E+00 0. -1.
         -4    1    3    3    0  502 -0.31374964185E+03 -0.32907166235E+03 -0.20301527959E+02  0.45512542091E+03  0.00000000000E+00 0. -1.
        -13    1    1    2    0    0 -0.44211092875E+02  0.31147685487E+03 -0.27496249827E+03  0.41782393238E+03  0.10566000000E+00 0.  1.
<mgrwt>
<rscale>  1 0.65256727E+03</rscale>
<asrwt>0</asrwt>
<pdfrwt beam="2">  1       21 0.13446700E+00 0.83223871E+03</pdfrwt>
<pdfrwt beam="1">  1       -4 0.61476723E-01 0.83223871E+03</pdfrwt>
<totfact> 0.36808781E+01</totfact>
</mgrwt>
</event>
<event>
 6    2  0.2345636E-005  0.1009985E+04  0.7818608E-02  0.9968792E-01
         21   -1    0    0  501  502  0.00000000000E+00  0.00000000000E+00  0.91257933811E+03  0.91257933811E+03  0.00000000000E+00 0. -1.
         -4   -1    0    0    0  501 -0.00000000000E+00 -0.00000000000E+00 -0.34338486377E+03  0.34338486377E+03  0.00000000000E+00 0. -1.
   -9000010    2    1    2    0  502  0.83829922048E+02  0.59412479066E+02  0.55444390761E+03  0.11521620397E+04  0.10047447539E+04 0.  0.
         13    1    3    3    0    0 -0.35277240413E+03  0.14514417903E+03 -0.67559343592E+02  0.38740092655E+03  0.10566000000E+00 0. -1.
         -4    1    3    3    0  502  0.43660232618E+03 -0.85731699962E+02  0.62200325120E+03  0.76476111310E+03  0.00000000000E+00 0. -1.
        -13    1    1    2    0    0 -0.83829922048E+02 -0.59412479066E+02  0.14750566730E+02  0.10380216222E+03  0.10566000000E+00 0.  1.
<mgrwt>
<rscale>  1 0.57040101E+03</rscale>
<asrwt>0</asrwt>
<pdfrwt beam="1">  1       21 0.14039682E+00 0.10099848E+04</pdfrwt>
<pdfrwt beam="2">  1       -4 0.52828441E-01 0.10099848E+04</pdfrwt>
<totfact> 0.44598304E+01</totfact>
</mgrwt>
</event>
<event>
 6    2  0.2345636E-005  0.1038418E+04  0.7818608E-02  0.9598464E-01
         -4   -1    0    0    0  501 -0.00000000000E+00  0.00000000000E+00  0.44535154300E+03  0.44535154300E+03  0.00000000000E+00 0. -1.
         21   -1    0    0  501  502  0.00000000000E+00 -0.00000000000E+00 -0.14080629427E+04  0.14080629427E+04  0.00000000000E+00 0. -1.
   -9000010    2    1    2    0  502 -0.24639451638E+03 -0.20493066646E+03 -0.10928449693E+04  0.15075220272E+04  0.98772754338E+03 0.  0.
         13    1    3    3    0    0 -0.15294798551E+03 -0.47950688077E+03 -0.15618835661E+03  0.52698647884E+03  0.10566000000E+00 0. -1.
         -4    1    3    3    0  502 -0.93446530872E+02  0.27457621431E+03 -0.93665661269E+03  0.98053554840E+03  0.00000000000E+00 0. -1.
        -13    1    1    2    0    0  0.24639451638E+03  0.20493066646E+03  0.13013356956E+03  0.34589245850E+03  0.10566000000E+00 0.  1.
<mgrwt>
<rscale>  1 0.77397899E+03</rscale>
<asrwt>0</asrwt>
<pdfrwt beam="2">  1       21 0.21662507E+00 0.10384183E+04</pdfrwt>
<pdfrwt beam="1">  1       -4 0.68515621E-01 0.10384183E+04</pdfrwt>
<totfact> 0.69119512E+00</totfact>
</mgrwt>
</event>
<event>
 6    2  0.2345636E-005  0.9866620E+03  0.7818608E-02  0.9820504E-01
         -4   -1    0    0    0  501 -0.00000000000E+00  0.00000000000E+00  0.32120334879E+03  0.32120334879E+03  0.00000000000E+00 0. -1.
         21   -1    0    0  501  502  0.00000000000E+00 -0.00000000000E+00 -0.12942588991E+04  0.12942588991E+04  0.00000000000E+00 0. -1.
   -9000010    2    1    2    0  502 -0.17550182623E+03  0.27707274817E+02 -0.10324762810E+04  0.14281138599E+04  0.97053250427E+03 0.  0.
         13    1    3    3    0    0 -0.27573844543E+03 -0.83152852249E+02 -0.11820722822E+04  0.12166515436E+04  0.10566000000E+00 0. -1.
         -4    1    3    3    0  502  0.10023661920E+03  0.11086012707E+03  0.14959600122E+03  0.21146231622E+03  0.00000000000E+00 0. -1.
        -13    1    1    2    0    0  0.17550182623E+03 -0.27707274817E+02  0.59420730691E+02  0.18734838801E+03  0.10566000000E+00 0.  1.
<mgrwt>
<rscale>  1 0.64273687E+03</rscale>
<asrwt>0</asrwt>
<pdfrwt beam="2">  1       21 0.19911675E+00 0.98666201E+03</pdfrwt>
<pdfrwt beam="1">  1       -4 0.49415901E-01 0.98666201E+03</pdfrwt>
<totfact> 0.18564878E+01</totfact>
</mgrwt>
</event>
<event>
 6    2  0.2345636E-005  0.1011555E+04  0.7818608E-02  0.9835015E-01
         21   -1    0    0  501  502  0.00000000000E+00  0.00000000000E+00  0.84747531349E+03  0.84747531349E+03  0.00000000000E+00 0. -1.
         -4   -1    0    0    0  501 -0.00000000000E+00 -0.00000000000E+00 -0.40305062866E+03  0.40305062866E+03  0.00000000000E+00 0. -1.
   -9000010    2    1    2    0  502 -0.45933925892E+01  0.15718106706E+03  0.38977672819E+03  0.10840525286E+04  0.99925822476E+03 0.  0.
         13    1    3    3    0    0  0.74687764969E+02 -0.35562243685E+03  0.43073721723E+03  0.56354249290E+03  0.10566000000E+00 0. -1.
         -4    1    3    3    0  502 -0.79281157558E+02  0.51280350391E+03 -0.40960489043E+02  0.52051003567E+03  0.00000000000E+00 0. -1.
        -13    1    1    2    0    0  0.45933925892E+01 -0.15718106706E+03  0.54647956640E+02  0.16647341358E+03  0.10566000000E+00 0.  1.
<mgrwt>
<rscale>  1 0.63516802E+03</rscale>
<asrwt>0</asrwt>
<pdfrwt beam="1">  1       21 0.13038082E+00 0.10115552E+04</pdfrwt>
<pdfrwt beam="2">  1       -4 0.62007789E-01 0.10115552E+04</pdfrwt>
<totfact> 0.38495270E+01</totfact>
</mgrwt>
</event>
<event>
 6    2  0.2345636E-005  0.1018426E+04  0.7818608E-02  0.9779582E-01
         21   -1    0    0  501  502  0.00000000000E+00  0.00000000000E+00  0.58277697402E+03  0.58277697402E+03  0.00000000000E+00 0. -1.
         -4   -1    0    0    0  501 -0.00000000000E+00 -0.00000000000E+00 -0.62107195873E+03  0.62107195873E+03  0.00000000000E+00 0. -1.
   -9000010    2    1    2    0  502 -0.13859690325E+03  0.12224298726E+03 -0.30665655436E+02  0.10188876737E+04  0.10015184769E+04 0.  0.
         13    1    3    3    0    0  0.97564117145E+02 -0.27998412852E+03  0.31932309692E+03  0.43574891918E+03  0.10566000000E+00 0. -1.
         -4    1    3    3    0  502 -0.23616102039E+03  0.40222711578E+03 -0.34998875236E+03  0.58313875450E+03  0.00000000000E+00 0. -1.
        -13    1    1    2    0    0  0.13859690325E+03 -0.12224298726E+03 -0.76293292723E+01  0.18496125906E+03  0.10566000000E+00 0.  1.
<mgrwt>
<rscale>  1 0.66469879E+03</rscale>
<asrwt>0</asrwt>
<pdfrwt beam="1">  1       21 0.89657996E-01 0.10184261E+04</pdfrwt>
<pdfrwt beam="2">  1       -4 0.95549532E-01 0.10184261E+04</pdfrwt>
<totfact> 0.36968218E+01</totfact>
</mgrwt>
</event>
<event>
 6    2  0.2345636E-005  0.9906076E+03  0.7818608E-02  0.1041185E+00
         21   -1    0    0  501  502  0.00000000000E+00  0.00000000000E+00  0.10096368233E+04  0.10096368233E+04  0.00000000000E+00 0. -1.
         -4   -1    0    0    0  501 -0.00000000000E+00 -0.00000000000E+00 -0.25760264757E+03  0.25760264757E+03  0.00000000000E+00 0. -1.
   -9000010    2    1    2    0  502 -0.28264999634E+02 -0.26570357549E+01  0.73958516469E+03  0.12362401308E+04  0.99020072472E+03 0.  0.
         13    1    3    3    0    0  0.40196849433E+02 -0.49219539101E+03  0.32598499989E+03  0.59172486930E+03  0.10566000000E+00 0. -1.
         -4    1    3    3    0  502 -0.68461849067E+02  0.48953835525E+03  0.41360016480E+03  0.64451526155E+03  0.00000000000E+00 0. -1.
        -13    1    1    2    0    0  0.28264999634E+02  0.26570357549E+01  0.12449011078E+02  0.30999340060E+02  0.10566000000E+00 0.  1.
<mgrwt>
<rscale>  1 0.40758375E+03</rscale>
<asrwt>0</asrwt>
<pdfrwt beam="1">  1       21 0.15532874E+00 0.99060761E+03</pdfrwt>
<pdfrwt beam="2">  1       -4 0.39631177E-01 0.99060761E+03</pdfrwt>
<totfact> 0.61420495E+01</totfact>
</mgrwt>
</event>
<event>
 6    2  0.2345636E-005  0.1154812E+04  0.7818608E-02  0.9346297E-01
         -4   -1    0    0    0  501 -0.00000000000E+00  0.00000000000E+00  0.13206133744E+04  0.13206133744E+04  0.00000000000E+00 0. -1.
         21   -1    0    0  501  502  0.00000000000E+00 -0.00000000000E+00 -0.77749040395E+03  0.77749040395E+03  0.00000000000E+00 0. -1.
   -9000010    2    1    2    0  502  0.21710977873E+03 -0.52284532873E+03  0.86866308494E+03  0.14450492087E+04  0.10065226110E+04 0.  0.
         13    1    3    3    0    0 -0.17645295586E+03 -0.47466068015E+03  0.18229063675E+02  0.50672548470E+03  0.10566000000E+00 0. -1.
         -4    1    3    3    0  502  0.39356273459E+03 -0.48184648578E+02  0.85043402126E+03  0.93832372395E+03  0.00000000000E+00 0. -1.
        -13    1    1    2    0    0 -0.21710977873E+03  0.52284532873E+03 -0.32554011444E+03  0.65305456975E+03  0.10566000000E+00 0.  1.
<mgrwt>
<rscale>  1 0.96630182E+03</rscale>
<asrwt>0</asrwt>
<pdfrwt beam="2">  1       21 0.11961391E+00 0.11548124E+04</pdfrwt>
<pdfrwt beam="1">  1       -4 0.20317129E+00 0.11548124E+04</pdfrwt>
<totfact> 0.23747417E+00</totfact>
</mgrwt>
</event>
<event>
 6    2  0.3155882E-005  0.8432052E+03  0.7818608E-02  0.1007772E+00
         21   -1    0    0  501  502  0.00000000000E+00  0.00000000000E+00  0.38388184049E+03  0.38388184049E+03  0.00000000000E+00 0. -1.
         -4   -1    0    0    0  501 -0.00000000000E+00 -0.00000000000E+00 -0.68033649788E+03  0.68033649788E+03  0.00000000000E+00 0. -1.
   -9000010    2    1    2    0  502  0.10352824289E+03 -0.70879332849E+02 -0.12600222470E+03  0.85256763585E+03  0.83381834722E+03 0.  0.
         13    1    3    3    0    0 -0.57056376106E+02  0.61950813145E+02  0.33565037130E+03  0.34605565481E+03  0.10566000000E+00 0. -1.
         -4    1    3    3    0  502  0.16058461899E+03 -0.13283014599E+03 -0.46165259600E+03  0.50651198104E+03  0.00000000000E+00 0. -1.
        -13    1    1    2    0    0 -0.10352824289E+03  0.70879332849E+02 -0.17045243269E+03  0.21165070251E+03  0.10566000000E+00 0.  1.
<mgrwt>
<rscale>  1 0.52369980E+03</rscale>
<asrwt>0</asrwt>
<pdfrwt beam="1">  1       21 0.59058745E-01 0.84320520E+03</pdfrwt>
<pdfrwt beam="2">  1       -4 0.10466715E+00 0.84320520E+03</pdfrwt>
<totfact> 0.78948296E+01</totfact>
</mgrwt>
</event>
<event>
 6    2  0.2345636E-005  0.1154665E+04  0.7818608E-02  0.9340724E-01
         -4   -1    0    0    0  501 -0.00000000000E+00  0.00000000000E+00  0.34439761858E+04  0.34439761858E+04  0.00000000000E+00 0. -1.
         21   -1    0    0  501  502  0.00000000000E+00 -0.00000000000E+00 -0.23966063948E+03  0.23966063948E+03  0.00000000000E+00 0. -1.
   -9000010    2    1    2    0  502  0.54717464574E+03 -0.18588411829E+03  0.15607751707E+04  0.19414606069E+04  0.99964851641E+03 0.  0.
         13    1    3    3    0    0 -0.24539086592E+03 -0.24294157252E+03  0.33816765514E+03  0.48331631349E+03  0.10566000000E+00 0. -1.
         -4    1    3    3    0  502  0.79256551166E+03  0.57057454228E+02  0.12226075155E+04  0.14581442934E+04  0.00000000000E+00 0. -1.
        -13    1    1    2    0    0 -0.54717464574E+03  0.18588411829E+03  0.16435403757E+04  0.17421762184E+04  0.10566000000E+00 0.  1.
<mgrwt>
<rscale>  1 0.97118627E+03</rscale>
<asrwt>0</asrwt>
<pdfrwt beam="2">  1       21 0.36870870E-01 0.11546645E+04</pdfrwt>
<pdfrwt beam="1">  1       -4 0.52984245E+00 0.11546645E+04</pdfrwt>
<totfact> 0.19836745E-01</totfact>
</mgrwt>
</event>
<event>
 6    2  0.2345636E-005  0.9994202E+03  0.7818608E-02  0.1006849E+00
         -4   -1    0    0    0  501 -0.00000000000E+00  0.00000000000E+00  0.45829725584E+03  0.45829725584E+03  0.00000000000E+00 0. -1.
         21   -1    0    0  501  502  0.00000000000E+00 -0.00000000000E+00 -0.63956013185E+03  0.63956013185E+03  0.00000000000E+00 0. -1.
   -9000010    2    1    2    0  502  0.12621455480E+01 -0.77530110254E+02 -0.19721619133E+03  0.10186928095E+04  0.99640769918E+03 0.  0.
         13    1    3    3    0    0  0.25849261134E+03  0.21758831059E+03 -0.44247192456E+03  0.55672660994E+03  0.10566000000E+00 0. -1.
         -4    1    3    3    0  502 -0.25723046579E+03 -0.29511842084E+03  0.24525573323E+03  0.46196619956E+03  0.00000000000E+00 0. -1.
        -13    1    1    2    0    0 -0.12621455480E+01  0.77530110254E+02  0.15953315325E+02  0.79164578198E+02  0.10566000000E+00 0.  1.
<mgrwt>
<rscale>  1 0.52746445E+03</rscale>
<asrwt>0</asrwt>
<pdfrwt beam="2">  1       21 0.98393866E-01 0.99942024E+03</pdfrwt>
<pdfrwt beam="1">  1       -4 0.70507270E-01 0.99942024E+03</pdfrwt>
<totfact> 0.59570848E+01</totfact>
</mgrwt>
</event>
<event>
 6    2  0.2345636E-005  0.1006011E+04  0.7818608E-02  0.9885781E-01
         -4   -1    0    0    0  501 -0.00000000000E+00  0.00000000000E+00  0.90449485478E+03  0.90449485478E+03  0.00000000000E+00 0. -1.
         21   -1    0    0  501  502  0.00000000000E+00 -0.00000000000E+00 -0.46536865667E+03  0.46536865667E+03  0.00000000000E+00 0. -1.
   -9000010    2    1    2    0  502  0.10607261885E+03  0.84464668897E+02  0.10768435995E+03  0.10117582420E+04  0.99683154952E+03 0.  0.
         13    1    3    3    0    0  0.15375146173E+03  0.38785171784E+03 -0.29087421725E+03  0.50860228906E+03  0.10566000000E+00 0. -1.
         -4    1    3    3    0  502 -0.47678842882E+02 -0.30338704894E+03  0.39855857719E+03  0.50315595294E+03  0.00000000000E+00 0. -1.
        -13    1    1    2    0    0 -0.10607261885E+03 -0.84464668897E+02  0.33144183817E+03  0.35810526946E+03  0.10566000000E+00 0.  1.
<mgrwt>
<rscale>  1 0.60955396E+03</rscale>
<asrwt>0</asrwt>
<pdfrwt beam="2">  1       21 0.71595178E-01 0.10060113E+04</pdfrwt>
<pdfrwt beam="1">  1       -4 0.13915305E+00 0.10060113E+04</pdfrwt>
<totfact> 0.24605253E+01</totfact>
</mgrwt>
</event>
<event>
 6    2  0.2345636E-005  0.1022638E+04  0.7818608E-02  0.1010431E+00
         -4   -1    0    0    0  501 -0.00000000000E+00  0.00000000000E+00  0.29796815448E+03  0.29796815448E+03  0.00000000000E+00 0. -1.
         21   -1    0    0  501  502  0.00000000000E+00 -0.00000000000E+00 -0.11315850167E+04  0.11315850167E+04  0.00000000000E+00 0. -1.
   -9000010    2    1    2    0  502  0.64694454201E+02 -0.32725487868E+01 -0.88059702140E+03  0.13495329955E+04  0.10205842003E+04 0.  0.
         13    1    3    3    0    0  0.22739772472E+03  0.43376379989E+03 -0.68908828535E+03  0.84540134579E+03  0.10566000000E+00 0. -1.
         -4    1    3    3    0  502 -0.16270327051E+03 -0.43703634868E+03 -0.19150873605E+03  0.50413164976E+03  0.00000000000E+00 0. -1.
        -13    1    1    2    0    0 -0.64694454201E+02  0.32725487868E+01  0.46980159204E+02  0.80020175598E+02  0.10566000000E+00 0.  1.
<mgrwt>
<rscale>  1 0.51303505E+03</rscale>
<asrwt>0</asrwt>
<pdfrwt beam="2">  1       21 0.17409000E+00 0.10226379E+04</pdfrwt>
<pdfrwt beam="1">  1       -4 0.45841254E-01 0.10226379E+04</pdfrwt>
<totfact> 0.32623201E+01</totfact>
</mgrwt>
</event>
<event>
 6    2  0.2345636E-005  0.1071625E+04  0.7818608E-02  0.9507864E-01
         -4   -1    0    0    0  501 -0.00000000000E+00  0.00000000000E+00  0.63267636350E+03  0.63267636350E+03  0.00000000000E+00 0. -1.
         21   -1    0    0  501  502  0.00000000000E+00 -0.00000000000E+00 -0.85488046899E+03  0.85488046899E+03  0.00000000000E+00 0. -1.
   -9000010    2    1    2    0  502  0.47918519526E+02  0.39605214130E+03 -0.14851100122E+03  0.10818670891E+04  0.99459911409E+03 0.  0.
         13    1    3    3    0    0  0.47131899020E+02 -0.14209108356E+03 -0.44356343839E+03  0.46814509180E+03  0.10566000000E+00 0. -1.
         -4    1    3    3    0  502  0.78662050633E+00  0.53814322486E+03  0.29505243717E+03  0.61372199726E+03  0.00000000000E+00 0. -1.
        -13    1    1    2    0    0 -0.47918519526E+02 -0.39605214130E+03 -0.73693104267E+02  0.40568974343E+03  0.10566000000E+00 0.  1.
<mgrwt>
<rscale>  1 0.83706524E+03</rscale>
<asrwt>0</asrwt>
<pdfrwt beam="2">  1       21 0.13152007E+00 0.10716253E+04</pdfrwt>
<pdfrwt beam="1">  1       -4 0.97334825E-01 0.10716253E+04</pdfrwt>
<totfact> 0.13325972E+01</totfact>
</mgrwt>
</event>
<event>
 6    2  0.2345636E-005  0.1071747E+04  0.7818608E-02  0.9549581E-01
         -4   -1    0    0    0  501 -0.00000000000E+00  0.00000000000E+00  0.35277689128E+03  0.35277689128E+03  0.00000000000E+00 0. -1.
         21   -1    0    0  501  502  0.00000000000E+00 -0.00000000000E+00 -0.15736308567E+04  0.15736308567E+04  0.00000000000E+00 0. -1.
   -9000010    2    1    2    0  502 -0.33217031824E+03  0.93026420805E+02 -0.11542270878E+04  0.15750814220E+04  0.10147168475E+04 0.  0.
         13    1    3    3    0    0 -0.14766369684E+03  0.35358071650E+03 -0.11934131783E+04  0.12534188908E+04  0.10566000000E+00 0. -1.
         -4    1    3    3    0  502 -0.18450662140E+03 -0.26055429570E+03  0.39186090491E+02  0.32166253129E+03  0.00000000000E+00 0. -1.
        -13    1    1    2    0    0  0.33217031824E+03 -0.93026420805E+02 -0.66626877593E+02  0.35132632590E+03  0.10566000000E+00 0.  1.
<mgrwt>
<rscale>  1 0.80725073E+03</rscale>
<asrwt>0</asrwt>
<pdfrwt beam="2">  1       21 0.24209705E+00 0.10717469E+04</pdfrwt>
<pdfrwt beam="1">  1       -4 0.54273368E-01 0.10717469E+04</pdfrwt>
<totfact> 0.78075744E+00</totfact>
</mgrwt>
</event>
<event>
 6    2  0.2345636E-005  0.1016822E+04  0.7818608E-02  0.9792937E-01
         -4   -1    0    0    0  501 -0.00000000000E+00  0.00000000000E+00  0.61754142103E+03  0.61754142103E+03  0.00000000000E+00 0. -1.
         21   -1    0    0  501  502  0.00000000000E+00 -0.00000000000E+00 -0.57810227734E+03  0.57810227734E+03  0.00000000000E+00 0. -1.
   -9000010    2    1    2    0  502  0.14858067874E+03  0.97454140621E+02  0.21481354704E+02  0.10170491269E+04  0.10011762833E+04 0.  0.
         13    1    3    3    0    0  0.32322801852E+03 -0.28991743293E+03 -0.26118163758E+03  0.50669944627E+03  0.10566000000E+00 0. -1.
         -4    1    3    3    0  502 -0.17464733978E+03  0.38737157355E+03  0.28266299229E+03  0.51034968061E+03  0.00000000000E+00 0. -1.
        -13    1    1    2    0    0 -0.14858067874E+03 -0.97454140621E+02  0.17957788989E+02  0.17859457150E+03  0.10566000000E+00 0.  1.
<mgrwt>
<rscale>  1 0.65742950E+03</rscale>
<asrwt>0</asrwt>
<pdfrwt beam="2">  1       21 0.88938812E-01 0.10168222E+04</pdfrwt>
<pdfrwt beam="1">  1       -4 0.95006372E-01 0.10168222E+04</pdfrwt>
<totfact> 0.38213707E+01</totfact>
</mgrwt>
</event>
<event>
 6    2  0.2345636E-005  0.9161735E+03  0.7818608E-02  0.1028410E+00
         -4   -1    0    0    0  501 -0.00000000000E+00  0.00000000000E+00  0.52638859221E+03  0.52638859221E+03  0.00000000000E+00 0. -1.
         21   -1    0    0  501  502  0.00000000000E+00 -0.00000000000E+00 -0.54198706240E+03  0.54198706240E+03  0.00000000000E+00 0. -1.
   -9000010    2    1    2    0  502  0.18106011415E+02 -0.49004262275E+02 -0.14615178264E+03  0.92775764749E+03  0.91468282127E+03 0.  0.
         13    1    3    3    0    0  0.30283260259E+03 -0.22148107440E+03  0.21836966314E+03  0.43410456396E+03  0.10566000000E+00 0. -1.
         -4    1    3    3    0  502 -0.28472659117E+03  0.17247681212E+03 -0.36452144578E+03  0.49365308353E+03  0.00000000000E+00 0. -1.
        -13    1    1    2    0    0 -0.18106011415E+02  0.49004262275E+02  0.13055331245E+03  0.14061800712E+03  0.10566000000E+00 0.  1.
<mgrwt>
<rscale>  1 0.44770180E+03</rscale>
<asrwt>0</asrwt>
<pdfrwt beam="2">  1       21 0.83382625E-01 0.91617351E+03</pdfrwt>
<pdfrwt beam="1">  1       -4 0.80982860E-01 0.91617351E+03</pdfrwt>
<totfact> 0.65323483E+01</totfact>
</mgrwt>
</event>
<event>
 6    2  0.2345636E-005  0.9227174E+03  0.7818608E-02  0.9817115E-01
         -4   -1    0    0    0  501 -0.00000000000E+00  0.00000000000E+00  0.49879148501E+03  0.49879148501E+03  0.00000000000E+00 0. -1.
         21   -1    0    0  501  502  0.00000000000E+00 -0.00000000000E+00 -0.66954696792E+03  0.66954696792E+03  0.00000000000E+00 0. -1.
   -9000010    2    1    2    0  502 -0.26807720543E+02 -0.21801368252E+03 -0.20716015747E+03  0.94568641243E+03  0.89619129663E+03 0.  0.
         13    1    3    3    0    0  0.10048095935E+03 -0.54604026469E+03 -0.41431450326E+02  0.55675216218E+03  0.10566000000E+00 0. -1.
         -4    1    3    3    0  502 -0.12728867989E+03  0.32802658217E+03 -0.16572870714E+03  0.38893425024E+03  0.00000000000E+00 0. -1.
        -13    1    1    2    0    0  0.26807720543E+02  0.21801368252E+03  0.36404674554E+02  0.22265204050E+03  0.10566000000E+00 0.  1.
<mgrwt>
<rscale>  1 0.64452114E+03</rscale>
<asrwt>0</asrwt>
<pdfrwt beam="2">  1       21 0.10300722E+00 0.92271743E+03</pdfrwt>
<pdfrwt beam="1">  1       -4 0.76737152E-01 0.92271743E+03</pdfrwt>
<totfact> 0.44201300E+01</totfact>
</mgrwt>
</event>
<event>
 6    2  0.2345636E-005  0.1003797E+04  0.7818608E-02  0.1006354E+00
         -4   -1    0    0    0  501 -0.00000000000E+00  0.00000000000E+00  0.94515660469E+03  0.94515660469E+03  0.00000000000E+00 0. -1.
         21   -1    0    0  501  502  0.00000000000E+00 -0.00000000000E+00 -0.33097021519E+03  0.33097021519E+03  0.00000000000E+00 0. -1.
   -9000010    2    1    2    0  502  0.76537303869E+02  0.13490344686E+02  0.46150816435E+03  0.11048066521E+04  0.10007836952E+04 0.  0.
         13    1    3    3    0    0 -0.83850995804E+02 -0.41586807203E+03  0.48686707867E+03  0.64576838440E+03  0.10566000000E+00 0. -1.
         -4    1    3    3    0  502  0.16038829967E+03  0.42935841672E+03 -0.25358914328E+02  0.45903826770E+03  0.00000000000E+00 0. -1.
        -13    1    1    2    0    0 -0.76537303869E+02 -0.13490344686E+02  0.15267822515E+03  0.17132016777E+03  0.10566000000E+00 0.  1.
<mgrwt>
<rscale>  1 0.52949711E+03</rscale>
<asrwt>0</asrwt>
<pdfrwt beam="2">  1       21 0.50918495E-01 0.10037968E+04</pdfrwt>
<pdfrwt beam="1">  1       -4 0.14540871E+00 0.10037968E+04</pdfrwt>
<totfact> 0.46883853E+01</totfact>
</mgrwt>
</event>
<event>
 6    2  0.2345636E-005  0.1065804E+04  0.7818608E-02  0.9502341E-01
         -4   -1    0    0    0  501 -0.00000000000E+00  0.00000000000E+00  0.64917660139E+03  0.64917660139E+03  0.00000000000E+00 0. -1.
         21   -1    0    0  501  502  0.00000000000E+00 -0.00000000000E+00 -0.87881891696E+03  0.87881891696E+03  0.00000000000E+00 0. -1.
   -9000010    2    1    2    0  502  0.27030162143E+03 -0.31281211366E+03 -0.30318395936E+03  0.11080874695E+04  0.98235581219E+03 0.  0.
         13    1    3    3    0    0  0.48990335012E+03 -0.22618552992E+03 -0.54724774195E+03  0.76853450712E+03  0.10566000000E+00 0. -1.
         -4    1    3    3    0  502 -0.21960172869E+03 -0.86626583740E+02  0.24406378259E+03  0.33955296233E+03  0.00000000000E+00 0. -1.
        -13    1    1    2    0    0 -0.27030162143E+03  0.31281211366E+03  0.73541643790E+02  0.41990804891E+03  0.10566000000E+00 0.  1.
<mgrwt>
<rscale>  1 0.84111469E+03</rscale>
<asrwt>0</asrwt>
<pdfrwt beam="2">  1       21 0.13520291E+00 0.10658036E+04</pdfrwt>
<pdfrwt beam="1">  1       -4 0.99873323E-01 0.10658036E+04</pdfrwt>
<totfact> 0.11641349E+01</totfact>
</mgrwt>
</event>
<event>
 6    2  0.2345636E-005  0.1060840E+04  0.7818608E-02  0.9554862E-01
         -4   -1    0    0    0  501 -0.00000000000E+00  0.00000000000E+00  0.54578367835E+03  0.54578367835E+03  0.00000000000E+00 0. -1.
         21   -1    0    0  501  502  0.00000000000E+00 -0.00000000000E+00 -0.10348625479E+04  0.10348625479E+04  0.00000000000E+00 0. -1.
   -9000010    2    1    2    0  502  0.25100963843E+03  0.24285040348E+03 -0.59419072977E+03  0.12159125270E+04  0.10016978051E+04 0.  0.
         13    1    3    3    0    0  0.36308965363E+03  0.14223839832E+03 -0.84086771036E+03  0.92688962451E+03  0.10566000000E+00 0. -1.
         -4    1    3    3    0  502 -0.11208001521E+03  0.10061200515E+03  0.24667698058E+03  0.28902290245E+03  0.00000000000E+00 0. -1.
        -13    1    1    2    0    0 -0.25100963843E+03 -0.24285040348E+03  0.10511186025E+03  0.36473369927E+03  0.10566000000E+00 0.  1.
<mgrwt>
<rscale>  1 0.80357115E+03</rscale>
<asrwt>0</asrwt>
<pdfrwt beam="2">  1       21 0.15920962E+00 0.10608396E+04</pdfrwt>
<pdfrwt beam="1">  1       -4 0.83966720E-01 0.10608396E+04</pdfrwt>
<totfact> 0.11155574E+01</totfact>
</mgrwt>
</event>
<event>
 6    2  0.2345636E-005  0.9955685E+03  0.7818608E-02  0.9853428E-01
         21   -1    0    0  501  502  0.00000000000E+00  0.00000000000E+00  0.60146923897E+03  0.60146923897E+03  0.00000000000E+00 0. -1.
         -4   -1    0    0    0  501 -0.00000000000E+00 -0.00000000000E+00 -0.83968475108E+03  0.83968475108E+03  0.00000000000E+00 0. -1.
   -9000010    2    1    2    0  502  0.87417656820E+02  0.12842359815E+03  0.16490621920E+03  0.10091336101E+04  0.98337282584E+03 0.  0.
         13    1    3    3    0    0  0.29833268147E+03  0.42248218079E+03  0.32775224695E+03  0.61230313445E+03  0.10566000000E+00 0. -1.
         -4    1    3    3    0  502 -0.21091502465E+03 -0.29405858264E+03 -0.16284602775E+03  0.39683047564E+03  0.00000000000E+00 0. -1.
        -13    1    1    2    0    0 -0.87417656820E+02 -0.12842359815E+03 -0.40312173131E+03  0.43202037996E+03  0.10566000000E+00 0.  1.
<mgrwt>
<rscale>  1 0.62572440E+03</rscale>
<asrwt>0</asrwt>
<pdfrwt beam="1">  1       21 0.92533730E-01 0.99556847E+03</pdfrwt>
<pdfrwt beam="2">  1       -4 0.12918227E+00 0.99556847E+03</pdfrwt>
<totfact> 0.16287651E+01</totfact>
</mgrwt>
</event>
<event>
 6    2  0.2345636E-005  0.1098699E+04  0.7818608E-02  0.9459077E-01
         21   -1    0    0  501  502  0.00000000000E+00  0.00000000000E+00  0.76598961530E+03  0.76598961530E+03  0.00000000000E+00 0. -1.
         -4   -1    0    0    0  501 -0.00000000000E+00 -0.00000000000E+00 -0.78262224588E+03  0.78262224588E+03  0.00000000000E+00 0. -1.
   -9000010    2    1    2    0  502  0.25768317731E+03  0.35583460903E+03  0.69554915428E+02  0.11008985678E+04  0.10070356902E+04 0.  0.
         13    1    3    3    0    0  0.56341941454E+03  0.10392881213E+03  0.29571596196E+03  0.64474070447E+03  0.10566000000E+00 0. -1.
         -4    1    3    3    0  502 -0.30573623723E+03  0.25190579690E+03 -0.22616104653E+03  0.45615786329E+03  0.00000000000E+00 0. -1.
        -13    1    1    2    0    0 -0.25768317731E+03 -0.35583460903E+03 -0.86187546004E+02  0.44771329342E+03  0.10566000000E+00 0.  1.
<mgrwt>
<rscale>  1 0.87369342E+03</rscale>
<asrwt>0</asrwt>
<pdfrwt beam="1">  1       21 0.11784456E+00 0.10986991E+04</pdfrwt>
<pdfrwt beam="2">  1       -4 0.12040342E+00 0.10986991E+04</pdfrwt>
<totfact> 0.10518748E+01</totfact>
</mgrwt>
</event>
<event>
 6    2  0.2345636E-005  0.1004951E+04  0.7818608E-02  0.9965550E-01
         -4   -1    0    0    0  501 -0.00000000000E+00  0.00000000000E+00  0.47839158433E+03  0.47839158433E+03  0.00000000000E+00 0. -1.
         21   -1    0    0  501  502  0.00000000000E+00 -0.00000000000E+00 -0.99137681059E+03  0.99137681059E+03  0.00000000000E+00 0. -1.
   -9000010    2    1    2    0  502  0.90040967697E+02 -0.54747546788E+02 -0.72082809360E+03  0.12367376278E+04  0.99941090139E+03 0.  0.
         13    1    3    3    0    0  0.42138608373E+03 -0.33334367490E+03 -0.55690084533E+03  0.77383641673E+03  0.10566000000E+00 0. -1.
         -4    1    3    3    0  502 -0.33134511603E+03  0.27859612811E+03 -0.16392724826E+03  0.46290121110E+03  0.00000000000E+00 0. -1.
        -13    1    1    2    0    0 -0.90040967697E+02  0.54747546788E+02  0.20784286734E+03  0.23303076709E+03  0.10566000000E+00 0.  1.
<mgrwt>
<rscale>  1 0.57186955E+03</rscale>
<asrwt>0</asrwt>
<pdfrwt beam="2">  1       21 0.15251951E+00 0.10049512E+04</pdfrwt>
<pdfrwt beam="1">  1       -4 0.73598706E-01 0.10049512E+04</pdfrwt>
<totfact> 0.17146516E+01</totfact>
</mgrwt>
</event>
<event>
 6    2  0.2345636E-005  0.1015950E+04  0.7818608E-02  0.9814598E-01
         21   -1    0    0  501  502  0.00000000000E+00  0.00000000000E+00  0.27403477018E+03  0.27403477018E+03  0.00000000000E+00 0. -1.
         -4   -1    0    0    0  501 -0.00000000000E+00 -0.00000000000E+00 -0.13717754365E+04  0.13717754365E+04  0.00000000000E+00 0. -1.
   -9000010    2    1    2    0  502 -0.16508190903E+03 -0.16693478938E+02 -0.75749050353E+03  0.12672591621E+04  0.10023089404E+04 0.  0.
         13    1    3    3    0    0  0.15221424995E+03  0.29653661043E+03  0.57535262290E+02  0.33825058283E+03  0.10566000000E+00 0. -1.
         -4    1    3    3    0  502 -0.31729615897E+03 -0.31323008937E+03 -0.81502576582E+03  0.92900857926E+03  0.00000000000E+00 0. -1.
        -13    1    1    2    0    0  0.16508190903E+03  0.16693478938E+02 -0.34025016283E+03  0.37855104464E+03  0.10566000000E+00 0.  1.
<mgrwt>
<rscale>  1 0.64584956E+03</rscale>
<asrwt>0</asrwt>
<pdfrwt beam="1">  1       21 0.42159195E-01 0.10159498E+04</pdfrwt>
<pdfrwt beam="2">  1       -4 0.21104238E+00 0.10159498E+04</pdfrwt>
<totfact> 0.24065584E+01</totfact>
</mgrwt>
</event>
<event>
 6    2  0.2345636E-005  0.1023204E+04  0.7818608E-02  0.9721459E-01
         -4   -1    0    0    0  501 -0.00000000000E+00  0.00000000000E+00  0.75893859885E+03  0.75893859885E+03  0.00000000000E+00 0. -1.
         21   -1    0    0  501  502  0.00000000000E+00 -0.00000000000E+00 -0.68504857909E+03  0.68504857909E+03  0.00000000000E+00 0.  1.
   -9000010    2    1    2    0  502  0.21934905558E+03 -0.26884971349E+02  0.35802172519E+03  0.10840321154E+04  0.99905418353E+03 0.  0.
         13    1    3    3    0    0 -0.45699527926E+02  0.23649662753E+02 -0.33573285897E+03  0.33965323075E+03  0.10566000000E+00 0. -1.
         -4    1    3    3    0  502  0.26504858351E+03 -0.50534634102E+02  0.69375458416E+03  0.74437888464E+03  0.00000000000E+00 0. -1.
        -13    1    1    2    0    0 -0.21934905558E+03  0.26884971349E+02 -0.28413170543E+03  0.35995506256E+03  0.10566000000E+00 0.  1.
<mgrwt>
<rscale>  1 0.69753354E+03</rscale>
<asrwt>0</asrwt>
<pdfrwt beam="2">  1       21 0.10539209E+00 0.10232038E+04</pdfrwt>
<pdfrwt beam="1">  1       -4 0.11675978E+00 0.10232038E+04</pdfrwt>
<totfact> 0.15212202E+01</totfact>
</mgrwt>
</event>
<event>
 6    2  0.2345636E-005  0.1059198E+04  0.7818608E-02  0.9646180E-01
         21   -1    0    0  501  502  0.00000000000E+00  0.00000000000E+00  0.74941382635E+03  0.74941382635E+03  0.00000000000E+00 0. -1.
         -4   -1    0    0    0  501 -0.00000000000E+00 -0.00000000000E+00 -0.62141564494E+03  0.62141564494E+03  0.00000000000E+00 0. -1.
   -9000010    2    1    2    0  502 -0.22197969097E+03 -0.12881991653E+03  0.24748642558E+03  0.10877270062E+04  0.10276336677E+04 0.  0.
         13    1    3    3    0    0 -0.43230393374E+02  0.42464199611E+03  0.27107199236E+03  0.50563794159E+03  0.10566000000E+00 0. -1.
         -4    1    3    3    0  502 -0.17874929760E+03 -0.55346191264E+03 -0.23585566780E+02  0.58208906457E+03  0.00000000000E+00 0. -1.
        -13    1    1    2    0    0  0.22197969097E+03  0.12881991653E+03 -0.11948824417E+03  0.28310246512E+03  0.10566000000E+00 0.  1.
<mgrwt>
<rscale>  1 0.74313631E+03</rscale>
<asrwt>0</asrwt>
<pdfrwt beam="1">  1       21 0.11529444E+00 0.10591980E+04</pdfrwt>
<pdfrwt beam="2">  1       -4 0.95602406E-01 0.10591980E+04</pdfrwt>
<totfact> 0.19665618E+01</totfact>
</mgrwt>
</event>
<event>
 6    2  0.2345636E-005  0.1201672E+04  0.7818608E-02  0.9315481E-01
         21   -1    0    0  501  502  0.00000000000E+00  0.00000000000E+00  0.41444287150E+03  0.41444287150E+03  0.00000000000E+00 0.  1.
         -4   -1    0    0    0  501 -0.00000000000E+00 -0.00000000000E+00 -0.19067368052E+04  0.19067368052E+04  0.00000000000E+00 0. -1.
   -9000010    2    1    2    0  502  0.84486291974E+02 -0.55551937586E+03 -0.11496500611E+04  0.16630424987E+04  0.10622030780E+04 0.  0.
         13    1    3    3    0    0  0.40433355513E+03 -0.71480913660E+03 -0.94219668037E+03  0.12498689216E+04  0.10566000000E+00 0. -1.
         -4    1    3    3    0  502 -0.31984726316E+03  0.15928976074E+03 -0.20745338074E+03  0.41317357709E+03  0.00000000000E+00 0. -1.
        -13    1    1    2    0    0 -0.84486291974E+02  0.55551937586E+03 -0.34264387263E+03  0.65813717803E+03  0.10566000000E+00 0.  1.
<mgrwt>
<rscale>  1 0.99370072E+03</rscale>
<asrwt>0</asrwt>
<pdfrwt beam="1">  1       21 0.63760444E-01 0.12016718E+04</pdfrwt>
<pdfrwt beam="2">  1       -4 0.29334411E+00 0.12016718E+04</pdfrwt>
<totfact> 0.29257372E+00</totfact>
</mgrwt>
</event>
<event>
 6    2  0.2345636E-005  0.9329088E+03  0.7818608E-02  0.9741041E-01
         21   -1    0    0  501  502  0.00000000000E+00  0.00000000000E+00  0.22259421251E+04  0.22259421251E+04  0.00000000000E+00 0. -1.
         -4   -1    0    0    0  501 -0.00000000000E+00 -0.00000000000E+00 -0.16511680598E+03  0.16511680598E+03  0.00000000000E+00 0. -1.
   -9000010    2    1    2    0  502 -0.82384534495E+02 -0.26043543443E+03  0.16913381347E+04  0.19315650599E+04  0.89202301970E+03 0.  0.
         13    1    3    3    0    0 -0.20583603642E+03  0.25345445178E+03  0.10550087603E+04  0.11043781637E+04  0.10566000000E+00 0. -1.
         -4    1    3    3    0  502  0.12345150193E+03 -0.51388988622E+03  0.63632937441E+03  0.82718689619E+03  0.00000000000E+00 0. -1.
        -13    1    1    2    0    0  0.82384534495E+02  0.26043543443E+03  0.36948718438E+03  0.45949387115E+03  0.10566000000E+00 0.  1.
<mgrwt>
<rscale>  1 0.68624916E+03</rscale>
<asrwt>0</asrwt>
<pdfrwt beam="1">  1       21 0.34245261E+00 0.93290884E+03</pdfrwt>
<pdfrwt beam="2">  1       -4 0.25402587E-01 0.93290884E+03</pdfrwt>
<totfact> 0.87178394E+00</totfact>
</mgrwt>
</event>
<event>
 6    2  0.2345636E-005  0.1011250E+04  0.7818608E-02  0.9758361E-01
         21   -1    0    0  501  502  0.00000000000E+00  0.00000000000E+00  0.39087981385E+03  0.39087981385E+03  0.00000000000E+00 0. -1.
         -4   -1    0    0    0  501 -0.00000000000E+00 -0.00000000000E+00 -0.10075028771E+04  0.10075028771E+04  0.00000000000E+00 0. -1.
   -9000010    2    1    2    0  502 -0.11728126115E+03 -0.16505835606E+03 -0.36431565832E+03  0.10748735058E+04  0.99077141638E+03 0.  0.
         13    1    3    3    0    0 -0.23919747952E+03 -0.50757644714E+03 -0.13216072823E+01  0.56111588973E+03  0.10566000000E+00 0. -1.
         -4    1    3    3    0  502  0.12191621837E+03  0.34251809108E+03 -0.36299405104E+03  0.51375761611E+03  0.00000000000E+00 0. -1.
        -13    1    1    2    0    0  0.11728126115E+03  0.16505835606E+03 -0.25230740497E+03  0.32350918517E+03  0.10566000000E+00 0.  1.
<mgrwt>
<rscale>  1 0.67645806E+03</rscale>
<asrwt>0</asrwt>
<pdfrwt beam="1">  1       21 0.60135356E-01 0.10112503E+04</pdfrwt>
<pdfrwt beam="2">  1       -4 0.15500044E+00 0.10112503E+04</pdfrwt>
<totfact> 0.27378546E+01</totfact>
</mgrwt>
</event>
<event>
 6    2  0.2345636E-005  0.1071989E+04  0.7818608E-02  0.9539582E-01
         -4   -1    0    0    0  501 -0.00000000000E+00  0.00000000000E+00  0.42834005219E+03  0.42834005219E+03  0.00000000000E+00 0. -1.
         21   -1    0    0  501  502  0.00000000000E+00 -0.00000000000E+00 -0.13424456767E+04  0.13424456767E+04  0.00000000000E+00 0. -1.
   -9000010    2    1    2    0  502  0.21923146154E+03 -0.28159489384E+03 -0.92182147412E+03  0.14138296203E+04  0.10108418507E+04 0.  0.
         13    1    3    3    0    0 -0.14408189540E+03 -0.21607205678E+03  0.13619785774E+03  0.29325175859E+03  0.10566000000E+00 0. -1.
         -4    1    3    3    0  502  0.36331335694E+03 -0.65522837061E+02 -0.10580193319E+04  0.11205778617E+04  0.00000000000E+00 0. -1.
        -13    1    1    2    0    0 -0.21923146154E+03  0.28159489384E+03  0.77158496261E+01  0.35695610860E+03  0.10566000000E+00 0.  1.
<mgrwt>
<rscale>  1 0.81427468E+03</rscale>
<asrwt>0</asrwt>
<pdfrwt beam="2">  1       21 0.20653010E+00 0.10719885E+04</pdfrwt>
<pdfrwt beam="1">  1       -4 0.65898470E-01 0.10719885E+04</pdfrwt>
<totfact> 0.87733401E+00</totfact>
</mgrwt>
</event>
<event>
 6    2  0.2345636E-005  0.1117270E+04  0.7818608E-02  0.9438068E-01
         -4   -1    0    0    0  501 -0.00000000000E+00  0.00000000000E+00  0.14502841761E+04  0.14502841761E+04  0.00000000000E+00 0. -1.
         21   -1    0    0  501  502  0.00000000000E+00 -0.00000000000E+00 -0.42355796712E+03  0.42355796712E+03  0.00000000000E+00 0. -1.
   -9000010    2    1    2    0  502 -0.11737295345E+03  0.43445393225E+03  0.71763690974E+03  0.13278908308E+04  0.10226263711E+04 0.  0.
         13    1    3    3    0    0 -0.42163901286E+03  0.22570813129E+03  0.81617347164E+03  0.94597186251E+03  0.10566000000E+00 0. -1.
         -4    1    3    3    0  502  0.30426605940E+03  0.20874580096E+03 -0.98536561899E+02  0.38191896831E+03  0.00000000000E+00 0. -1.
        -13    1    1    2    0    0  0.11737295345E+03 -0.43445393225E+03  0.30908929924E+03  0.54595131240E+03  0.10566000000E+00 0.  1.
<mgrwt>
<rscale>  1 0.89007940E+03</rscale>
<asrwt>0</asrwt>
<pdfrwt beam="2">  1       21 0.65162765E-01 0.11172696E+04</pdfrwt>
<pdfrwt beam="1">  1       -4 0.22312064E+00 0.11172696E+04</pdfrwt>
<totfact> 0.76961640E+00</totfact>
</mgrwt>
</event>
<event>
 6    2  0.2345636E-005  0.1146637E+04  0.7818608E-02  0.9351225E-01
         21   -1    0    0  501  502  0.00000000000E+00  0.00000000000E+00  0.10389332798E+04  0.10389332798E+04  0.00000000000E+00 0.  1.
         -4   -1    0    0    0  501 -0.00000000000E+00 -0.00000000000E+00 -0.73839557903E+03  0.73839557903E+03  0.00000000000E+00 0. -1.
   -9000010    2    1    2    0  502  0.51110980611E+03  0.24802991182E+03  0.37030259176E+03  0.12049485463E+04  0.99600447725E+03 0.  0.
         13    1    3    3    0    0  0.41883642146E+03  0.60036199982E+03  0.74612040597E+02  0.73581617713E+03  0.10566000000E+00 0. -1.
         -4    1    3    3    0  502  0.92273384651E+02 -0.35233208800E+03  0.29569055116E+03  0.46913236916E+03  0.00000000000E+00 0. -1.
        -13    1    1    2    0    0 -0.51110980611E+03 -0.24802991182E+03 -0.69764890951E+02  0.57238031258E+03  0.10566000000E+00 0.  1.
<mgrwt>
<rscale>  1 0.96200686E+03</rscale>
<asrwt>0</asrwt>
<pdfrwt beam="1">  1       21 0.15983589E+00 0.11466373E+04</pdfrwt>
<pdfrwt beam="2">  1       -4 0.11359932E+00 0.11466373E+04</pdfrwt>
<totfact> 0.52841692E+00</totfact>
</mgrwt>
</event>
<event>
 6    2  0.2345636E-005  0.1008053E+04  0.7818608E-02  0.9950714E-01
         21   -1    0    0  501  502  0.00000000000E+00  0.00000000000E+00  0.55584170648E+03  0.55584170648E+03  0.00000000000E+00 0. -1.
         -4   -1    0    0    0  501 -0.00000000000E+00 -0.00000000000E+00 -0.63760460238E+03  0.63760460238E+03  0.00000000000E+00 0. -1.
   -9000010    2    1    2    0  502 -0.65799210796E+02  0.87464107345E+02  0.65251927509E+02  0.10101627153E+04  0.10020935041E+04 0.  0.
         13    1    3    3    0    0  0.28603848173E+03  0.31328013294E+03  0.31027750091E+03  0.52558024455E+03  0.10566000000E+00 0. -1.
         -4    1    3    3    0  502 -0.35183769253E+03 -0.22581602559E+03 -0.24502557340E+03  0.48458247071E+03  0.00000000000E+00 0. -1.
        -13    1    1    2    0    0  0.65799210796E+02 -0.87464107345E+02 -0.14701482342E+03  0.18328359360E+03  0.10566000000E+00 0.  1.
<mgrwt>
<rscale>  1 0.57865199E+03</rscale>
<asrwt>0</asrwt>
<pdfrwt beam="1">  1       21 0.85514109E-01 0.10080530E+04</pdfrwt>
<pdfrwt beam="2">  1       -4 0.98093015E-01 0.10080530E+04</pdfrwt>
<totfact> 0.38928755E+01</totfact>
</mgrwt>
</event>
<event>
 6    2  0.2345636E-005  0.1001506E+04  0.7818608E-02  0.9648592E-01
         -4   -1    0    0    0  501 -0.00000000000E+00  0.00000000000E+00  0.59953055226E+03  0.59953055226E+03  0.00000000000E+00 0. -1.
         21   -1    0    0  501  502  0.00000000000E+00 -0.00000000000E+00 -0.70780610921E+03  0.70780610921E+03  0.00000000000E+00 0.  1.
   -9000010    2    1    2    0  502  0.26164884055E+03 -0.14907308463E+03 -0.92980265064E+02  0.10058124378E+04  0.95515989766E+03 0.  0.
         13    1    3    3    0    0  0.16313148812E+03 -0.14513411959E+03 -0.52188523913E+03  0.56572078720E+03  0.10566000000E+00 0. -1.
         -4    1    3    3    0  502  0.98517352430E+02 -0.39389650382E+01  0.42890497407E+03  0.44009165063E+03  0.00000000000E+00 0. -1.
        -13    1    1    2    0    0 -0.26164884055E+03  0.14907308463E+03 -0.15295291883E+02  0.30152422363E+03  0.10566000000E+00 0.  1.
<mgrwt>
<rscale>  1 0.74161874E+03</rscale>
<asrwt>0</asrwt>
<pdfrwt beam="2">  1       21 0.10889325E+00 0.10015055E+04</pdfrwt>
<pdfrwt beam="1">  1       -4 0.92235470E-01 0.10015055E+04</pdfrwt>
<totfact> 0.24901481E+01</totfact>
</mgrwt>
</event>
<event>
 6    2  0.2345636E-005  0.1083515E+04  0.7818608E-02  0.9489576E-01
         -4   -1    0    0    0  501 -0.00000000000E+00  0.00000000000E+00  0.89755832617E+03  0.89755832617E+03  0.00000000000E+00 0. -1.
         21   -1    0    0  501  502  0.00000000000E+00 -0.00000000000E+00 -0.65404532465E+03  0.65404532465E+03  0.00000000000E+00 0. -1.
   -9000010    2    1    2    0  502 -0.20347668917E+03  0.35762852827E+03  0.20758361473E+02  0.10837141680E+04  0.10023495205E+04 0.  0.
         13    1    3    3    0    0 -0.33720151564E+03 -0.25006527934E+03 -0.13735634532E+03  0.44170610460E+03  0.10566000000E+00 0. -1.
         -4    1    3    3    0  502  0.13372482646E+03  0.60769380761E+03  0.15811470679E+03  0.64200806344E+03  0.00000000000E+00 0. -1.
        -13    1    1    2    0    0  0.20347668917E+03 -0.35762852827E+03  0.22275464004E+03  0.46788948278E+03  0.10566000000E+00 0.  1.
<mgrwt>
<rscale>  1 0.85056737E+03</rscale>
<asrwt>0</asrwt>
<pdfrwt beam="2">  1       21 0.10062236E+00 0.10835153E+04</pdfrwt>
<pdfrwt beam="1">  1       -4 0.13808590E+00 0.10835153E+04</pdfrwt>
<totfact> 0.11056219E+01</totfact>
</mgrwt>
</event>
<event>
 6    2  0.2345636E-005  0.1009959E+04  0.7818608E-02  0.1009337E+00
         21   -1    0    0  501  502  0.00000000000E+00  0.00000000000E+00  0.39345915201E+03  0.39345915201E+03  0.00000000000E+00 0. -1.
         -4   -1    0    0    0  501 -0.00000000000E+00 -0.00000000000E+00 -0.95568191794E+03  0.95568191794E+03  0.00000000000E+00 0. -1.
   -9000010    2    1    2    0  502  0.56213007374E+02  0.40971771847E+02 -0.26536118816E+03  0.10442387974E+04  0.10075611731E+04 0.  0.
         13    1    3    3    0    0 -0.75160157443E+02  0.51373812581E+03 -0.14267590111E+03  0.53845365177E+03  0.10566000000E+00 0. -1.
         -4    1    3    3    0  502  0.13137316482E+03 -0.47276635396E+03 -0.12268528705E+03  0.50578514562E+03  0.00000000000E+00 0. -1.
        -13    1    1    2    0    0 -0.56213007374E+02 -0.40971771847E+02 -0.29686157778E+03  0.30490227256E+03  0.10566000000E+00 0.  1.
<mgrwt>
<rscale>  1 0.51738986E+03</rscale>
<asrwt>0</asrwt>
<pdfrwt beam="1">  1       21 0.60532178E-01 0.10099595E+04</pdfrwt>
<pdfrwt beam="2">  1       -4 0.14702799E+00 0.10099595E+04</pdfrwt>
<totfact> 0.31100820E+01</totfact>
</mgrwt>
</event>
<event>
 6    2  0.2345636E-005  0.1142006E+04  0.7818608E-02  0.9356139E-01
         -4   -1    0    0    0  501 -0.00000000000E+00  0.00000000000E+00  0.10641072106E+04  0.10641072106E+04  0.00000000000E+00 0. -1.
         21   -1    0    0  501  502  0.00000000000E+00 -0.00000000000E+00 -0.70208931315E+03  0.70208931315E+03  0.00000000000E+00 0. -1.
   -9000010    2    1    2    0  502 -0.46000427506E+03 -0.32794996014E+03  0.37231640473E+03  0.12011645071E+04  0.99248252305E+03 0.  0.
         13    1    3    3    0    0  0.19026964141E+02  0.21205033046E+03 -0.19061236645E+03  0.28576293220E+03  0.10566000000E+00 0. -1.
         -4    1    3    3    0  502 -0.47903123920E+03 -0.54000029061E+03  0.56292877117E+03  0.91540157494E+03  0.00000000000E+00 0. -1.
        -13    1    1    2    0    0  0.46000427506E+03  0.32794996014E+03 -0.10298507233E+02  0.56503201665E+03  0.10566000000E+00 0.  1.
<mgrwt>
<rscale>  1 0.95774841E+03</rscale>
<asrwt>0</asrwt>
<pdfrwt beam="2">  1       21 0.10801374E+00 0.11420055E+04</pdfrwt>
<pdfrwt beam="1">  1       -4 0.16370880E+00 0.11420055E+04</pdfrwt>
<totfact> 0.58070771E+00</totfact>
</mgrwt>
</event>
<event>
 6    2  0.2345636E-005  0.1134915E+04  0.7818608E-02  0.9389374E-01
         -4   -1    0    0    0  501 -0.00000000000E+00  0.00000000000E+00  0.20247322556E+04  0.20247322556E+04  0.00000000000E+00 0. -1.
         21   -1    0    0  501  502  0.00000000000E+00 -0.00000000000E+00 -0.39658573473E+03  0.39658573473E+03  0.00000000000E+00 0. -1.
   -9000010    2    1    2    0  502  0.12818738894E+03  0.49440043759E+03  0.62499224698E+03  0.12956260663E+04  0.10134928690E+04 0.  0.
         13    1    3    3    0    0  0.80596542017E+02  0.43269238878E+03 -0.18821806519E+03  0.47869046066E+03  0.10566000000E+00 0. -1.
         -4    1    3    3    0  502  0.47590846927E+02  0.61708048804E+02  0.81321031216E+03  0.81693560567E+03  0.00000000000E+00 0. -1.
        -13    1    1    2    0    0 -0.12818738894E+03 -0.49440043759E+03  0.10031542739E+04  0.11256919240E+04  0.10566000000E+00 0.  1.
<mgrwt>
<rscale>  1 0.92955303E+03</rscale>
<asrwt>0</asrwt>
<pdfrwt beam="2">  1       21 0.61013191E-01 0.11349148E+04</pdfrwt>
<pdfrwt beam="1">  1       -4 0.31149727E+00 0.11349148E+04</pdfrwt>
<totfact> 0.25120160E+00</totfact>
</mgrwt>
</event>
<event>
 6    2  0.2345636E-005  0.1191424E+04  0.7818608E-02  0.9277057E-01
         -4   -1    0    0    0  501 -0.00000000000E+00  0.00000000000E+00  0.60291133966E+03  0.60291133966E+03  0.00000000000E+00 0. -1.
         21   -1    0    0  501  502  0.00000000000E+00 -0.00000000000E+00 -0.20756162404E+04  0.20756162404E+04  0.00000000000E+00 0.  1.
   -9000010    2    1    2    0  502 -0.63101156681E+03 -0.20510393492E+03 -0.16080770430E+04  0.20013504617E+04  0.98956994326E+03 0.  0.
         13    1    3    3    0    0 -0.36229455187E+02 -0.51666507968E+03 -0.64247147327E+03  0.82524237840E+03  0.10566000000E+00 0. -1.
         -4    1    3    3    0  502 -0.59478211162E+03  0.31156114475E+03 -0.96560556976E+03  0.11761080833E+04  0.00000000000E+00 0. -1.
        -13    1    1    2    0    0  0.63101156681E+03  0.20510393492E+03  0.13537214230E+03  0.67717711837E+03  0.10566000000E+00 0.  1.
<mgrwt>
<rscale>  1 0.10292276E+04</rscale>
<asrwt>0</asrwt>
<pdfrwt beam="2">  1       21 0.31932557E+00 0.11914243E+04</pdfrwt>
<pdfrwt beam="1">  1       -4 0.92755592E-01 0.11914243E+04</pdfrwt>
<totfact> 0.74829645E-01</totfact>
</mgrwt>
</event>
<event>
 6    2  0.2345636E-005  0.1011880E+04  0.7818608E-02  0.1000109E+00
         21   -1    0    0  501  502  0.00000000000E+00  0.00000000000E+00  0.51684485317E+03  0.51684485317E+03  0.00000000000E+00 0. -1.
         -4   -1    0    0    0  501 -0.00000000000E+00 -0.00000000000E+00 -0.63082453839E+03  0.63082453839E+03  0.00000000000E+00 0. -1.
   -9000010    2    1    2    0  502  0.14051217452E+02 -0.91178109978E+02 -0.14482626001E+02  0.10119838713E+04  0.10076659788E+04 0.  0.
         13    1    3    3    0    0 -0.17653206482E+03 -0.49682342812E+03 -0.14194306737E+03  0.54602649586E+03  0.10566000000E+00 0. -1.
         -4    1    3    3    0  502  0.19058328228E+03  0.40564531814E+03  0.12746044137E+03  0.46595737544E+03  0.00000000000E+00 0. -1.
        -13    1    1    2    0    0 -0.14051217452E+02  0.91178109978E+02 -0.99497059223E+02  0.13568552026E+03  0.10566000000E+00 0.  1.
<mgrwt>
<rscale>  1 0.55602426E+03</rscale>
<asrwt>0</asrwt>
<pdfrwt beam="1">  1       21 0.79514593E-01 0.10118802E+04</pdfrwt>
<pdfrwt beam="2">  1       -4 0.97049929E-01 0.10118802E+04</pdfrwt>
<totfact> 0.47432319E+01</totfact>
</mgrwt>
</event>
<event>
 6    2  0.2345636E-005  0.1172290E+04  0.7818608E-02  0.9323868E-01
         21   -1    0    0  501  502  0.00000000000E+00  0.00000000000E+00  0.76816275408E+03  0.76816275408E+03  0.00000000000E+00 0. -1.
         -4   -1    0    0    0  501 -0.00000000000E+00 -0.00000000000E+00 -0.10251292288E+04  0.10251292288E+04  0.00000000000E+00 0. -1.
   -9000010    2    1    2    0  502  0.44376781892E+03 -0.38429664326E+03 -0.59003674253E+02  0.11737735661E+04  0.10147162972E+04 0.  0.
         13    1    3    3    0    0 -0.32423726603E+03 -0.15251582744E+03 -0.95171209527E+02  0.37074041133E+03  0.10566000000E+00 0. -1.
         -4    1    3    3    0  502  0.76800508495E+03 -0.23178081581E+03  0.36167535274E+02  0.80303315479E+03  0.00000000000E+00 0. -1.
        -13    1    1    2    0    0 -0.44376781892E+03  0.38429664326E+03 -0.19796280043E+03  0.61951841671E+03  0.10566000000E+00 0.  1.
<mgrwt>
<rscale>  1 0.98614953E+03</rscale>
<asrwt>0</asrwt>
<pdfrwt beam="1">  1       21 0.11817889E+00 0.11722896E+04</pdfrwt>
<pdfrwt beam="2">  1       -4 0.15771219E+00 0.11722896E+04</pdfrwt>
<totfact> 0.51000169E+00</totfact>
</mgrwt>
</event>
<event>
 6    2  0.2345636E-005  0.1023269E+04  0.7818608E-02  0.9889179E-01
         -4   -1    0    0    0  501 -0.00000000000E+00  0.00000000000E+00  0.26935187667E+03  0.26935187667E+03  0.00000000000E+00 0. -1.
         21   -1    0    0  501  502  0.00000000000E+00 -0.00000000000E+00 -0.12657962357E+04  0.12657962357E+04  0.00000000000E+00 0. -1.
   -9000010    2    1    2    0  502 -0.71050386239E+02 -0.10580075422E+03 -0.95876289362E+03  0.14022501780E+04  0.10153015899E+04 0.  0.
         13    1    3    3    0    0  0.26876041048E+03 -0.14985922551E-01 -0.10077733527E+04  0.10429953500E+04  0.10566000000E+00 0. -1.
         -4    1    3    3    0  502 -0.33981079672E+03 -0.10578576830E+03  0.49010459081E+02  0.35925482800E+03  0.00000000000E+00 0. -1.
        -13    1    1    2    0    0  0.71050386239E+02  0.10580075422E+03 -0.37681465442E+02  0.13289793445E+03  0.10566000000E+00 0.  1.
<mgrwt>
<rscale>  1 0.60788604E+03</rscale>
<asrwt>0</asrwt>
<pdfrwt beam="2">  1       21 0.19473788E+00 0.10232689E+04</pdfrwt>
<pdfrwt beam="1">  1       -4 0.41438750E-01 0.10232689E+04</pdfrwt>
<totfact> 0.28577185E+01</totfact>
</mgrwt>
</event>
<event>
 6    2  0.2345636E-005  0.9810552E+03  0.7818608E-02  0.1009035E+00
         21   -1    0    0  501  502  0.00000000000E+00  0.00000000000E+00  0.21443209251E+04  0.21443209251E+04  0.00000000000E+00 0. -1.
         -4   -1    0    0    0  501 -0.00000000000E+00 -0.00000000000E+00 -0.13152300353E+03  0.13152300353E+03  0.00000000000E+00 0. -1.
   -9000010    2    1    2    0  502 -0.76532509266E+02 -0.33071832238E+01  0.19144446580E+04  0.21511782235E+04  0.97805993580E+03 0.  0.
         13    1    3    3    0    0 -0.13472040857E+03 -0.33088903356E+03  0.17384642275E+04  0.17747943606E+04  0.10566000000E+00 0. -1.
         -4    1    3    3    0  502  0.58187899306E+02  0.32758185033E+03  0.17598043056E+03  0.37638386288E+03  0.00000000000E+00 0. -1.
        -13    1    1    2    0    0  0.76532509266E+02  0.33071832238E+01  0.98353263572E+02  0.12466570521E+03  0.10566000000E+00 0.  1.
<mgrwt>
<rscale>  1 0.51860054E+03</rscale>
<asrwt>0</asrwt>
<pdfrwt beam="1">  1       21 0.32989550E+00 0.98105525E+03</pdfrwt>
<pdfrwt beam="2">  1       -4 0.20234310E-01 0.98105525E+03</pdfrwt>
<totfact> 0.15912872E+01</totfact>
</mgrwt>
</event>
<event>
 6    2  0.2345636E-005  0.1004154E+04  0.7818608E-02  0.9838328E-01
         -4   -1    0    0    0  501 -0.00000000000E+00  0.00000000000E+00  0.12705492803E+04  0.12705492803E+04  0.00000000000E+00 0. -1.
         21   -1    0    0  501  502  0.00000000000E+00 -0.00000000000E+00 -0.32109457028E+03  0.32109457028E+03  0.00000000000E+00 0. -1.
   -9000010    2    1    2    0  502  0.16111076321E+01 -0.15901684242E+03  0.51400061169E+03  0.11280608108E+04  0.99148152391E+03 0.  0.
         13    1    3    3    0    0 -0.45575847687E+03 -0.63312694118E+02  0.47156745320E+03  0.65886277824E+03  0.10566000000E+00 0. -1.
         -4    1    3    3    0  502  0.45736958451E+03 -0.95704148297E+02  0.42433158496E+02  0.46919803257E+03  0.00000000000E+00 0. -1.
        -13    1    1    2    0    0 -0.16111076321E+01  0.15901684242E+03  0.43545409834E+03  0.46358303977E+03  0.10566000000E+00 0.  1.
<mgrwt>
<rscale>  1 0.63345608E+03</rscale>
<asrwt>0</asrwt>
<pdfrwt beam="2">  1       21 0.49399165E-01 0.10041537E+04</pdfrwt>
<pdfrwt beam="1">  1       -4 0.19546912E+00 0.10041537E+04</pdfrwt>
<totfact> 0.21749461E+01</totfact>
</mgrwt>
</event>
<event>
 6    2  0.2345636E-005  0.1455454E+04  0.7818608E-02  0.8993908E-01
         -4   -1    0    0    0  501 -0.00000000000E+00  0.00000000000E+00  0.22735508590E+04  0.22735508590E+04  0.00000000000E+00 0. -1.
         21   -1    0    0  501  502  0.00000000000E+00 -0.00000000000E+00 -0.74483682788E+03  0.74483682788E+03  0.00000000000E+00 0.  1.
   -9000010    2    1    2    0  502 -0.82406793486E+03 -0.67369480385E+03  0.12488594859E+04  0.19178100078E+04  0.99266941144E+03 0.  0.
         13    1    3    3    0    0 -0.27234367780E+03 -0.39301515134E+03 -0.48231824676E+02  0.48058121905E+03  0.10566000000E+00 0. -1.
         -4    1    3    3    0  502 -0.55172425705E+03 -0.28067965251E+03  0.12970913106E+04  0.14372287888E+04  0.00000000000E+00 0. -1.
        -13    1    1    2    0    0  0.82406793486E+03  0.67369480385E+03  0.27985454515E+03  0.11005776790E+04  0.10566000000E+00 0.  1.
<mgrwt>
<rscale>  1 0.13459388E+04</rscale>
<asrwt>0</asrwt>
<pdfrwt beam="2">  1       21 0.11459028E+00 0.14554536E+04</pdfrwt>
<pdfrwt beam="1">  1       -4 0.34977705E+00 0.14554536E+04</pdfrwt>
<totfact> 0.30226436E-01</totfact>
</mgrwt>
</event>
<event>
 6    2  0.2345636E-005  0.1083896E+04  0.7818608E-02  0.9506744E-01
         -4   -1    0    0    0  501 -0.00000000000E+00  0.00000000000E+00  0.45078675611E+03  0.45078675611E+03  0.00000000000E+00 0. -1.
         21   -1    0    0  501  502  0.00000000000E+00 -0.00000000000E+00 -0.12003667724E+04  0.12003667724E+04  0.00000000000E+00 0. -1.
   -9000010    2    1    2    0  502  0.17152767558E+03  0.34697316739E+03 -0.56570343295E+03  0.12226412983E+04  0.10124323424E+04 0.  0.
         13    1    3    3    0    0 -0.35340416026E+03  0.21342405917E+02  0.41474918370E+02  0.35646904326E+03  0.10566000000E+00 0. -1.
         -4    1    3    3    0  502  0.52493183585E+03  0.32563076148E+03 -0.60717835132E+03  0.86617225505E+03  0.00000000000E+00 0. -1.
        -13    1    1    2    0    0 -0.17152767558E+03 -0.34697316739E+03 -0.18387658336E+03  0.42851223023E+03  0.10566000000E+00 0.  1.
<mgrwt>
<rscale>  1 0.83788458E+03</rscale>
<asrwt>0</asrwt>
<pdfrwt beam="2">  1       21 0.18467181E+00 0.10838964E+04</pdfrwt>
<pdfrwt beam="1">  1       -4 0.69351808E-01 0.10838964E+04</pdfrwt>
<totfact> 0.11105733E+01</totfact>
</mgrwt>
</event>
<event>
 6    2  0.2345636E-005  0.1110089E+04  0.7818608E-02  0.9386066E-01
         21   -1    0    0  501  502  0.00000000000E+00  0.00000000000E+00  0.15487547713E+04  0.15487547713E+04  0.00000000000E+00 0. -1.
         -4   -1    0    0    0  501 -0.00000000000E+00 -0.00000000000E+00 -0.46155163139E+03  0.46155163139E+03  0.00000000000E+00 0. -1.
   -9000010    2    1    2    0  502 -0.32984806246E+03  0.44298390478E+03  0.89356348167E+03  0.14250450828E+04  0.96294512199E+03 0.  0.
         13    1    3    3    0    0 -0.44344836924E+03 -0.17451151577E+03  0.45751272139E+03  0.66061988065E+03  0.10566000000E+00 0. -1.
         -4    1    3    3    0  502  0.11360030678E+03  0.61749542055E+03  0.43605076028E+03  0.76442520212E+03  0.00000000000E+00 0. -1.
        -13    1    1    2    0    0  0.32984806246E+03 -0.44298390478E+03  0.19363965826E+03  0.58526131994E+03  0.10566000000E+00 0.  1.
<mgrwt>
<rscale>  1 0.93231355E+03</rscale>
<asrwt>0</asrwt>
<pdfrwt beam="1">  1       21 0.23826996E+00 0.11100891E+04</pdfrwt>
<pdfrwt beam="2">  1       -4 0.71007944E-01 0.11100891E+04</pdfrwt>
<totfact> 0.45569940E+00</totfact>
</mgrwt>
</event>
<event>
 6    2  0.2345636E-005  0.9611617E+03  0.7818608E-02  0.9879569E-01
         -4   -1    0    0    0  501 -0.00000000000E+00  0.00000000000E+00  0.62790278711E+03  0.62790278711E+03  0.00000000000E+00 0. -1.
         21   -1    0    0  501  502  0.00000000000E+00 -0.00000000000E+00 -0.61691454101E+03  0.61691454101E+03  0.00000000000E+00 0.  1.
   -9000010    2    1    2    0  502  0.15687360397E+03  0.23496724636E+02  0.21646620522E+03  0.98523569060E+03  0.94798223841E+03 0.  0.
         13    1    3    3    0    0  0.36299885503E+03 -0.36527626529E+03  0.61128955149E+02  0.51858623107E+03  0.10566000000E+00 0. -1.
         -4    1    3    3    0  502 -0.20612525106E+03  0.38877298992E+03  0.15533725007E+03  0.46664945953E+03  0.00000000000E+00 0. -1.
        -13    1    1    2    0    0 -0.15687360397E+03 -0.23496724636E+02 -0.20547795912E+03  0.25958163752E+03  0.10566000000E+00 0.  1.
<mgrwt>
<rscale>  1 0.61261738E+03</rscale>
<asrwt>0</asrwt>
<pdfrwt beam="2">  1       21 0.94909930E-01 0.96116167E+03</pdfrwt>
<pdfrwt beam="1">  1       -4 0.96600429E-01 0.96116167E+03</pdfrwt>
<totfact> 0.31530176E+01</totfact>
</mgrwt>
</event>
<event>
 6    2  0.2345636E-005  0.8334312E+03  0.7818608E-02  0.1000350E+00
         -4   -1    0    0    0  501 -0.00000000000E+00  0.00000000000E+00  0.27209891766E+04  0.27209891766E+04  0.00000000000E+00 0. -1.
         21   -1    0    0  501  502  0.00000000000E+00 -0.00000000000E+00 -0.10622762335E+03  0.10622762335E+03  0.00000000000E+00 0. -1.
   -9000010    2    1    2    0  502  0.13403362033E+03  0.94257578091E+02  0.16489603984E+04  0.18476141334E+04  0.81716466401E+03 0.  0.
         13    1    3    3    0    0  0.23923583820E+03 -0.77076402059E+02  0.16259329191E+04  0.16452454002E+04  0.10566000000E+00 0. -1.
         -4    1    3    3    0  502 -0.10520221787E+03  0.17133398015E+03  0.23027479253E+02  0.20236873325E+03  0.00000000000E+00 0. -1.
        -13    1    1    2    0    0 -0.13403362033E+03 -0.94257578091E+02  0.96580115484E+03  0.97960266652E+03  0.10566000000E+00 0.  1.
<mgrwt>
<rscale>  1 0.55496983E+03</rscale>
<asrwt>0</asrwt>
<pdfrwt beam="2">  1       21 0.16342713E-01 0.83343122E+03</pdfrwt>
<pdfrwt beam="1">  1       -4 0.41861367E+00 0.83343122E+03</pdfrwt>
<totfact> 0.75726004E+00</totfact>
</mgrwt>
</event>
<event>
 6    2  0.2345636E-005  0.9783174E+03  0.7818608E-02  0.1054360E+00
         -4   -1    0    0    0  501 -0.00000000000E+00  0.00000000000E+00  0.43661423066E+03  0.43661423066E+03  0.00000000000E+00 0. -1.
         21   -1    0    0  501  502  0.00000000000E+00 -0.00000000000E+00 -0.62339827774E+03  0.62339827774E+03  0.00000000000E+00 0. -1.
   -9000010    2    1    2    0  502  0.14395067727E+02  0.14177938492E+02 -0.23637093839E+03  0.10064671737E+04  0.97810874615E+03 0.  0.
         13    1    3    3    0    0 -0.16296250476E+03 -0.43003949493E+03  0.26562577122E+02  0.46064772529E+03  0.10566000000E+00 0. -1.
         -4    1    3    3    0  502  0.17735757248E+03  0.44421743342E+03 -0.26293351551E+03  0.54581944840E+03  0.00000000000E+00 0. -1.
        -13    1    1    2    0    0 -0.14395067727E+02 -0.14177938492E+02  0.49586891310E+02  0.53545334704E+02  0.10566000000E+00 0.  1.
<mgrwt>
<rscale>  1 0.37087255E+03</rscale>
<asrwt>0</asrwt>
<pdfrwt beam="2">  1       21 0.95907427E-01 0.97831741E+03</pdfrwt>
<pdfrwt beam="1">  1       -4 0.67171420E-01 0.97831741E+03</pdfrwt>
<totfact> 0.70803119E+01</totfact>
</mgrwt>
</event>
<event>
 6    2  0.2345636E-005  0.1024898E+04  0.7818608E-02  0.9675983E-01
         21   -1    0    0  501  502  0.00000000000E+00  0.00000000000E+00  0.10475103822E+04  0.10475103822E+04  0.00000000000E+00 0. -1.
         -4   -1    0    0    0  501 -0.00000000000E+00 -0.00000000000E+00 -0.39321782596E+03  0.39321782596E+03  0.00000000000E+00 0. -1.
   -9000010    2    1    2    0  502 -0.22507935318E+03 -0.12224733381E+03  0.55907210503E+03  0.11674662984E+04  0.99237634664E+03 0.  0.
         13    1    3    3    0    0  0.22183231965E+03 -0.42890406181E+03  0.25986597698E+03  0.54835992690E+03  0.10566000000E+00 0. -1.
         -4    1    3    3    0  502 -0.44691167283E+03  0.30665672800E+03  0.29920612805E+03  0.61910637147E+03  0.00000000000E+00 0. -1.
        -13    1    1    2    0    0  0.22507935318E+03  0.12224733381E+03  0.95220451237E+02  0.27326190980E+03  0.10566000000E+00 0.  1.
<mgrwt>
<rscale>  1 0.72464904E+03</rscale>
<asrwt>0</asrwt>
<pdfrwt beam="1">  1       21 0.16115544E+00 0.10248980E+04</pdfrwt>
<pdfrwt beam="2">  1       -4 0.60495051E-01 0.10248980E+04</pdfrwt>
<totfact> 0.22616291E+01</totfact>
</mgrwt>
</event>
<event>
 6    2  0.2345636E-005  0.8059784E+03  0.7818608E-02  0.1019772E+00
         21   -1    0    0  501  502  0.00000000000E+00  0.00000000000E+00  0.45518706524E+03  0.45518706524E+03  0.00000000000E+00 0. -1.
         -4   -1    0    0    0  501 -0.00000000000E+00 -0.00000000000E+00 -0.46016456506E+03  0.46016456506E+03  0.00000000000E+00 0. -1.
   -9000010    2    1    2    0  502  0.80146444954E+02 -0.58884195888E+02  0.38306446065E+02  0.80688821573E+03  0.79981898434E+03 0.  0.
         13    1    3    3    0    0  0.25867446507E+03  0.25814382193E+03 -0.15257501093E+03  0.39601749558E+03  0.10566000000E+00 0. -1.
         -4    1    3    3    0  502 -0.17852802012E+03 -0.31702801782E+03  0.19088145699E+03  0.41087072015E+03  0.00000000000E+00 0. -1.
        -13    1    1    2    0    0 -0.80146444954E+02  0.58884195888E+02 -0.43283945880E+02  0.10846341456E+03  0.10566000000E+00 0.  1.
<mgrwt>
<rscale>  1 0.47769044E+03</rscale>
<asrwt>0</asrwt>
<pdfrwt beam="1">  1       21 0.70028779E-01 0.80597842E+03</pdfrwt>
<pdfrwt beam="2">  1       -4 0.70794548E-01 0.80597842E+03</pdfrwt>
<totfact> 0.13410376E+02</totfact>
</mgrwt>
</event>
<event>
 6    2  0.2345636E-005  0.1049600E+04  0.7818608E-02  0.9624975E-01
         21   -1    0    0  501  502  0.00000000000E+00  0.00000000000E+00  0.41565774089E+03  0.41565774089E+03  0.00000000000E+00 0. -1.
         -4   -1    0    0    0  501 -0.00000000000E+00 -0.00000000000E+00 -0.11409707593E+04  0.11409707593E+04  0.00000000000E+00 0. -1.
   -9000010    2    1    2    0  502  0.98920861798E+02 -0.26565077263E+03 -0.39527041857E+03  0.11215609206E+04  0.10105961236E+04 0.  0.
         13    1    3    3    0    0  0.12018085425E+03 -0.65129059777E+03 -0.22492853456E+03  0.69943958802E+03  0.10566000000E+00 0. -1.
         -4    1    3    3    0  502 -0.21259992451E+02  0.38563982514E+03 -0.17034188401E+03  0.42212133263E+03  0.00000000000E+00 0. -1.
        -13    1    1    2    0    0 -0.98920861798E+02  0.26565077263E+03 -0.33004259983E+03  0.43506757954E+03  0.10566000000E+00 0.  1.
<mgrwt>
<rscale>  1 0.75664984E+03</rscale>
<asrwt>0</asrwt>
<pdfrwt beam="1">  1       21 0.63947346E-01 0.10496000E+04</pdfrwt>
<pdfrwt beam="2">  1       -4 0.17553396E+00 0.10496000E+04</pdfrwt>
<totfact> 0.16799246E+01</totfact>
</mgrwt>
</event>
<event>
 6    2  0.2345636E-005  0.1034310E+04  0.7818608E-02  0.9678032E-01
         -4   -1    0    0    0  501 -0.00000000000E+00  0.00000000000E+00  0.36817378985E+03  0.36817378985E+03  0.00000000000E+00 0. -1.
         21   -1    0    0  501  502  0.00000000000E+00 -0.00000000000E+00 -0.11156735333E+04  0.11156735333E+04  0.00000000000E+00 0. -1.
   -9000010    2    1    2    0  502  0.20090957760E+03  0.14452526467E+03 -0.60572979678E+03  0.11986264623E+04  0.10042632120E+04 0.  0.
         13    1    3    3    0    0  0.41432127598E+03  0.61831474805E+02 -0.79697857760E+03  0.90036665604E+03  0.10566000000E+00 0. -1.
         -4    1    3    3    0  502 -0.21341169837E+03  0.82693789863E+02  0.19124878082E+03  0.29825980629E+03  0.00000000000E+00 0. -1.
        -13    1    1    2    0    0 -0.20090957760E+03 -0.14452526467E+03 -0.14176994668E+03  0.28522086082E+03  0.10566000000E+00 0.  1.
<mgrwt>
<rscale>  1 0.72339952E+03</rscale>
<asrwt>0</asrwt>
<pdfrwt beam="2">  1       21 0.17164208E+00 0.10343098E+04</pdfrwt>
<pdfrwt beam="1">  1       -4 0.56642121E-01 0.10343098E+04</pdfrwt>
<totfact> 0.21698376E+01</totfact>
</mgrwt>
</event>
<event>
 6    2  0.2345636E-005  0.1053192E+04  0.7818608E-02  0.9899551E-01
         21   -1    0    0  501  502  0.00000000000E+00  0.00000000000E+00  0.86009679358E+03  0.86009679358E+03  0.00000000000E+00 0. -1.
         -4   -1    0    0    0  501 -0.00000000000E+00 -0.00000000000E+00 -0.53767981934E+03  0.53767981934E+03  0.00000000000E+00 0. -1.
   -9000010    2    1    2    0  502 -0.10744984404E+03 -0.35129896940E+02  0.51661232218E+03  0.11730736468E+04  0.10471074017E+04 0.  0.
         13    1    3    3    0    0 -0.35259021453E+03 -0.41302219919E+03  0.85819373632E+02  0.54979284504E+03  0.10566000000E+00 0. -1.
         -4    1    3    3    0  502  0.24514037049E+03  0.37789230225E+03  0.43079294855E+03  0.62328080178E+03  0.00000000000E+00 0. -1.
        -13    1    1    2    0    0  0.10744984404E+03  0.35129896940E+02 -0.19419534794E+03  0.22470296609E+03  0.10566000000E+00 0.  1.
<mgrwt>
<rscale>  1 0.60283060E+03</rscale>
<asrwt>0</asrwt>
<pdfrwt beam="1">  1       21 0.13232258E+00 0.10531920E+04</pdfrwt>
<pdfrwt beam="2">  1       -4 0.82719972E-01 0.10531920E+04</pdfrwt>
<totfact> 0.19265960E+01</totfact>
</mgrwt>
</event>
<event>
 6    2  0.2345636E-005  0.1019229E+04  0.7818608E-02  0.9802545E-01
         -4   -1    0    0    0  501 -0.00000000000E+00  0.00000000000E+00  0.15344085074E+04  0.15344085074E+04  0.00000000000E+00 0. -1.
         21   -1    0    0  501  502  0.00000000000E+00 -0.00000000000E+00 -0.33410540769E+03  0.33410540769E+03  0.00000000000E+00 0. -1.
   -9000010    2    1    2    0  502 -0.11590803002E+03  0.12565645876E+03  0.47707649101E+03  0.11253578374E+04  0.10047905588E+04 0.  0.
         13    1    3    3    0    0  0.40133404934E+03  0.23474814311E+03  0.98790332903E+02  0.47532646769E+03  0.10566000000E+00 0. -1.
         -4    1    3    3    0  502 -0.51724207935E+03 -0.10909168435E+03  0.37828615811E+03  0.65003136975E+03  0.00000000000E+00 0. -1.
        -13    1    1    2    0    0  0.11590803002E+03 -0.12565645876E+03  0.72322660872E+03  0.74315607766E+03  0.10566000000E+00 0.  1.
<mgrwt>
<rscale>  1 0.65226157E+03</rscale>
<asrwt>0</asrwt>
<pdfrwt beam="2">  1       21 0.51400833E-01 0.10192293E+04</pdfrwt>
<pdfrwt beam="1">  1       -4 0.23606284E+00 0.10192293E+04</pdfrwt>
<totfact> 0.10912731E+01</totfact>
</mgrwt>
</event>
<event>
 6    2  0.2345636E-005  0.1040670E+04  0.7818608E-02  0.9632420E-01
         -4   -1    0    0    0  501 -0.00000000000E+00  0.00000000000E+00  0.23677279880E+03  0.23677279880E+03  0.00000000000E+00 0. -1.
         21   -1    0    0  501  502  0.00000000000E+00 -0.00000000000E+00 -0.20247916022E+04  0.20247916022E+04  0.00000000000E+00 0. -1.
   -9000010    2    1    2    0  502  0.21880949448E+03 -0.18034459387E+03 -0.16383821817E+04  0.19409510870E+04  0.10012957512E+04 0.  0.
         13    1    3    3    0    0 -0.18025360852E+02  0.13037492863E+02 -0.16350242512E+04  0.16351755879E+04  0.10566000000E+00 0. -1.
         -4    1    3    3    0  502  0.23683485534E+03 -0.19338208673E+03 -0.33579304717E+01  0.30577549913E+03  0.00000000000E+00 0. -1.
        -13    1    1    2    0    0 -0.21880949448E+03  0.18034459387E+03 -0.14963662174E+03  0.32061331404E+03  0.10566000000E+00 0.  1.
<mgrwt>
<rscale>  1 0.75187063E+03</rscale>
<asrwt>0</asrwt>
<pdfrwt beam="2">  1       21 0.31150640E+00 0.10406704E+04</pdfrwt>
<pdfrwt beam="1">  1       -4 0.36426584E-01 0.10406704E+04</pdfrwt>
<totfact> 0.65762788E+00</totfact>
</mgrwt>
</event>
<event>
 6    2  0.2345636E-005  0.1011766E+04  0.7818608E-02  0.9988509E-01
         -4   -1    0    0    0  501 -0.00000000000E+00  0.00000000000E+00  0.13014584038E+04  0.13014584038E+04  0.00000000000E+00 0. -1.
         21   -1    0    0  501  502  0.00000000000E+00 -0.00000000000E+00 -0.31205729882E+03  0.31205729882E+03  0.00000000000E+00 0. -1.
   -9000010    2    1    2    0  502  0.30037410067E+02  0.91203557855E+02  0.52611005002E+03  0.11403783571E+04  0.10071994230E+04 0.  0.
         13    1    3    3    0    0  0.13644751232E+03 -0.40595256551E+03  0.28892703927E+02  0.42924376357E+03  0.10566000000E+00 0. -1.
         -4    1    3    3    0  502 -0.10641010225E+03  0.49715612336E+03  0.49721734609E+03  0.71113459353E+03  0.00000000000E+00 0. -1.
        -13    1    1    2    0    0 -0.30037410067E+02 -0.91203557855E+02  0.46329105499E+03  0.47313734556E+03  0.10566000000E+00 0.  1.
<mgrwt>
<rscale>  1 0.56156956E+03</rscale>
<asrwt>0</asrwt>
<pdfrwt beam="2">  1       21 0.48008816E-01 0.10117663E+04</pdfrwt>
<pdfrwt beam="1">  1       -4 0.20022437E+00 0.10117663E+04</pdfrwt>
<totfact> 0.21486679E+01</totfact>
</mgrwt>
</event>
<event>
 6    2  0.2345636E-005  0.1028612E+04  0.7818608E-02  0.1017266E+00
         21   -1    0    0  501  502  0.00000000000E+00  0.00000000000E+00  0.19483797310E+04  0.19483797310E+04  0.00000000000E+00 0. -1.
         -4   -1    0    0    0  501 -0.00000000000E+00 -0.00000000000E+00 -0.19427509639E+03  0.19427509639E+03  0.00000000000E+00 0. -1.
   -9000010    2    1    2    0  502 -0.39441185264E+01 -0.51475089764E+02  0.18002645897E+04  0.20734017151E+04  0.10273153549E+04 0.  0.
         13    1    3    3    0    0  0.49204394307E+03 -0.13950120042E+03  0.73977143165E+03  0.89934954777E+03  0.10566000000E+00 0. -1.
         -4    1    3    3    0  502 -0.49598806160E+03  0.88026110655E+02  0.10604931580E+04  0.11740521673E+04  0.00000000000E+00 0. -1.
        -13    1    1    2    0    0  0.39441185264E+01  0.51475089764E+02 -0.46159955099E+02  0.69253112247E+02  0.10566000000E+00 0.  1.
<mgrwt>
<rscale>  1 0.48686201E+03</rscale>
<asrwt>0</asrwt>
<pdfrwt beam="1">  1       21 0.29975071E+00 0.10286117E+04</pdfrwt>
<pdfrwt beam="2">  1       -4 0.29888478E-01 0.10286117E+04</pdfrwt>
<totfact> 0.11548515E+01</totfact>
</mgrwt>
</event>
<event>
 6    2  0.2345636E-005  0.1045554E+04  0.7818608E-02  0.9667604E-01
         21   -1    0    0  501  502  0.00000000000E+00  0.00000000000E+00  0.18184313804E+04  0.18184313804E+04  0.00000000000E+00 0. -1.
         -4   -1    0    0    0  501 -0.00000000000E+00 -0.00000000000E+00 -0.34486745224E+03  0.34486745224E+03  0.00000000000E+00 0. -1.
   -9000010    2    1    2    0  502 -0.11251550656E+03 -0.22119711027E+03  0.15788979037E+04  0.18937006903E+04  0.10156750531E+04 0.  0.
         13    1    3    3    0    0 -0.33628128740E+03  0.22993577225E+03  0.26340811945E+03  0.48511793635E+03  0.10566000000E+00 0. -1.
         -4    1    3    3    0  502  0.22376578083E+03 -0.45113288253E+03  0.13154897842E+04  0.14085827539E+04  0.00000000000E+00 0. -1.
        -13    1    1    2    0    0  0.11251550656E+03  0.22119711027E+03 -0.10533397547E+03  0.26959814236E+03  0.10566000000E+00 0.  1.
<mgrwt>
<rscale>  1 0.72978825E+03</rscale>
<asrwt>0</asrwt>
<pdfrwt beam="1">  1       21 0.27975867E+00 0.10455543E+04</pdfrwt>
<pdfrwt beam="2">  1       -4 0.53056532E-01 0.10455543E+04</pdfrwt>
<totfact> 0.47563615E+00</totfact>
</mgrwt>
</event>
<event>
 6    2  0.2345636E-005  0.1013285E+04  0.7818608E-02  0.9907462E-01
         -4   -1    0    0    0  501 -0.00000000000E+00  0.00000000000E+00  0.47995558371E+03  0.47995558371E+03  0.00000000000E+00 0. -1.
         21   -1    0    0  501  502  0.00000000000E+00 -0.00000000000E+00 -0.70904292340E+03  0.70904292340E+03  0.00000000000E+00 0. -1.
   -9000010    2    1    2    0  502 -0.12202082131E+03  0.20609832287E+02 -0.28587872981E+03  0.10528400730E+04  0.10056996198E+04 0.  0.
         13    1    3    3    0    0 -0.84028911221E+02 -0.39900758476E+03  0.16123911487E+03  0.43848144082E+03  0.10566000000E+00 0. -1.
         -4    1    3    3    0  502 -0.37991910093E+02  0.41961741705E+03 -0.44711784468E+03  0.61435863219E+03  0.00000000000E+00 0. -1.
        -13    1    1    2    0    0  0.12202082131E+03 -0.20609832287E+02  0.56791390123E+02  0.13615843410E+03  0.10566000000E+00 0.  1.
<mgrwt>
<rscale>  1 0.59901009E+03</rscale>
<asrwt>0</asrwt>
<pdfrwt beam="2">  1       21 0.10908353E+00 0.10132845E+04</pdfrwt>
<pdfrwt beam="1">  1       -4 0.73839322E-01 0.10132845E+04</pdfrwt>
<totfact> 0.41422556E+01</totfact>
</mgrwt>
</event>
<event>
 6    2  0.2345636E-005  0.1035208E+04  0.7818608E-02  0.9636697E-01
         21   -1    0    0  501  502  0.00000000000E+00  0.00000000000E+00  0.13363883689E+04  0.13363883689E+04  0.00000000000E+00 0. -1.
         -4   -1    0    0    0  501 -0.00000000000E+00 -0.00000000000E+00 -0.33873330756E+03  0.33873330756E+03  0.00000000000E+00 0. -1.
   -9000010    2    1    2    0  502 -0.26591968334E+03 -0.99443910829E+02  0.90911023549E+03  0.13777287265E+04  0.99551627512E+03 0.  0.
         13    1    3    3    0    0 -0.53926914881E+03 -0.10426934973E+03  0.14776670675E+03  0.56878671129E+03  0.10566000000E+00 0. -1.
         -4    1    3    3    0  502  0.27334946548E+03  0.48254389042E+01  0.76134352874E+03  0.80894201516E+03  0.00000000000E+00 0. -1.
        -13    1    1    2    0    0  0.26591968334E+03  0.99443910829E+02  0.88544825893E+02  0.29739295006E+03  0.10566000000E+00 0.  1.
<mgrwt>
<rscale>  1 0.74914194E+03</rscale>
<asrwt>0</asrwt>
<pdfrwt beam="1">  1       21 0.20559821E+00 0.10352077E+04</pdfrwt>
<pdfrwt beam="2">  1       -4 0.52112817E-01 0.10352077E+04</pdfrwt>
<totfact> 0.14886835E+01</totfact>
</mgrwt>
</event>
<event>
 6    2  0.2345636E-005  0.1039372E+04  0.7818608E-02  0.9644519E-01
         -4   -1    0    0    0  501 -0.00000000000E+00  0.00000000000E+00  0.86551848332E+03  0.86551848332E+03  0.00000000000E+00 0. -1.
         21   -1    0    0  501  502  0.00000000000E+00 -0.00000000000E+00 -0.50019892378E+03  0.50019892378E+03  0.00000000000E+00 0. -1.
   -9000010    2    1    2    0  502  0.69347756341E+02 -0.26420511852E+03  0.24871672187E+03  0.10687162474E+04  0.10028364541E+04 0.  0.
         13    1    3    3    0    0  0.31241871796E+03 -0.54408893489E+03  0.29830996927E+03  0.69471366284E+03  0.10566000000E+00 0. -1.
         -4    1    3    3    0  502 -0.24307096162E+03  0.27988381637E+03 -0.49593247400E+02  0.37400258453E+03  0.00000000000E+00 0. -1.
        -13    1    1    2    0    0 -0.69347756341E+02  0.26420511852E+03  0.11660283768E+03  0.29700115973E+03  0.10566000000E+00 0.  1.
<mgrwt>
<rscale>  1 0.74418421E+03</rscale>
<asrwt>0</asrwt>
<pdfrwt beam="2">  1       21 0.76953681E-01 0.10393721E+04</pdfrwt>
<pdfrwt beam="1">  1       -4 0.13315669E+00 0.10393721E+04</pdfrwt>
<totfact> 0.23271077E+01</totfact>
</mgrwt>
</event>
<event>
 6    2  0.2345636E-005  0.1008987E+04  0.7818608E-02  0.9772991E-01
         -4   -1    0    0    0  501 -0.00000000000E+00  0.00000000000E+00  0.15109028744E+03  0.15109028744E+03  0.00000000000E+00 0. -1.
         21   -1    0    0  501  502  0.00000000000E+00 -0.00000000000E+00 -0.30216183527E+04  0.30216183527E+04  0.00000000000E+00 0. -1.
   -9000010    2    1    2    0  502  0.57013234194E+02  0.18566193906E+03 -0.27818947309E+04  0.29592215361E+04  0.99011764012E+03 0.  0.
         13    1    3    3    0    0 -0.32407925284E+03  0.72696708328E+02 -0.23456611011E+04  0.23690585020E+04  0.10566000000E+00 0. -1.
         -4    1    3    3    0  502  0.38109248703E+03  0.11296523073E+03 -0.43623362981E+03  0.59016303409E+03  0.00000000000E+00 0. -1.
        -13    1    1    2    0    0 -0.57013234194E+02 -0.18566193906E+03 -0.88633334414E+02  0.21348710411E+03  0.10566000000E+00 0.  1.
<mgrwt>
<rscale>  1 0.66832352E+03</rscale>
<asrwt>0</asrwt>
<pdfrwt beam="2">  1       21 0.46486440E+00 0.10089865E+04</pdfrwt>
<pdfrwt beam="1">  1       -4 0.23244658E-01 0.10089865E+04</pdfrwt>
<totfact> 0.15847048E+00</totfact>
</mgrwt>
</event>
<event>
 6    2  0.2345636E-005  0.1073491E+04  0.7818608E-02  0.9548439E-01
         21   -1    0    0  501  502  0.00000000000E+00  0.00000000000E+00  0.43961000990E+03  0.43961000990E+03  0.00000000000E+00 0. -1.
         -4   -1    0    0    0  501 -0.00000000000E+00 -0.00000000000E+00 -0.11756813304E+04  0.11756813304E+04  0.00000000000E+00 0. -1.
   -9000010    2    1    2    0  502  0.34821236663E+01 -0.34461446977E+03 -0.66692121952E+03  0.12637902655E+04  0.10166664469E+04 0.  0.
         13    1    3    3    0    0  0.27370952021E+03 -0.33450574113E+03 -0.83863482629E+03  0.94346137988E+03  0.10566000000E+00 0. -1.
         -4    1    3    3    0  502 -0.27022739654E+03 -0.10108728634E+02  0.17171360676E+03  0.32032888565E+03  0.00000000000E+00 0. -1.
        -13    1    1    2    0    0 -0.34821236663E+01  0.34461446977E+03 -0.69150101028E+02  0.35150107481E+03  0.10566000000E+00 0.  1.
<mgrwt>
<rscale>  1 0.80804890E+03</rscale>
<asrwt>0</asrwt>
<pdfrwt beam="1">  1       21 0.67632309E-01 0.10734905E+04</pdfrwt>
<pdfrwt beam="2">  1       -4 0.18087405E+00 0.10734905E+04</pdfrwt>
<totfact> 0.13537256E+01</totfact>
</mgrwt>
</event>
<event>
 6    2  0.2345636E-005  0.1069799E+04  0.7818608E-02  0.9532859E-01
         -4   -1    0    0    0  501 -0.00000000000E+00  0.00000000000E+00  0.98392057256E+03  0.98392057256E+03  0.00000000000E+00 0. -1.
         21   -1    0    0  501  502  0.00000000000E+00 -0.00000000000E+00 -0.62692679797E+03  0.62692679797E+03  0.00000000000E+00 0. -1.
   -9000010    2    1    2    0  502 -0.79784230925E+02  0.35878468247E+03 -0.39074858530E+02  0.10705119699E+04  0.10046775907E+04 0.  0.
         13    1    3    3    0    0  0.32395702472E+03  0.47514318936E+03 -0.21641464492E+03  0.61444651025E+03  0.10566000000E+00 0. -1.
         -4    1    3    3    0  502 -0.40374125564E+03 -0.11635850689E+03  0.17733978639E+03  0.45606545963E+03  0.00000000000E+00 0. -1.
        -13    1    1    2    0    0  0.79784230925E+02 -0.35878468247E+03  0.39606863312E+03  0.54033540064E+03  0.10566000000E+00 0.  1.
<mgrwt>
<rscale>  1 0.81904019E+03</rscale>
<asrwt>0</asrwt>
<pdfrwt beam="2">  1       21 0.96450276E-01 0.10697986E+04</pdfrwt>
<pdfrwt beam="1">  1       -4 0.15137240E+00 0.10697986E+04</pdfrwt>
<totfact> 0.96276440E+00</totfact>
</mgrwt>
</event>
<event>
 6    2  0.2345636E-005  0.1235692E+04  0.7818608E-02  0.9217381E-01
         -4   -1    0    0    0  501 -0.00000000000E+00  0.00000000000E+00  0.71103009859E+03  0.71103009859E+03  0.00000000000E+00 0. -1.
         21   -1    0    0  501  502  0.00000000000E+00 -0.00000000000E+00 -0.14299055855E+04  0.14299055855E+04  0.00000000000E+00 0.  1.
   -9000010    2    1    2    0  502  0.57383492821E+03 -0.46962521924E+03 -0.24155704807E+03  0.12590812321E+04  0.98848438028E+03 0.  0.
         13    1    3    3    0    0  0.41624426192E+03 -0.55188575663E+03  0.25100756237E+03  0.73541959552E+03  0.10566000000E+00 0. -1.
         -4    1    3    3    0  502  0.15759066629E+03  0.82260537384E+02 -0.49256461044E+03  0.52366163653E+03  0.00000000000E+00 0. -1.
        -13    1    1    2    0    0 -0.57383492821E+03  0.46962521924E+03 -0.47731843888E+03  0.88185445207E+03  0.10566000000E+00 0.  1.
<mgrwt>
<rscale>  1 0.10875815E+04</rscale>
<asrwt>0</asrwt>
<pdfrwt beam="2">  1       21 0.21998547E+00 0.12356924E+04</pdfrwt>
<pdfrwt beam="1">  1       -4 0.10938925E+00 0.12356924E+04</pdfrwt>
<totfact> 0.21345185E+00</totfact>
</mgrwt>
</event>
<event>
 6    2  0.2345636E-005  0.9985266E+03  0.7818608E-02  0.1002941E+00
         21   -1    0    0  501  502  0.00000000000E+00  0.00000000000E+00  0.19619525348E+04  0.19619525348E+04  0.00000000000E+00 0. -1.
         -4   -1    0    0    0  501 -0.00000000000E+00 -0.00000000000E+00 -0.23439596734E+03  0.23439596734E+03  0.00000000000E+00 0. -1.
   -9000010    2    1    2    0  502  0.85634956483E+02  0.19523996392E+02  0.18155488992E+04  0.20720215387E+04  0.99465618151E+03 0.  0.
         13    1    3    3    0    0 -0.22243178780E+03 -0.80863445590E+02  0.17171721637E+04  0.17334056213E+04  0.10566000000E+00 0. -1.
         -4    1    3    3    0  502  0.30806674428E+03  0.10038744198E+03  0.98376735483E+02  0.33861591741E+03  0.00000000000E+00 0. -1.
        -13    1    1    2    0    0 -0.85634956483E+02 -0.19523996392E+02 -0.87992331767E+02  0.12432696337E+03  0.10566000000E+00 0.  1.
<mgrwt>
<rscale>  1 0.54379288E+03</rscale>
<asrwt>0</asrwt>
<pdfrwt beam="1">  1       21 0.30183884E+00 0.99852664E+03</pdfrwt>
<pdfrwt beam="2">  1       -4 0.36060919E-01 0.99852664E+03</pdfrwt>
<totfact> 0.77655256E+00</totfact>
</mgrwt>
</event>
<event>
 6    2  0.2345636E-005  0.9969048E+03  0.7818608E-02  0.9986179E-01
         21   -1    0    0  501  502  0.00000000000E+00  0.00000000000E+00  0.33677438835E+03  0.33677438835E+03  0.00000000000E+00 0. -1.
         -4   -1    0    0    0  501 -0.00000000000E+00 -0.00000000000E+00 -0.97010719185E+03  0.97010719185E+03  0.00000000000E+00 0. -1.
   -9000010    2    1    2    0  502 -0.10080885329E+03  0.79688689620E+01 -0.44205687553E+03  0.10905198009E+04  0.99176268688E+03 0.  0.
         13    1    3    3    0    0  0.77238048529E+02 -0.40647820805E+03 -0.48488303967E+03  0.63741809128E+03  0.10566000000E+00 0. -1.
         -4    1    3    3    0  502 -0.17804690182E+03  0.41444707702E+03  0.42826164144E+02  0.45310170959E+03  0.00000000000E+00 0. -1.
        -13    1    1    2    0    0  0.10080885329E+03 -0.79688689620E+01 -0.19127592797E+03  0.21636177934E+03  0.10566000000E+00 0.  1.
<mgrwt>
<rscale>  1 0.56260445E+03</rscale>
<asrwt>0</asrwt>
<pdfrwt beam="1">  1       21 0.51811444E-01 0.99690479E+03</pdfrwt>
<pdfrwt beam="2">  1       -4 0.14924726E+00 0.99690479E+03</pdfrwt>
<totfact> 0.42136788E+01</totfact>
</mgrwt>
</event>
<event>
 6    2  0.2345636E-005  0.1126870E+04  0.7818608E-02  0.9348414E-01
         -4   -1    0    0    0  501 -0.00000000000E+00  0.00000000000E+00  0.16152091103E+04  0.16152091103E+04  0.00000000000E+00 0. -1.
         21   -1    0    0  501  502  0.00000000000E+00 -0.00000000000E+00 -0.49458062195E+03  0.49458062195E+03  0.00000000000E+00 0. -1.
   -9000010    2    1    2    0  502 -0.57983043849E+03 -0.17146493800E+03  0.46822011043E+03  0.12202728605E+04  0.95091125767E+03 0.  0.
         13    1    3    3    0    0 -0.20245841241E+03 -0.53773104296E+03  0.11282125468E+03  0.58555335367E+03  0.10566000000E+00 0. -1.
         -4    1    3    3    0  502 -0.37737202609E+03  0.36626610496E+03  0.35539885576E+03  0.63471950686E+03  0.00000000000E+00 0. -1.
        -13    1    1    2    0    0  0.57983043849E+03  0.17146493800E+03  0.65240837796E+03  0.88951687177E+03  0.10566000000E+00 0.  1.
<mgrwt>
<rscale>  1 0.96445427E+03</rscale>
<asrwt>0</asrwt>
<pdfrwt beam="2">  1       21 0.76089327E-01 0.11268699E+04</pdfrwt>
<pdfrwt beam="1">  1       -4 0.24849371E+00 0.11268699E+04</pdfrwt>
<totfact> 0.37286565E+00</totfact>
</mgrwt>
</event>
<event>
 6    2  0.2345636E-005  0.1014066E+04  0.7818608E-02  0.9803773E-01
         -4   -1    0    0    0  501 -0.00000000000E+00  0.00000000000E+00  0.45643211945E+03  0.45643211945E+03  0.00000000000E+00 0. -1.
         21   -1    0    0  501  502  0.00000000000E+00 -0.00000000000E+00 -0.10628149555E+04  0.10628149555E+04  0.00000000000E+00 0.  1.
   -9000010    2    1    2    0  502 -0.15924267770E+03  0.67293029157E+02 -0.77610972959E+03  0.12769790174E+04  0.99922095469E+03 0.  0.
         13    1    3    3    0    0  0.33683975185E+03  0.30688493498E+03 -0.42894919617E+03  0.62580892116E+03  0.10566000000E+00 0. -1.
         -4    1    3    3    0  502 -0.49608242955E+03 -0.23959190582E+03 -0.34716053342E+03  0.65117009622E+03  0.00000000000E+00 0. -1.
        -13    1    1    2    0    0  0.15924267770E+03 -0.67293029157E+02  0.16972689353E+03  0.24226805758E+03  0.10566000000E+00 0.  1.
<mgrwt>
<rscale>  1 0.65160454E+03</rscale>
<asrwt>0</asrwt>
<pdfrwt beam="2">  1       21 0.16350999E+00 0.10140656E+04</pdfrwt>
<pdfrwt beam="1">  1       -4 0.70220327E-01 0.10140656E+04</pdfrwt>
<totfact> 0.15619312E+01</totfact>
</mgrwt>
</event>
<event>
 6    2  0.2345636E-005  0.1064583E+04  0.7818608E-02  0.9497260E-01
         21   -1    0    0  501  502  0.00000000000E+00  0.00000000000E+00  0.14335818220E+04  0.14335818220E+04  0.00000000000E+00 0. -1.
         -4   -1    0    0    0  501 -0.00000000000E+00 -0.00000000000E+00 -0.39432009837E+03  0.39432009837E+03  0.00000000000E+00 0. -1.
   -9000010    2    1    2    0  502  0.40430804799E+03 -0.12189100087E+03  0.86246459015E+03  0.13701032186E+04  0.97724881507E+03 0.  0.
         13    1    3    3    0    0  0.42514960278E+03  0.17032487928E+03 -0.13101724311E+01  0.45800052070E+03  0.10566000000E+00 0. -1.
         -4    1    3    3    0  502 -0.20841554793E+02 -0.29221588015E+03  0.86377476258E+03  0.91210269789E+03  0.00000000000E+00 0. -1.
        -13    1    1    2    0    0 -0.40430804799E+03  0.12189100087E+03  0.17679713345E+03  0.45779870174E+03  0.10566000000E+00 0.  1.
<mgrwt>
<rscale>  1 0.84486144E+03</rscale>
<asrwt>0</asrwt>
<pdfrwt beam="1">  1       21 0.22055105E+00 0.10645833E+04</pdfrwt>
<pdfrwt beam="2">  1       -4 0.60664632E-01 0.10645833E+04</pdfrwt>
<totfact> 0.84854828E+00</totfact>
</mgrwt>
</event>
<event>
 6    2  0.2345636E-005  0.1044402E+04  0.7818608E-02  0.9604575E-01
         21   -1    0    0  501  502  0.00000000000E+00  0.00000000000E+00  0.76766269778E+03  0.76766269778E+03  0.00000000000E+00 0. -1.
         -4   -1    0    0    0  501 -0.00000000000E+00 -0.00000000000E+00 -0.62972765420E+03  0.62972765420E+03  0.00000000000E+00 0. -1.
   -9000010    2    1    2    0  502 -0.95444758664E+02 -0.29334349637E+03  0.24155426781E+03  0.10719720618E+04  0.99780535580E+03 0.  0.
         13    1    3    3    0    0  0.35317839068E+03  0.16998582819E+03  0.15399835436E+03  0.42112428300E+03  0.10566000000E+00 0. -1.
         -4    1    3    3    0  502 -0.44862314934E+03 -0.46332932456E+03  0.87555913444E+02  0.65084777875E+03  0.00000000000E+00 0. -1.
        -13    1    1    2    0    0  0.95444758664E+02  0.29334349637E+03 -0.10361922423E+03  0.32541829022E+03  0.10566000000E+00 0.  1.
<mgrwt>
<rscale>  1 0.76994138E+03</rscale>
<asrwt>0</asrwt>
<pdfrwt beam="1">  1       21 0.11810195E+00 0.10444020E+04</pdfrwt>
<pdfrwt beam="2">  1       -4 0.96881178E-01 0.10444020E+04</pdfrwt>
<totfact> 0.17937043E+01</totfact>
</mgrwt>
</event>
<event>
 6    2  0.2345636E-005  0.1044411E+04  0.7818608E-02  0.9616738E-01
         -4   -1    0    0    0  501 -0.00000000000E+00  0.00000000000E+00  0.44035312624E+03  0.44035312624E+03  0.00000000000E+00 0. -1.
         21   -1    0    0  501  502  0.00000000000E+00 -0.00000000000E+00 -0.10204272376E+04  0.10204272376E+04  0.00000000000E+00 0. -1.
   -9000010    2    1    2    0  502  0.28934184767E+03  0.62012966347E+02 -0.43818081964E+03  0.11326065834E+04  0.10016141618E+04 0.  0.
         13    1    3    3    0    0  0.12339754678E+03  0.52647383772E+02 -0.75927961415E+03  0.77104101395E+03  0.10566000000E+00 0. -1.
         -4    1    3    3    0  502  0.16594430090E+03  0.93655825747E+01  0.32109879451E+03  0.36156556940E+03  0.00000000000E+00 0. -1.
        -13    1    1    2    0    0 -0.28934184767E+03 -0.62012966347E+02 -0.14189329174E+03  0.32817378051E+03  0.10566000000E+00 0.  1.
<mgrwt>
<rscale>  1 0.76198192E+03</rscale>
<asrwt>0</asrwt>
<pdfrwt beam="2">  1       21 0.15698881E+00 0.10444114E+04</pdfrwt>
<pdfrwt beam="1">  1       -4 0.67746635E-01 0.10444114E+04</pdfrwt>
<totfact> 0.18951356E+01</totfact>
</mgrwt>
</event>
<event>
 6    2  0.2345636E-005  0.1048201E+04  0.7818608E-02  0.9593961E-01
         21   -1    0    0  501  502  0.00000000000E+00  0.00000000000E+00  0.62528333357E+03  0.62528333357E+03  0.00000000000E+00 0.  1.
         -4   -1    0    0    0  501 -0.00000000000E+00 -0.00000000000E+00 -0.75306677847E+03  0.75306677847E+03  0.00000000000E+00 0. -1.
   -9000010    2    1    2    0  502 -0.26862478925E+03  0.16725141998E+03 -0.15974365838E+03  0.10603032896E+04  0.99929610956E+03 0.  0.
         13    1    3    3    0    0 -0.30947689425E+03 -0.25918382002E+03  0.24396103008E+03  0.47166640329E+03  0.10566000000E+00 0. -1.
         -4    1    3    3    0  502  0.40852104999E+02  0.42643524000E+03 -0.40370468846E+03  0.58863688627E+03  0.00000000000E+00 0. -1.
        -13    1    1    2    0    0  0.26862478925E+03 -0.16725141998E+03  0.31960213479E+02  0.31804682249E+03  0.10566000000E+00 0.  1.
<mgrwt>
<rscale>  1 0.77697174E+03</rscale>
<asrwt>0</asrwt>
<pdfrwt beam="1">  1       21 0.96197436E-01 0.10482009E+04</pdfrwt>
<pdfrwt beam="2">  1       -4 0.11585643E+00 0.10482009E+04</pdfrwt>
<totfact> 0.19412144E+01</totfact>
</mgrwt>
</event>
<event>
 6    2  0.2345636E-005  0.1023190E+04  0.7818608E-02  0.9672957E-01
         21   -1    0    0  501  502  0.00000000000E+00  0.00000000000E+00  0.17026318463E+04  0.17026318463E+04  0.00000000000E+00 0. -1.
         -4   -1    0    0    0  501 -0.00000000000E+00 -0.00000000000E+00 -0.40239739433E+03  0.40239739433E+03  0.00000000000E+00 0. -1.
   -9000010    2    1    2    0  502  0.24023504617E+03 -0.99590067158E+02  0.14724990682E+04  0.17930898746E+04  0.98958917427E+03 0.  0.
         13    1    3    3    0    0 -0.25315290268E+03  0.21010922422E+03  0.17914237331E+03  0.37459882450E+03  0.10566000000E+00 0. -1.
         -4    1    3    3    0  502  0.49338794885E+03 -0.30969929138E+03  0.12933566949E+04  0.14184910501E+04  0.00000000000E+00 0. -1.
        -13    1    1    2    0    0 -0.24023504617E+03  0.99590067158E+02 -0.17226461623E+03  0.31193936599E+03  0.10566000000E+00 0.  1.
<mgrwt>
<rscale>  1 0.72649980E+03</rscale>
<asrwt>0</asrwt>
<pdfrwt beam="1">  1       21 0.26194336E+00 0.10231900E+04</pdfrwt>
<pdfrwt beam="2">  1       -4 0.61907292E-01 0.10231900E+04</pdfrwt>
<totfact> 0.44236836E+00</totfact>
</mgrwt>
</event>
<event>
 6    2  0.2345636E-005  0.1135699E+04  0.7818608E-02  0.9395555E-01
         21   -1    0    0  501  502  0.00000000000E+00  0.00000000000E+00  0.16834546707E+04  0.16834546707E+04  0.00000000000E+00 0.  1.
         -4   -1    0    0    0  501 -0.00000000000E+00 -0.00000000000E+00 -0.40199530892E+03  0.40199530892E+03  0.00000000000E+00 0. -1.
   -9000010    2    1    2    0  502  0.49749984252E+03 -0.32088265558E+02  0.77595100800E+03  0.13754679679E+04  0.10204295241E+04 0.  0.
         13    1    3    3    0    0  0.44614486117E+03  0.44809942873E+03  0.30931587837E+03  0.70392802114E+03  0.10566000000E+00 0. -1.
         -4    1    3    3    0  502  0.51354981356E+02 -0.48018769429E+03  0.46663512963E+03  0.67153994674E+03  0.00000000000E+00 0. -1.
        -13    1    1    2    0    0 -0.49749984252E+03  0.32088265558E+02  0.50550835383E+03  0.70998201178E+03  0.10566000000E+00 0.  1.
<mgrwt>
<rscale>  1 0.92442374E+03</rscale>
<asrwt>0</asrwt>
<pdfrwt beam="1">  1       21 0.25899302E+00 0.11356990E+04</pdfrwt>
<pdfrwt beam="2">  1       -4 0.61845433E-01 0.11356990E+04</pdfrwt>
<totfact> 0.45484716E+00</totfact>
</mgrwt>
</event>
<event>
 6    2  0.2345636E-005  0.9647142E+03  0.7818608E-02  0.1022135E+00
         21   -1    0    0  501  502  0.00000000000E+00  0.00000000000E+00  0.45865678224E+03  0.45865678224E+03  0.00000000000E+00 0. -1.
         -4   -1    0    0    0  501 -0.00000000000E+00 -0.00000000000E+00 -0.83019459689E+03  0.83019459689E+03  0.00000000000E+00 0. -1.
   -9000010    2    1    2    0  502 -0.53848050312E+02  0.40248429700E+01 -0.53429613728E+02  0.96619265766E+03  0.96320180451E+03 0.  0.
         13    1    3    3    0    0  0.27610870217E+03  0.13626529054E+03 -0.37613678196E+03  0.48608963652E+03  0.10566000000E+00 0. -1.
         -4    1    3    3    0  502 -0.32995675248E+03 -0.13224044757E+03  0.32270716823E+03  0.48010302114E+03  0.00000000000E+00 0. -1.
        -13    1    1    2    0    0  0.53848050312E+02 -0.40248429700E+01 -0.31810820092E+03  0.32265872147E+03  0.10566000000E+00 0.  1.
<mgrwt>
<rscale>  1 0.46923906E+03</rscale>
<asrwt>0</asrwt>
<pdfrwt beam="1">  1       21 0.70562582E-01 0.96471422E+03</pdfrwt>
<pdfrwt beam="2">  1       -4 0.12772225E+00 0.96471422E+03</pdfrwt>
<totfact> 0.31873339E+01</totfact>
</mgrwt>
</event>
<event>
 6    2  0.2345636E-005  0.1023949E+04  0.7818608E-02  0.9758426E-01
         -4   -1    0    0    0  501 -0.00000000000E+00  0.00000000000E+00  0.13143195669E+04  0.13143195669E+04  0.00000000000E+00 0. -1.
         21   -1    0    0  501  502  0.00000000000E+00 -0.00000000000E+00 -0.28579327743E+03  0.28579327743E+03  0.00000000000E+00 0. -1.
   -9000010    2    1    2    0  502 -0.18706567380E+03  0.55059512528E+02  0.92216744806E+03  0.13779927630E+04  0.10052094987E+04 0.  0.
         13    1    3    3    0    0  0.57052639712E+02 -0.23550286910E+03  0.96603852206E+03  0.99596538208E+03  0.10566000000E+00 0. -1.
         -4    1    3    3    0  502 -0.24411831351E+03  0.29056238162E+03 -0.43871073995E+02  0.38202738088E+03  0.00000000000E+00 0. -1.
        -13    1    1    2    0    0  0.18706567380E+03 -0.55059512528E+02  0.10635884141E+03  0.22212008136E+03  0.10566000000E+00 0.  1.
<mgrwt>
<rscale>  1 0.67642179E+03</rscale>
<asrwt>0</asrwt>
<pdfrwt beam="2">  1       21 0.43968197E-01 0.10239489E+04</pdfrwt>
<pdfrwt beam="1">  1       -4 0.20220301E+00 0.10239489E+04</pdfrwt>
<totfact> 0.25127426E+01</totfact>
</mgrwt>
</event>
<event>
 6    2  0.2345636E-005  0.9167480E+03  0.7818608E-02  0.9720647E-01
         -4   -1    0    0    0  501 -0.00000000000E+00  0.00000000000E+00  0.26353286654E+03  0.26353286654E+03  0.00000000000E+00 0. -1.
         21   -1    0    0  501  502  0.00000000000E+00 -0.00000000000E+00 -0.16361480934E+04  0.16361480934E+04  0.00000000000E+00 0. -1.
   -9000010    2    1    2    0  502  0.29593419829E+03  0.85715195090E+02 -0.12866039522E+04  0.15798027098E+04  0.86342499821E+03 0.  0.
         13    1    3    3    0    0  0.17477894325E+03 -0.33310198687E+02 -0.13762857087E+04  0.13877390286E+04  0.10566000000E+00 0. -1.
         -4    1    3    3    0  502  0.12115525504E+03  0.11902539378E+03  0.89681756470E+02  0.19206368119E+03  0.00000000000E+00 0. -1.
        -13    1    1    2    0    0 -0.29593419829E+03 -0.85715195090E+02 -0.86011274621E+02  0.31987825014E+03  0.10566000000E+00 0.  1.
<mgrwt>
<rscale>  1 0.69800666E+03</rscale>
<asrwt>0</asrwt>
<pdfrwt beam="2">  1       21 0.25171510E+00 0.91674799E+03</pdfrwt>
<pdfrwt beam="1">  1       -4 0.40543517E-01 0.91674799E+03</pdfrwt>
<totfact> 0.12770140E+01</totfact>
</mgrwt>
</event>
<event>
 6    2  0.2345636E-005  0.1142921E+04  0.7818608E-02  0.9388923E-01
         21   -1    0    0  501  502  0.00000000000E+00  0.00000000000E+00  0.97971134945E+03  0.97971134945E+03  0.00000000000E+00 0.  1.
         -4   -1    0    0    0  501 -0.00000000000E+00 -0.00000000000E+00 -0.70411318205E+03  0.70411318205E+03  0.00000000000E+00 0. -1.
   -9000010    2    1    2    0  502  0.21864326171E+03 -0.45066234366E+03  0.30226427323E+03  0.11822146071E+04  0.10273102075E+04 0.  0.
         13    1    3    3    0    0  0.46440049851E+03 -0.11586375507E+03 -0.21005608898E+03  0.52270049210E+03  0.10566000000E+00 0. -1.
         -4    1    3    3    0  502 -0.24575723680E+03 -0.33479858860E+03  0.51232036220E+03  0.65951411501E+03  0.00000000000E+00 0. -1.
        -13    1    1    2    0    0 -0.21864326171E+03  0.45066234366E+03 -0.26666105818E+02  0.50160992440E+03  0.10566000000E+00 0.  1.
<mgrwt>
<rscale>  1 0.92992937E+03</rscale>
<asrwt>0</asrwt>
<pdfrwt beam="1">  1       21 0.15072482E+00 0.11429207E+04</pdfrwt>
<pdfrwt beam="2">  1       -4 0.10832510E+00 0.11429207E+04</pdfrwt>
<totfact> 0.70217567E+00</totfact>
</mgrwt>
</event>
<event>
 6    2  0.2345636E-005  0.1033468E+04  0.7818608E-02  0.9704551E-01
         21   -1    0    0  501  502  0.00000000000E+00  0.00000000000E+00  0.35871193623E+03  0.35871193623E+03  0.00000000000E+00 0. -1.
         -4   -1    0    0    0  501 -0.00000000000E+00 -0.00000000000E+00 -0.13864633067E+04  0.13864633067E+04  0.00000000000E+00 0. -1.
   -9000010    2    1    2    0  502 -0.18611328506E+03  0.12987634838E+03 -0.45518157609E+03  0.11292676189E+04  0.10082405800E+04 0.  0.
         13    1    3    3    0    0 -0.39309715789E+03 -0.24524676132E+03  0.50981765220E+02  0.46612283899E+03  0.10566000000E+00 0. -1.
         -4    1    3    3    0  502  0.20698387282E+03  0.37512310970E+03 -0.50616334131E+03  0.66314477991E+03  0.00000000000E+00 0. -1.
        -13    1    1    2    0    0  0.18611328506E+03 -0.12987634838E+03 -0.57256979436E+03  0.61590762402E+03  0.10566000000E+00 0.  1.
<mgrwt>
<rscale>  1 0.70746487E+03</rscale>
<asrwt>0</asrwt>
<pdfrwt beam="1">  1       21 0.55186451E-01 0.10334675E+04</pdfrwt>
<pdfrwt beam="2">  1       -4 0.21330205E+00 0.10334675E+04</pdfrwt>
<totfact> 0.13010099E+01</totfact>
</mgrwt>
</event>
<event>
 6    2  0.2345636E-005  0.1159662E+04  0.7818608E-02  0.9317738E-01
         21   -1    0    0  501  502  0.00000000000E+00  0.00000000000E+00  0.70729581722E+03  0.70729581722E+03  0.00000000000E+00 0.  1.
         -4   -1    0    0    0  501 -0.00000000000E+00 -0.00000000000E+00 -0.11216422281E+04  0.11216422281E+04  0.00000000000E+00 0. -1.
   -9000010    2    1    2    0  502 -0.17524655233E+03  0.59481641474E+03 -0.23262599404E+03  0.11827645064E+04  0.97994852067E+03 0.  0.
         13    1    3    3    0    0 -0.24380382120E+03  0.49799942140E+02 -0.50994577226E+03  0.56741963244E+03  0.10566000000E+00 0. -1.
         -4    1    3    3    0  502  0.68557268878E+02  0.54501647260E+03  0.27731977822E+03  0.61534487396E+03  0.00000000000E+00 0. -1.
        -13    1    1    2    0    0  0.17524655233E+03 -0.59481641474E+03 -0.18172041685E+03  0.64617353893E+03  0.10566000000E+00 0.  1.
<mgrwt>
<rscale>  1 0.99166109E+03</rscale>
<asrwt>0</asrwt>
<pdfrwt beam="1">  1       21 0.10881474E+00 0.11596625E+04</pdfrwt>
<pdfrwt beam="2">  1       -4 0.17256034E+00 0.11596625E+04</pdfrwt>
<totfact> 0.49050260E+00</totfact>
</mgrwt>
</event>
<event>
 6    2  0.2345636E-005  0.9704942E+03  0.7818608E-02  0.9764639E-01
         -4   -1    0    0    0  501 -0.00000000000E+00  0.00000000000E+00  0.16216018431E+04  0.16216018431E+04  0.00000000000E+00 0. -1.
         21   -1    0    0  501  502  0.00000000000E+00 -0.00000000000E+00 -0.49689273546E+03  0.49689273546E+03  0.00000000000E+00 0. -1.
   -9000010    2    1    2    0  502  0.22434863468E+03  0.28679844244E+01 -0.11517695161E+01  0.97049490039E+03  0.94420256825E+03 0.  0.
         13    1    3    3    0    0  0.10651947196E+03  0.34236386137E+03  0.32594354223E+03  0.48456022883E+03  0.10566000000E+00 0. -1.
         -4    1    3    3    0  502  0.11782916272E+03 -0.33949587695E+03 -0.32709531175E+03  0.48593467156E+03  0.00000000000E+00 0. -1.
        -13    1    1    2    0    0 -0.22434863468E+03 -0.28679844244E+01  0.11258608772E+04  0.11479996782E+04  0.10566000000E+00 0.  1.
<mgrwt>
<rscale>  1 0.67295257E+03</rscale>
<asrwt>0</asrwt>
<pdfrwt beam="2">  1       21 0.76445037E-01 0.97049422E+03</pdfrwt>
<pdfrwt beam="1">  1       -4 0.24947721E+00 0.97049422E+03</pdfrwt>
<totfact> 0.37145595E+00</totfact>
</mgrwt>
</event>
<event>
 6    2  0.2345636E-005  0.1018264E+04  0.7818608E-02  0.9764261E-01
         21   -1    0    0  501  502  0.00000000000E+00  0.00000000000E+00  0.12162022610E+04  0.12162022610E+04  0.00000000000E+00 0. -1.
         -4   -1    0    0    0  501 -0.00000000000E+00 -0.00000000000E+00 -0.34680094928E+03  0.34680094928E+03  0.00000000000E+00 0. -1.
   -9000010    2    1    2    0  502  0.18075409604E+03  0.71795969155E+02  0.90848218051E+03  0.13646247087E+04  0.99951689270E+03 0.  0.
         13    1    3    3    0    0  0.42575202149E+03  0.21944601372E+03  0.76765099493E+02  0.48509197933E+03  0.10566000000E+00 0. -1.
         -4    1    3    3    0  502 -0.24499792546E+03 -0.14765004457E+03  0.83171708101E+03  0.87953272934E+03  0.00000000000E+00 0. -1.
        -13    1    1    2    0    0 -0.18075409604E+03 -0.71795969155E+02 -0.39080868800E+02  0.19837850159E+03  0.10566000000E+00 0.  1.
<mgrwt>
<rscale>  1 0.67316261E+03</rscale>
<asrwt>0</asrwt>
<pdfrwt beam="1">  1       21 0.18710804E+00 0.10182636E+04</pdfrwt>
<pdfrwt beam="2">  1       -4 0.53353993E-01 0.10182636E+04</pdfrwt>
<totfact> 0.19072393E+01</totfact>
</mgrwt>
</event>
<event>
 6    2  0.2345636E-005  0.1112798E+04  0.7818608E-02  0.9427349E-01
         21   -1    0    0  501  502  0.00000000000E+00  0.00000000000E+00  0.39739082513E+04  0.39739082513E+04  0.00000000000E+00 0. -1.
         -4   -1    0    0    0  501 -0.00000000000E+00 -0.00000000000E+00 -0.15868731890E+03  0.15868731890E+03  0.00000000000E+00 0. -1.
   -9000010    2    1    2    0  502  0.94984739449E+02  0.46351117782E+03  0.27760302955E+04  0.29907628751E+04  0.10072009038E+04 0.  0.
         13    1    3    3    0    0 -0.18843554817E+03  0.57014006094E+03  0.25309238514E+04  0.26011811159E+04  0.10566000000E+00 0. -1.
         -4    1    3    3    0  502  0.28342028762E+03 -0.10662888312E+03  0.24510644412E+03  0.38958175920E+03  0.00000000000E+00 0. -1.
        -13    1    1    2    0    0 -0.94984739449E+02 -0.46351117782E+03  0.10391906368E+04  0.11418326951E+04  0.10566000000E+00 0.  1.
<mgrwt>
<rscale>  1 0.89858740E+03</rscale>
<asrwt>0</asrwt>
<pdfrwt beam="1">  1       21 0.61137043E+00 0.11127975E+04</pdfrwt>
<pdfrwt beam="2">  1       -4 0.24413437E-01 0.11127975E+04</pdfrwt>
<totfact> 0.11426825E-01</totfact>
</mgrwt>
</event>
<event>
 6    2  0.2345636E-005  0.1025116E+04  0.7818608E-02  0.9743285E-01
         -4   -1    0    0    0  501 -0.00000000000E+00  0.00000000000E+00  0.22968554531E+04  0.22968554531E+04  0.00000000000E+00 0. -1.
         21   -1    0    0  501  502  0.00000000000E+00 -0.00000000000E+00 -0.16564933884E+03  0.16564933884E+03  0.00000000000E+00 0. -1.
   -9000010    2    1    2    0  502  0.10431696938E+02  0.20408113584E+03  0.18478189569E+04  0.21131250238E+04  0.10045419544E+04 0.  0.
         13    1    3    3    0    0  0.95586389167E+01 -0.36139794904E+03  0.11997269631E+04  0.12530142227E+04  0.10566000000E+00 0. -1.
         -4    1    3    3    0  502  0.87305802143E+00  0.56547908488E+03  0.64809199388E+03  0.86011080112E+03  0.00000000000E+00 0. -1.
        -13    1    1    2    0    0 -0.10431696938E+02 -0.20408113584E+03  0.28338715734E+03  0.34937976818E+03  0.10566000000E+00 0.  1.
<mgrwt>
<rscale>  1 0.68497094E+03</rscale>
<asrwt>0</asrwt>
<pdfrwt beam="2">  1       21 0.25484515E-01 0.10251158E+04</pdfrwt>
<pdfrwt beam="1">  1       -4 0.35336236E+00 0.10251158E+04</pdfrwt>
<totfact> 0.86196973E+00</totfact>
</mgrwt>
</event>
<event>
 6    2  0.2345636E-005  0.1032637E+04  0.7818608E-02  0.9660353E-01
         -4   -1    0    0    0  501 -0.00000000000E+00  0.00000000000E+00  0.30609006481E+03  0.30609006481E+03  0.00000000000E+00 0. -1.
         21   -1    0    0  501  502  0.00000000000E+00 -0.00000000000E+00 -0.13978205661E+04  0.13978205661E+04  0.00000000000E+00 0.  1.
   -9000010    2    1    2    0  502  0.26122830617E+03  0.38075197536E+02 -0.95532283591E+03  0.14067625013E+04  0.99832312685E+03 0.  0.
         13    1    3    3    0    0  0.13533021451E+03 -0.41692660622E+03 -0.79562664951E+03  0.90838529188E+03  0.10566000000E+00 0. -1.
         -4    1    3    3    0  502  0.12589809166E+03  0.45500180375E+03 -0.15969618640E+03  0.49837720940E+03  0.00000000000E+00 0. -1.
        -13    1    1    2    0    0 -0.26122830617E+03 -0.38075197536E+02 -0.13640766540E+03  0.29714812965E+03  0.10566000000E+00 0.  1.
<mgrwt>
<rscale>  1 0.73427208E+03</rscale>
<asrwt>0</asrwt>
<pdfrwt beam="2">  1       21 0.21504932E+00 0.10326369E+04</pdfrwt>
<pdfrwt beam="1">  1       -4 0.47090780E-01 0.10326369E+04</pdfrwt>
<totfact> 0.15926029E+01</totfact>
</mgrwt>
</event>
<event>
 6    2  0.2345636E-005  0.1043726E+04  0.7818608E-02  0.9696012E-01
         21   -1    0    0  501  502  0.00000000000E+00  0.00000000000E+00  0.70187487296E+03  0.70187487296E+03  0.00000000000E+00 0. -1.
         -4   -1    0    0    0  501 -0.00000000000E+00 -0.00000000000E+00 -0.94686463370E+03  0.94686463370E+03  0.00000000000E+00 0. -1.
   -9000010    2    1    2    0  502 -0.13640310943E+03 -0.18110041943E+03  0.27681232355E+03  0.10798101644E+04  0.10188040825E+04 0.  0.
         13    1    3    3    0    0  0.37113831628E+03 -0.32988923436E+03  0.33672759387E+02  0.49769912864E+03  0.10566000000E+00 0. -1.
         -4    1    3    3    0  502 -0.50754142571E+03  0.14878881493E+03  0.24313956416E+03  0.58211103573E+03  0.00000000000E+00 0. -1.
        -13    1    1    2    0    0  0.13640310943E+03  0.18110041943E+03 -0.52180208429E+03  0.56892934229E+03  0.10566000000E+00 0.  1.
<mgrwt>
<rscale>  1 0.71254742E+03</rscale>
<asrwt>0</asrwt>
<pdfrwt beam="1">  1       21 0.10798075E+00 0.10437265E+04</pdfrwt>
<pdfrwt beam="2">  1       -4 0.14567148E+00 0.10437265E+04</pdfrwt>
<totfact> 0.80727528E+00</totfact>
</mgrwt>
</event>
<event>
 6    2  0.2345636E-005  0.1042802E+04  0.7818608E-02  0.9634949E-01
         21   -1    0    0  501  502  0.00000000000E+00  0.00000000000E+00  0.14295644582E+04  0.14295644582E+04  0.00000000000E+00 0. -1.
         -4   -1    0    0    0  501 -0.00000000000E+00 -0.00000000000E+00 -0.31036635034E+03  0.31036635034E+03  0.00000000000E+00 0. -1.
   -9000010    2    1    2    0  502  0.26093141247E+03  0.99906069231E+02  0.96502729562E+03  0.14208147243E+04  0.10046742631E+04 0.  0.
         13    1    3    3    0    0  0.35956600005E+02  0.20345425205E+03  0.11132015265E+04  0.11322120648E+04  0.10566000000E+00 0. -1.
         -4    1    3    3    0  502  0.22497481247E+03 -0.10354818282E+03 -0.14817423090E+03  0.28860265957E+03  0.00000000000E+00 0. -1.
        -13    1    1    2    0    0 -0.26093141247E+03 -0.99906069231E+02  0.15417081222E+03  0.31911608419E+03  0.10566000000E+00 0.  1.
<mgrwt>
<rscale>  1 0.75025613E+03</rscale>
<asrwt>0</asrwt>
<pdfrwt beam="1">  1       21 0.21993299E+00 0.10428024E+04</pdfrwt>
<pdfrwt beam="2">  1       -4 0.47748670E-01 0.10428024E+04</pdfrwt>
<totfact> 0.14336447E+01</totfact>
</mgrwt>
</event>
<event>
 6    2  0.2345636E-005  0.9988562E+03  0.7818608E-02  0.9790443E-01
         21   -1    0    0  501  502  0.00000000000E+00  0.00000000000E+00  0.18920697884E+04  0.18920697884E+04  0.00000000000E+00 0. -1.
         -4   -1    0    0    0  501 -0.00000000000E+00 -0.00000000000E+00 -0.18753002331E+03  0.18753002331E+03  0.00000000000E+00 0. -1.
   -9000010    2    1    2    0  502  0.86589838008E+02 -0.16799254349E+03  0.13716674239E+04  0.16968161895E+04  0.98081311396E+03 0.  0.
         13    1    3    3    0    0  0.52105614414E+02  0.19140017389E+03 -0.70209333000E+02  0.21042429333E+03  0.10566000000E+00 0. -1.
         -4    1    3    3    0  502  0.34484223595E+02 -0.35939271739E+03  0.14418767569E+04  0.14863918962E+04  0.00000000000E+00 0. -1.
        -13    1    1    2    0    0 -0.86589838008E+02  0.16799254349E+03  0.33287234126E+03  0.38278362224E+03  0.10566000000E+00 0.  1.
<mgrwt>
<rscale>  1 0.65877961E+03</rscale>
<asrwt>0</asrwt>
<pdfrwt beam="1">  1       21 0.29108765E+00 0.99885618E+03</pdfrwt>
<pdfrwt beam="2">  1       -4 0.28850774E-01 0.99885618E+03</pdfrwt>
<totfact> 0.14076384E+01</totfact>
</mgrwt>
</event>
<event>
 6    2  0.2345636E-005  0.8573630E+03  0.7818608E-02  0.9765880E-01
         -4   -1    0    0    0  501 -0.00000000000E+00  0.00000000000E+00  0.10141648164E+04  0.10141648164E+04  0.00000000000E+00 0. -1.
         21   -1    0    0  501  502  0.00000000000E+00 -0.00000000000E+00 -0.36737087988E+03  0.36737087988E+03  0.00000000000E+00 0. -1.
   -9000010    2    1    2    0  502 -0.18032416392E+02  0.32358400203E+03  0.30366523647E+03  0.90955149064E+03  0.79375031583E+03 0.  0.
         13    1    3    3    0    0  0.26391907246E+02  0.41141231853E+02 -0.26690971586E+03  0.27134837628E+03  0.10566000000E+00 0. -1.
         -4    1    3    3    0  502 -0.44424323638E+02  0.28244277018E+03  0.57057495233E+03  0.63820311436E+03  0.00000000000E+00 0. -1.
        -13    1    1    2    0    0  0.18032416392E+02 -0.32358400203E+03  0.34312870003E+03  0.47198420563E+03  0.10566000000E+00 0.  1.
<mgrwt>
<rscale>  1 0.67226214E+03</rscale>
<asrwt>0</asrwt>
<pdfrwt beam="2">  1       21 0.56518597E-01 0.85736301E+03</pdfrwt>
<pdfrwt beam="1">  1       -4 0.15602536E+00 0.85736301E+03</pdfrwt>
<totfact> 0.31318014E+01</totfact>
</mgrwt>
</event>
<event>
 6    2  0.2345636E-005  0.1031147E+04  0.7818608E-02  0.9697166E-01
         -4   -1    0    0    0  501 -0.00000000000E+00  0.00000000000E+00  0.47005845663E+03  0.47005845663E+03  0.00000000000E+00 0. -1.
         21   -1    0    0  501  502  0.00000000000E+00 -0.00000000000E+00 -0.92400871562E+03  0.92400871562E+03  0.00000000000E+00 0. -1.
   -9000010    2    1    2    0  502 -0.52102021472E+02 -0.22834436998E+03 -0.51417785671E+03  0.11522342824E+04  0.10041957982E+04 0.  0.
         13    1    3    3    0    0  0.40905300945E+03 -0.31591665583E+03 -0.43639304906E+03  0.67643669504E+03  0.10566000000E+00 0. -1.
         -4    1    3    3    0  502 -0.46115503092E+03  0.87572285843E+02 -0.77784807653E+02  0.47579758732E+03  0.00000000000E+00 0. -1.
        -13    1    1    2    0    0  0.52102021472E+02  0.22834436998E+03  0.60227597724E+02  0.24183288990E+03  0.10566000000E+00 0.  1.
<mgrwt>
<rscale>  1 0.71185800E+03</rscale>
<asrwt>0</asrwt>
<pdfrwt beam="2">  1       21 0.14215519E+00 0.10311474E+04</pdfrwt>
<pdfrwt beam="1">  1       -4 0.72316686E-01 0.10311474E+04</pdfrwt>
<totfact> 0.21620228E+01</totfact>
</mgrwt>
</event>
<event>
 6    2  0.2345636E-005  0.1009724E+04  0.7818608E-02  0.9696421E-01
         -4   -1    0    0    0  501 -0.00000000000E+00  0.00000000000E+00  0.11240111040E+04  0.11240111040E+04  0.00000000000E+00 0. -1.
         21   -1    0    0  501  502  0.00000000000E+00 -0.00000000000E+00 -0.37390822110E+03  0.37390822110E+03  0.00000000000E+00 0. -1.
   -9000010    2    1    2    0  502 -0.24127895614E+03 -0.65700116990E+02  0.44500459137E+03  0.11034360952E+04  0.97826892505E+03 0.  0.
         13    1    3    3    0    0  0.23063444779E+03 -0.12975002436E+03  0.55482154393E+03  0.61469852294E+03  0.10566000000E+00 0. -1.
         -4    1    3    3    0  502 -0.47191340392E+03  0.64049907369E+02 -0.10981695256E+03  0.48873757223E+03  0.00000000000E+00 0. -1.
        -13    1    1    2    0    0  0.24127895614E+03  0.65700116990E+02  0.30509829157E+03  0.39448322998E+03  0.10566000000E+00 0.  1.
<mgrwt>
<rscale>  1 0.71230300E+03</rscale>
<asrwt>0</asrwt>
<pdfrwt beam="2">  1       21 0.57524342E-01 0.10097238E+04</pdfrwt>
<pdfrwt beam="1">  1       -4 0.17292478E+00 0.10097238E+04</pdfrwt>
<totfact> 0.22298465E+01</totfact>
</mgrwt>
</event>
<event>
 6    2  0.2345636E-005  0.1077211E+04  0.7818608E-02  0.9511648E-01
         -4   -1    0    0    0  501 -0.00000000000E+00  0.00000000000E+00  0.88234881032E+03  0.88234881032E+03  0.00000000000E+00 0. -1.
         21   -1    0    0  501  502  0.00000000000E+00 -0.00000000000E+00 -0.77440978522E+03  0.77440978522E+03  0.00000000000E+00 0. -1.
   -9000010    2    1    2    0  502 -0.28545932664E+03 -0.26221328955E+03 -0.27513475312E+03  0.11117922047E+04  0.10050571813E+04 0.  0.
         13    1    3    3    0    0  0.22834874693E+03 -0.42621286608E+03 -0.30488603682E+03  0.57162580772E+03  0.10566000000E+00 0. -1.
         -4    1    3    3    0  502 -0.51380807358E+03  0.16399957653E+03  0.29751283705E+02  0.54016639701E+03  0.00000000000E+00 0. -1.
        -13    1    1    2    0    0  0.28545932664E+03  0.26221328955E+03  0.38307377822E+03  0.54496639081E+03  0.10566000000E+00 0.  1.
<mgrwt>
<rscale>  1 0.83430473E+03</rscale>
<asrwt>0</asrwt>
<pdfrwt beam="2">  1       21 0.11913997E+00 0.10772106E+04</pdfrwt>
<pdfrwt beam="1">  1       -4 0.13574597E+00 0.10772106E+04</pdfrwt>
<totfact> 0.75363614E+00</totfact>
</mgrwt>
</event>
<event>
 6    2  0.2345636E-005  0.1050727E+04  0.7818608E-02  0.9593814E-01
         21   -1    0    0  501  502  0.00000000000E+00  0.00000000000E+00  0.37152504579E+04  0.37152504579E+04  0.00000000000E+00 0. -1.
         -4   -1    0    0    0  501 -0.00000000000E+00 -0.00000000000E+00 -0.12592233046E+03  0.12592233046E+03  0.00000000000E+00 0. -1.
   -9000010    2    1    2    0  502 -0.24825086026E+03 -0.19278845294E+03  0.26530016631E+04  0.28534971654E+04  0.10026127724E+04 0.  0.
         13    1    3    3    0    0 -0.50396709960E+02 -0.34083289416E+03  0.22177607394E+03  0.40974568729E+03  0.10566000000E+00 0. -1.
         -4    1    3    3    0  502 -0.19785415030E+03  0.14804444122E+03  0.24312255892E+04  0.24437514781E+04  0.00000000000E+00 0. -1.
        -13    1    1    2    0    0  0.24825086026E+03  0.19278845294E+03  0.93632646428E+03  0.98767562290E+03  0.10566000000E+00 0.  1.
<mgrwt>
<rscale>  1 0.77706971E+03</rscale>
<asrwt>0</asrwt>
<pdfrwt beam="1">  1       21 0.57157691E+00 0.10507275E+04</pdfrwt>
<pdfrwt beam="2">  1       -4 0.19372669E-01 0.10507275E+04</pdfrwt>
<totfact> 0.36637596E-01</totfact>
</mgrwt>
</event>
<event>
 6    2  0.2345636E-005  0.1009676E+04  0.7818608E-02  0.1003412E+00
         21   -1    0    0  501  502  0.00000000000E+00  0.00000000000E+00  0.81797823900E+03  0.81797823900E+03  0.00000000000E+00 0. -1.
         -4   -1    0    0    0  501 -0.00000000000E+00 -0.00000000000E+00 -0.50040654859E+03  0.50040654859E+03  0.00000000000E+00 0. -1.
   -9000010    2    1    2    0  502 -0.81120268451E+02  0.20665420614E+02  0.49329789770E+03  0.11237382653E+04  0.10061994412E+04 0.  0.
         13    1    3    3    0    0  0.22755369146E+03  0.39587195831E+03  0.44145543976E+03  0.63512062345E+03  0.10566000000E+00 0. -1.
         -4    1    3    3    0  502 -0.30867395991E+03 -0.37520653769E+03  0.51842457934E+02  0.48861764182E+03  0.00000000000E+00 0. -1.
        -13    1    1    2    0    0  0.81120268451E+02 -0.20665420614E+02 -0.17572620728E+03  0.19464652232E+03  0.10566000000E+00 0.  1.
<mgrwt>
<rscale>  1 0.54179167E+03</rscale>
<asrwt>0</asrwt>
<pdfrwt beam="1">  1       21 0.12584281E+00 0.10096756E+04</pdfrwt>
<pdfrwt beam="2">  1       -4 0.76985623E-01 0.10096756E+04</pdfrwt>
<totfact> 0.26073809E+01</totfact>
</mgrwt>
</event>
<event>
 6    2  0.2345636E-005  0.1001234E+04  0.7818608E-02  0.9543142E-01
         21   -1    0    0  501  502  0.00000000000E+00  0.00000000000E+00  0.93674511738E+03  0.93674511738E+03  0.00000000000E+00 0. -1.
         -4   -1    0    0    0  501 -0.00000000000E+00 -0.00000000000E+00 -0.59580378747E+03  0.59580378747E+03  0.00000000000E+00 0. -1.
   -9000010    2    1    2    0  502  0.43255441679E+03 -0.80024370628E+01  0.43197649769E+03  0.10904462297E+04  0.90294070832E+03 0.  0.
         13    1    3    3    0    0 -0.27242028991E+03 -0.35267786715E+02  0.24642632273E+02  0.27579684846E+03  0.10566000000E+00 0. -1.
         -4    1    3    3    0  502  0.70497470669E+03  0.27265349652E+02  0.40733386542E+03  0.81464938120E+03  0.00000000000E+00 0. -1.
        -13    1    1    2    0    0 -0.43255441679E+03  0.80024370628E+01 -0.91035167780E+02  0.44210267520E+03  0.10566000000E+00 0.  1.
<mgrwt>
<rscale>  1 0.81176519E+03</rscale>
<asrwt>0</asrwt>
<pdfrwt beam="1">  1       21 0.14411463E+00 0.10012339E+04</pdfrwt>
<pdfrwt beam="2">  1       -4 0.91662122E-01 0.10012339E+04</pdfrwt>
<totfact> 0.12091757E+01</totfact>
</mgrwt>
</event>
<event>
 6    2  0.2345636E-005  0.1076499E+04  0.7818608E-02  0.9526836E-01
         21   -1    0    0  501  502  0.00000000000E+00  0.00000000000E+00  0.39080298956E+03  0.39080298956E+03  0.00000000000E+00 0. -1.
         -4   -1    0    0    0  501 -0.00000000000E+00 -0.00000000000E+00 -0.13557211002E+04  0.13557211002E+04  0.00000000000E+00 0. -1.
   -9000010    2    1    2    0  502  0.16146502661E+03 -0.33108737937E+03 -0.62213109761E+03  0.12433414638E+04  0.10115142537E+04 0.  0.
         13    1    3    3    0    0 -0.20969111093E+03 -0.58728777994E+03 -0.32436260034E+03  0.70291422388E+03  0.10566000000E+00 0. -1.
         -4    1    3    3    0  502  0.37115613754E+03  0.25620040058E+03 -0.29776849727E+03  0.54042723993E+03  0.00000000000E+00 0. -1.
        -13    1    1    2    0    0 -0.16146502661E+03  0.33108737937E+03 -0.34278701303E+03  0.50318262595E+03  0.10566000000E+00 0.  1.
<mgrwt>
<rscale>  1 0.82333910E+03</rscale>
<asrwt>0</asrwt>
<pdfrwt beam="1">  1       21 0.60123536E-01 0.10764994E+04</pdfrwt>
<pdfrwt beam="2">  1       -4 0.20857248E+00 0.10764994E+04</pdfrwt>
<totfact> 0.11495333E+01</totfact>
</mgrwt>
</event>
<event>
 6    2  0.2345636E-005  0.1006667E+04  0.7818608E-02  0.9878398E-01
         21   -1    0    0  501  502  0.00000000000E+00  0.00000000000E+00  0.18596341307E+03  0.18596341307E+03  0.00000000000E+00 0. -1.
         -4   -1    0    0    0  501 -0.00000000000E+00 -0.00000000000E+00 -0.20136101127E+04  0.20136101127E+04  0.00000000000E+00 0. -1.
   -9000010    2    1    2    0  502  0.13376745382E+03  0.36256333251E+02 -0.12470172645E+04  0.16026323180E+04  0.99708075670E+03 0.  0.
         13    1    3    3    0    0 -0.35538369334E+03 -0.24951487784E+03 -0.62813298364E+03  0.76361397319E+03  0.10566000000E+00 0. -1.
         -4    1    3    3    0  502  0.48915114716E+03  0.28577121109E+03 -0.61888428084E+03  0.83901834481E+03  0.00000000000E+00 0. -1.
        -13    1    1    2    0    0 -0.13376745382E+03 -0.36256333251E+02 -0.58062943514E+03  0.59694120776E+03  0.10566000000E+00 0.  1.
<mgrwt>
<rscale>  1 0.61319748E+03</rscale>
<asrwt>0</asrwt>
<pdfrwt beam="1">  1       21 0.28609757E-01 0.10066669E+04</pdfrwt>
<pdfrwt beam="2">  1       -4 0.30978616E+00 0.10066669E+04</pdfrwt>
<totfact> 0.12976982E+01</totfact>
</mgrwt>
</event>
<event>
 6    2  0.2345636E-005  0.9926425E+03  0.7818608E-02  0.1002389E+00
         -4   -1    0    0    0  501 -0.00000000000E+00  0.00000000000E+00  0.13092225271E+03  0.13092225271E+03  0.00000000000E+00 0. -1.
         21   -1    0    0  501  502  0.00000000000E+00 -0.00000000000E+00 -0.22534847290E+04  0.22534847290E+04  0.00000000000E+00 0. -1.
   -9000010    2    1    2    0  502  0.73790106763E+02 -0.53191016571E+02 -0.19870629494E+04  0.22212065006E+04  0.98846592713E+03 0.  0.
         13    1    3    3    0    0 -0.33737129457E+03 -0.33369897677E+03 -0.74692834711E+03  0.88491602109E+03  0.10566000000E+00 0. -1.
         -4    1    3    3    0  502  0.41116140134E+03  0.28050796020E+03 -0.12401346023E+04  0.13362904795E+04  0.00000000000E+00 0. -1.
        -13    1    1    2    0    0 -0.73790106763E+02  0.53191016571E+02 -0.13549952690E+03  0.16320048117E+03  0.10566000000E+00 0.  1.
<mgrwt>
<rscale>  1 0.54614869E+03</rscale>
<asrwt>0</asrwt>
<pdfrwt beam="2">  1       21 0.34668993E+00 0.99264251E+03</pdfrwt>
<pdfrwt beam="1">  1       -4 0.20141887E-01 0.99264251E+03</pdfrwt>
<totfact> 0.12565349E+01</totfact>
</mgrwt>
</event>
<event>
 6    2  0.2345636E-005  0.1076467E+04  0.7818608E-02  0.9564317E-01
         21   -1    0    0  501  502  0.00000000000E+00  0.00000000000E+00  0.62681409218E+03  0.62681409218E+03  0.00000000000E+00 0. -1.
         -4   -1    0    0    0  501 -0.00000000000E+00 -0.00000000000E+00 -0.80148706719E+03  0.80148706719E+03  0.00000000000E+00 0. -1.
   -9000010    2    1    2    0  502 -0.73161294320E+02  0.31514629399E+03 -0.38133349616E+02  0.10771418763E+04  0.10266989373E+04 0.  0.
         13    1    3    3    0    0 -0.33014154259E+03  0.38598356460E+03  0.34238865668E+03  0.61254122610E+03  0.10566000000E+00 0. -1.
         -4    1    3    3    0  502  0.25698024827E+03 -0.70837270609E+02 -0.38052200630E+03  0.46460065022E+03  0.00000000000E+00 0. -1.
        -13    1    1    2    0    0  0.73161294320E+02 -0.31514629399E+03 -0.13653962539E+03  0.35115928305E+03  0.10566000000E+00 0.  1.
<mgrwt>
<rscale>  1 0.79703629E+03</rscale>
<asrwt>0</asrwt>
<pdfrwt beam="1">  1       21 0.96432938E-01 0.10764667E+04</pdfrwt>
<pdfrwt beam="2">  1       -4 0.12330570E+00 0.10764667E+04</pdfrwt>
<totfact> 0.16451212E+01</totfact>
</mgrwt>
</event>
<event>
 6    2  0.2345636E-005  0.9979085E+03  0.7818608E-02  0.1007058E+00
         21   -1    0    0  501  502  0.00000000000E+00  0.00000000000E+00  0.83105799043E+03  0.83105799043E+03  0.00000000000E+00 0. -1.
         -4   -1    0    0    0  501 -0.00000000000E+00 -0.00000000000E+00 -0.50817158159E+03  0.50817158159E+03  0.00000000000E+00 0. -1.
   -9000010    2    1    2    0  502 -0.43746821974E+02 -0.63837286141E+02  0.52158067613E+03  0.11259963510E+04  0.99490320994E+03 0.  0.
         13    1    3    3    0    0 -0.39314221011E+03  0.18907825451E+03 -0.16278152617E+02  0.43655053902E+03  0.10566000000E+00 0. -1.
         -4    1    3    3    0  502  0.34939538814E+03 -0.25291554065E+03  0.53785882875E+03  0.68944581195E+03  0.00000000000E+00 0. -1.
        -13    1    1    2    0    0  0.43746821974E+02  0.63837286141E+02 -0.19869426729E+03  0.21323322104E+03  0.10566000000E+00 0.  1.
<mgrwt>
<rscale>  1 0.52660780E+03</rscale>
<asrwt>0</asrwt>
<pdfrwt beam="1">  1       21 0.12785508E+00 0.99790850E+03</pdfrwt>
<pdfrwt beam="2">  1       -4 0.78180243E-01 0.99790850E+03</pdfrwt>
<totfact> 0.24168855E+01</totfact>
</mgrwt>
</event>
<event>
 6    2  0.2345636E-005  0.9948210E+03  0.7818608E-02  0.9822123E-01
         -4   -1    0    0    0  501 -0.00000000000E+00  0.00000000000E+00  0.55551840882E+03  0.55551840882E+03  0.00000000000E+00 0. -1.
         21   -1    0    0  501  502  0.00000000000E+00 -0.00000000000E+00 -0.93538980856E+03  0.93538980856E+03  0.00000000000E+00 0. -1.
   -9000010    2    1    2    0  502 -0.10877796594E+02  0.17208136024E+03 -0.63702377133E+03  0.11812993119E+04  0.97976449107E+03 0.  0.
         13    1    3    3    0    0  0.22901045622E+03 -0.30005351349E+03 -0.51383636850E+03  0.63757801466E+03  0.10566000000E+00 0. -1.
         -4    1    3    3    0  502 -0.23988825281E+03  0.47213487372E+03 -0.12318740282E+03  0.54372129721E+03  0.00000000000E+00 0. -1.
        -13    1    1    2    0    0  0.10877796594E+02 -0.17208136024E+03  0.25715237159E+03  0.30960890552E+03  0.10566000000E+00 0.  1.
<mgrwt>
<rscale>  1 0.64188713E+03</rscale>
<asrwt>0</asrwt>
<pdfrwt beam="2">  1       21 0.14390612E+00 0.99482098E+03</pdfrwt>
<pdfrwt beam="1">  1       -4 0.85464371E-01 0.99482098E+03</pdfrwt>
<totfact> 0.14315959E+01</totfact>
</mgrwt>
</event>
<event>
 6    2  0.2345636E-005  0.9791503E+03  0.7818608E-02  0.1005078E+00
         21   -1    0    0  501  502  0.00000000000E+00  0.00000000000E+00  0.20349320900E+04  0.20349320900E+04  0.00000000000E+00 0. -1.
         -4   -1    0    0    0  501 -0.00000000000E+00 -0.00000000000E+00 -0.15000896654E+03  0.15000896654E+03  0.00000000000E+00 0. -1.
   -9000010    2    1    2    0  502  0.86372436611E+02  0.11466844780E+02  0.18458028854E+04  0.20894314208E+04  0.97526595550E+03 0.  0.
         13    1    3    3    0    0 -0.13745522856E+03 -0.38637637025E+03  0.13700002117E+04  0.14300633659E+04  0.10566000000E+00 0. -1.
         -4    1    3    3    0  502  0.22382766517E+03  0.39784321503E+03  0.47580267374E+03  0.65936805486E+03  0.00000000000E+00 0. -1.
        -13    1    1    2    0    0 -0.86372436611E+02 -0.11466844780E+02  0.39120238040E+02  0.95509635763E+02  0.10566000000E+00 0.  1.
<mgrwt>
<rscale>  1 0.53478522E+03</rscale>
<asrwt>0</asrwt>
<pdfrwt beam="1">  1       21 0.31306645E+00 0.97915033E+03</pdfrwt>
<pdfrwt beam="2">  1       -4 0.23078304E-01 0.97915033E+03</pdfrwt>
<totfact> 0.15828392E+01</totfact>
</mgrwt>
</event>
<event>
 6    2  0.2345636E-005  0.1036993E+04  0.7818608E-02  0.9703018E-01
         -4   -1    0    0    0  501 -0.00000000000E+00  0.00000000000E+00  0.77359555054E+03  0.77359555054E+03  0.00000000000E+00 0. -1.
         21   -1    0    0  501  502  0.00000000000E+00 -0.00000000000E+00 -0.81331338926E+03  0.81331338926E+03  0.00000000000E+00 0. -1.
   -9000010    2    1    2    0  502  0.20330586279E+03  0.98246366792E+02 -0.44067601364E+03  0.11267425659E+04  0.10121105861E+04 0.  0.
         13    1    3    3    0    0  0.26479594305E+03  0.50961283772E+03 -0.41776389345E+03  0.71017520209E+03  0.10566000000E+00 0. -1.
         -4    1    3    3    0  502 -0.61490080259E+02 -0.41136647093E+03 -0.22912120190E+02  0.41656736385E+03  0.00000000000E+00 0. -1.
        -13    1    1    2    0    0 -0.20330586279E+03 -0.98246366792E+02  0.40095817492E+03  0.46016637386E+03  0.10566000000E+00 0.  1.
<mgrwt>
<rscale>  1 0.70837413E+03</rscale>
<asrwt>0</asrwt>
<pdfrwt beam="2">  1       21 0.12512514E+00 0.10369925E+04</pdfrwt>
<pdfrwt beam="1">  1       -4 0.11901470E+00 0.10369925E+04</pdfrwt>
<totfact> 0.93219625E+00</totfact>
</mgrwt>
</event>
<event>
 6    2  0.2345636E-005  0.1116380E+04  0.7818608E-02  0.9418752E-01
         -4   -1    0    0    0  501 -0.00000000000E+00  0.00000000000E+00  0.11004597502E+04  0.11004597502E+04  0.00000000000E+00 0. -1.
         21   -1    0    0  501  502  0.00000000000E+00 -0.00000000000E+00 -0.67959671818E+03  0.67959671818E+03  0.00000000000E+00 0. -1.
   -9000010    2    1    2    0  502  0.96595204273E+02  0.47340085627E+03 -0.33410557560E+02  0.11168796371E+04  0.10064118710E+04 0.  0.
         13    1    3    3    0    0  0.50750395817E+03  0.29874162095E+03 -0.22579644238E+03  0.63070664195E+03  0.10566000000E+00 0. -1.
         -4    1    3    3    0  502 -0.41090875390E+03  0.17465923532E+03  0.19238588482E+03  0.48617299513E+03  0.00000000000E+00 0. -1.
        -13    1    1    2    0    0 -0.96595204273E+02 -0.47340085627E+03  0.45427358958E+03  0.66317683129E+03  0.10566000000E+00 0.  1.
<mgrwt>
<rscale>  1 0.90548374E+03</rscale>
<asrwt>0</asrwt>
<pdfrwt beam="2">  1       21 0.10455334E+00 0.11163798E+04</pdfrwt>
<pdfrwt beam="1">  1       -4 0.16930150E+00 0.11163798E+04</pdfrwt>
<totfact> 0.57548058E+00</totfact>
</mgrwt>
</event>
<event>
 6    2  0.2345636E-005  0.9887256E+03  0.7818608E-02  0.9471746E-01
         21   -1    0    0  501  502  0.00000000000E+00  0.00000000000E+00  0.79291412594E+03  0.79291412594E+03  0.00000000000E+00 0. -1.
         -4   -1    0    0    0  501 -0.00000000000E+00 -0.00000000000E+00 -0.89048857881E+03  0.89048857881E+03  0.00000000000E+00 0. -1.
   -9000010    2    1    2    0  502 -0.55948348532E+03 -0.13911056351E+03  0.23713674628E+03  0.10167655341E+04  0.80324641037E+03 0.  0.
         13    1    3    3    0    0 -0.77105933393E+01  0.27586808466E+03  0.16756416685E+03  0.32286284171E+03  0.10566000000E+00 0. -1.
         -4    1    3    3    0  502 -0.55177289198E+03 -0.41497864817E+03  0.69572579429E+02  0.69390269243E+03  0.00000000000E+00 0. -1.
        -13    1    1    2    0    0  0.55948348532E+03  0.13911056351E+03 -0.33471119915E+03  0.66663717060E+03  0.10566000000E+00 0.  1.
<mgrwt>
<rscale>  1 0.86399283E+03</rscale>
<asrwt>0</asrwt>
<pdfrwt beam="1">  1       21 0.12198679E+00 0.98872560E+03</pdfrwt>
<pdfrwt beam="2">  1       -4 0.13699824E+00 0.98872560E+03</pdfrwt>
<totfact> 0.69914827E+00</totfact>
</mgrwt>
</event>
<event>
 6    2  0.2345636E-005  0.9802275E+03  0.7818608E-02  0.9654208E-01
         -4   -1    0    0    0  501 -0.00000000000E+00  0.00000000000E+00  0.67588228401E+03  0.67588228401E+03  0.00000000000E+00 0. -1.
         21   -1    0    0  501  502  0.00000000000E+00 -0.00000000000E+00 -0.68936140507E+03  0.68936140507E+03  0.00000000000E+00 0.  1.
   -9000010    2    1    2    0  502  0.20677166469E+03 -0.23779687045E+03  0.17835770214E+03  0.99632194831E+03  0.92819398935E+03 0.  0.
         13    1    3    3    0    0 -0.11401870598E+03  0.22536818151E+03 -0.19615668491E+03  0.31979452583E+03  0.10566000000E+00 0. -1.
         -4    1    3    3    0  502  0.32079037068E+03 -0.46316505195E+03  0.37451438705E+03  0.67652742249E+03  0.00000000000E+00 0. -1.
        -13    1    1    2    0    0 -0.20677166469E+03  0.23779687045E+03 -0.19183682320E+03  0.36892174077E+03  0.10566000000E+00 0.  1.
<mgrwt>
<rscale>  1 0.73809949E+03</rscale>
<asrwt>0</asrwt>
<pdfrwt beam="2">  1       21 0.10605560E+00 0.98022750E+03</pdfrwt>
<pdfrwt beam="1">  1       -4 0.10398189E+00 0.98022750E+03</pdfrwt>
<totfact> 0.20006485E+01</totfact>
</mgrwt>
</event>
<event>
 6    2  0.2345636E-005  0.1139674E+04  0.7818608E-02  0.9371848E-01
         -4   -1    0    0    0  501 -0.00000000000E+00  0.00000000000E+00  0.13832145160E+04  0.13832145160E+04  0.00000000000E+00 0. -1.
         21   -1    0    0  501  502  0.00000000000E+00 -0.00000000000E+00 -0.53772722526E+03  0.53772722526E+03  0.00000000000E+00 0. -1.
   -9000010    2    1    2    0  502 -0.52060704896E+03  0.13221724159E+03  0.35534220138E+03  0.11937861058E+04  0.10051587377E+04 0.  0.
         13    1    3    3    0    0 -0.68255251563E+03  0.20389653185E+03  0.57226562754E+03  0.91375034442E+03  0.10566000000E+00 0. -1.
         -4    1    3    3    0  502  0.16194546668E+03 -0.71679290264E+02 -0.21692342616E+03  0.28003576137E+03  0.00000000000E+00 0. -1.
        -13    1    1    2    0    0  0.52060704896E+03 -0.13221724159E+03  0.49014508931E+03  0.72715563543E+03  0.10566000000E+00 0.  1.
<mgrwt>
<rscale>  1 0.94429180E+03</rscale>
<asrwt>0</asrwt>
<pdfrwt beam="2">  1       21 0.82727266E-01 0.11396742E+04</pdfrwt>
<pdfrwt beam="1">  1       -4 0.21280223E+00 0.11396742E+04</pdfrwt>
<totfact> 0.51413682E+00</totfact>
</mgrwt>
</event>
<event>
 6    2  0.2345636E-005  0.1203752E+04  0.7818608E-02  0.9262192E-01
         -4   -1    0    0    0  501 -0.00000000000E+00  0.00000000000E+00  0.76068428953E+03  0.76068428953E+03  0.00000000000E+00 0. -1.
         21   -1    0    0  501  502  0.00000000000E+00 -0.00000000000E+00 -0.11744830176E+04  0.11744830176E+04  0.00000000000E+00 0.  1.
   -9000010    2    1    2    0  502  0.48650615152E+03  0.47435662698E+03 -0.18317543649E+03  0.12176092545E+04  0.99363806851E+03 0.  0.
         13    1    3    3    0    0  0.79435350775E+03  0.29773999286E+03 -0.14541632709E+03  0.86069304516E+03  0.10566000000E+00 0. -1.
         -4    1    3    3    0  502 -0.30784735623E+03  0.17661663411E+03 -0.37759109397E+02  0.35691620939E+03  0.00000000000E+00 0. -1.
        -13    1    1    2    0    0 -0.48650615152E+03 -0.47435662698E+03 -0.23062329157E+03  0.71755805257E+03  0.10566000000E+00 0.  1.
<mgrwt>
<rscale>  1 0.10433935E+04</rscale>
<asrwt>0</asrwt>
<pdfrwt beam="2">  1       21 0.18068969E+00 0.12037521E+04</pdfrwt>
<pdfrwt beam="1">  1       -4 0.11702835E+00 0.12037521E+04</pdfrwt>
<totfact> 0.33957608E+00</totfact>
</mgrwt>
</event>
<event>
 6    2  0.2345636E-005  0.1083528E+04  0.7818608E-02  0.9509838E-01
         21   -1    0    0  501  502  0.00000000000E+00  0.00000000000E+00  0.25056225373E+04  0.25056225373E+04  0.00000000000E+00 0. -1.
         -4   -1    0    0    0  501 -0.00000000000E+00 -0.00000000000E+00 -0.21723514943E+03  0.21723514943E+03  0.00000000000E+00 0. -1.
   -9000010    2    1    2    0  502 -0.38231252730E+03 -0.27299464222E+02  0.18141574207E+04  0.21131018321E+04  0.10134713004E+04 0.  0.
         13    1    3    3    0    0 -0.55039446830E+02  0.46171005135E+03  0.56080372064E+03  0.72849594129E+03  0.10566000000E+00 0. -1.
         -4    1    3    3    0  502 -0.32727308047E+03 -0.48900951558E+03  0.12533537001E+04  0.13846058909E+04  0.00000000000E+00 0. -1.
        -13    1    1    2    0    0  0.38231252730E+03  0.27299464222E+02  0.47422996717E+03  0.60975585459E+03  0.10566000000E+00 0.  1.
<mgrwt>
<rscale>  1 0.83562368E+03</rscale>
<asrwt>0</asrwt>
<pdfrwt beam="1">  1       21 0.38548037E+00 0.10835277E+04</pdfrwt>
<pdfrwt beam="2">  1       -4 0.33420794E-01 0.10835277E+04</pdfrwt>
<totfact> 0.26345117E+00</totfact>
</mgrwt>
</event>
<event>
 6    2  0.2345636E-005  0.1001661E+04  0.7818608E-02  0.9917932E-01
         21   -1    0    0  501  502  0.00000000000E+00  0.00000000000E+00  0.18865465053E+04  0.18865465053E+04  0.00000000000E+00 0. -1.
         -4   -1    0    0    0  501 -0.00000000000E+00 -0.00000000000E+00 -0.17624671428E+03  0.17624671428E+03  0.00000000000E+00 0. -1.
   -9000010    2    1    2    0  502  0.26131049795E+02  0.12108796953E+03  0.13446180894E+04  0.16766996478E+04  0.99397121405E+03 0.  0.
         13    1    3    3    0    0  0.90507239957E+02  0.52580458973E+03  0.47079860056E+03  0.71155699738E+03  0.10566000000E+00 0. -1.
         -4    1    3    3    0  502 -0.64376190163E+02 -0.40471662020E+03  0.87381948887E+03  0.96514265042E+03  0.00000000000E+00 0. -1.
        -13    1    1    2    0    0 -0.26131049795E+02 -0.12108796953E+03  0.36568170158E+03  0.38609357178E+03  0.10566000000E+00 0.  1.
<mgrwt>
<rscale>  1 0.59400054E+03</rscale>
<asrwt>0</asrwt>
<pdfrwt beam="1">  1       21 0.29023791E+00 0.10016606E+04</pdfrwt>
<pdfrwt beam="2">  1       -4 0.27114880E-01 0.10016606E+04</pdfrwt>
<totfact> 0.16064155E+01</totfact>
</mgrwt>
</event>
<event>
 6    2  0.2345636E-005  0.1010097E+04  0.7818608E-02  0.9717522E-01
         21   -1    0    0  501  502  0.00000000000E+00  0.00000000000E+00  0.24158454147E+04  0.24158454147E+04  0.00000000000E+00 0. -1.
         -4   -1    0    0    0  501 -0.00000000000E+00 -0.00000000000E+00 -0.58249935240E+03  0.58249935240E+03  0.00000000000E+00 0. -1.
   -9000010    2    1    2    0  502 -0.19247432568E+03 -0.13086102905E+03  0.22805308486E+04  0.24942165896E+04  0.98291630843E+03 0.  0.
         13    1    3    3    0    0 -0.21666675069E+03  0.17076681508E+03  0.21449781325E+04  0.21626458300E+04  0.10566000000E+00 0. -1.
         -4    1    3    3    0  502  0.24192425010E+02 -0.30162784414E+03  0.13555271617E+03  0.33157075964E+03  0.00000000000E+00 0. -1.
        -13    1    1    2    0    0  0.19247432568E+03  0.13086102905E+03 -0.44718478637E+03  0.50412817745E+03  0.10566000000E+00 0.  1.
<mgrwt>
<rscale>  1 0.69983083E+03</rscale>
<asrwt>0</asrwt>
<pdfrwt beam="1">  1       21 0.37166852E+00 0.10100967E+04</pdfrwt>
<pdfrwt beam="2">  1       -4 0.89615287E-01 0.10100967E+04</pdfrwt>
<totfact> 0.39295114E-01</totfact>
</mgrwt>
</event>
<event>
 6    2  0.2345636E-005  0.1013530E+04  0.7818608E-02  0.1002571E+00
         21   -1    0    0  501  502  0.00000000000E+00  0.00000000000E+00  0.90839354451E+03  0.90839354451E+03  0.00000000000E+00 0. -1.
         -4   -1    0    0    0  501 -0.00000000000E+00 -0.00000000000E+00 -0.33616005931E+03  0.33616005931E+03  0.00000000000E+00 0. -1.
   -9000010    2    1    2    0  502  0.74991924689E+02  0.39946353657E+02  0.56215223352E+03  0.11589899273E+04  0.10099618894E+04 0.  0.
         13    1    3    3    0    0 -0.34446429714E+03  0.25213535589E+03  0.54006055699E+03  0.68839908924E+03  0.10566000000E+00 0. -1.
         -4    1    3    3    0  502  0.41945622183E+03 -0.21218900223E+03  0.22091676539E+02  0.47059083806E+03  0.00000000000E+00 0. -1.
        -13    1    1    2    0    0 -0.74991924689E+02 -0.39946353657E+02  0.10081251670E+02  0.85563676513E+02  0.10566000000E+00 0.  1.
<mgrwt>
<rscale>  1 0.54536950E+03</rscale>
<asrwt>0</asrwt>
<pdfrwt beam="1">  1       21 0.13975285E+00 0.10135297E+04</pdfrwt>
<pdfrwt beam="2">  1       -4 0.51716933E-01 0.10135297E+04</pdfrwt>
<totfact> 0.47235292E+01</totfact>
</mgrwt>
</event>
<event>
 6    2  0.2345636E-005  0.1008827E+04  0.7818608E-02  0.9889645E-01
         21   -1    0    0  501  502  0.00000000000E+00  0.00000000000E+00  0.70647127225E+03  0.70647127225E+03  0.00000000000E+00 0. -1.
         -4   -1    0    0    0  501 -0.00000000000E+00 -0.00000000000E+00 -0.93856909242E+03  0.93856909242E+03  0.00000000000E+00 0. -1.
   -9000010    2    1    2    0  502 -0.42937743187E+02  0.12566267292E+03  0.33469503265E+03  0.10628987098E+04  0.10000490714E+04 0.  0.
         13    1    3    3    0    0 -0.88738188194E+02  0.20973120232E+03 -0.32469446151E+03  0.39659569812E+03  0.10566000000E+00 0. -1.
         -4    1    3    3    0  502  0.45800445008E+02 -0.84068529407E+02  0.65938949415E+03  0.66630301170E+03  0.00000000000E+00 0. -1.
        -13    1    1    2    0    0  0.42937743187E+02 -0.12566267292E+03 -0.56679285281E+03  0.58214165485E+03  0.10566000000E+00 0.  1.
<mgrwt>
<rscale>  1 0.60765755E+03</rscale>
<asrwt>0</asrwt>
<pdfrwt beam="1">  1       21 0.10868789E+00 0.10088275E+04</pdfrwt>
<pdfrwt beam="2">  1       -4 0.14439524E+00 0.10088275E+04</pdfrwt>
<totfact> 0.81617383E+00</totfact>
</mgrwt>
</event>
<event>
 6    2  0.2345636E-005  0.1023979E+04  0.7818608E-02  0.9899220E-01
         -4   -1    0    0    0  501 -0.00000000000E+00  0.00000000000E+00  0.74876239284E+03  0.74876239284E+03  0.00000000000E+00 0. -1.
         21   -1    0    0  501  502  0.00000000000E+00 -0.00000000000E+00 -0.63328402115E+03  0.63328402115E+03  0.00000000000E+00 0. -1.
   -9000010    2    1    2    0  502 -0.64853334434E+02 -0.10466854427E+03 -0.20005575802E+03  0.10433381954E+04  0.10165484861E+04 0.  0.
         13    1    3    3    0    0 -0.23533424227E+03  0.35632328134E+03  0.13573880931E+03  0.44807758472E+03  0.10566000000E+00 0. -1.
         -4    1    3    3    0  502  0.17048090784E+03 -0.46099182561E+03 -0.33579456733E+03  0.59526061071E+03  0.00000000000E+00 0. -1.
        -13    1    1    2    0    0  0.64853334434E+02  0.10466854427E+03  0.31553412971E+03  0.33870821857E+03  0.10566000000E+00 0.  1.
<mgrwt>
<rscale>  1 0.60299102E+03</rscale>
<asrwt>0</asrwt>
<pdfrwt beam="2">  1       21 0.97428311E-01 0.10239787E+04</pdfrwt>
<pdfrwt beam="1">  1       -4 0.11519421E+00 0.10239787E+04</pdfrwt>
<totfact> 0.19129654E+01</totfact>
</mgrwt>
</event>
<event>
 6    2  0.2345636E-005  0.1035667E+04  0.7818608E-02  0.9654496E-01
         21   -1    0    0  501  502  0.00000000000E+00  0.00000000000E+00  0.14461860208E+04  0.14461860208E+04  0.00000000000E+00 0. -1.
         -4   -1    0    0    0  501 -0.00000000000E+00 -0.00000000000E+00 -0.38843412906E+03  0.38843412906E+03  0.00000000000E+00 0. -1.
   -9000010    2    1    2    0  502  0.93578810582E+02 -0.24997433932E+03  0.11542705392E+04  0.15507891709E+04  0.10006809736E+04 0.  0.
         13    1    3    3    0    0  0.40772203075E+03 -0.49044592015E+03  0.76159089711E+03  0.99337563926E+03  0.10566000000E+00 0. -1.
         -4    1    3    3    0  502 -0.31414322016E+03  0.24047158083E+03  0.39267964212E+03  0.55741353168E+03  0.00000000000E+00 0. -1.
        -13    1    1    2    0    0 -0.93578810582E+02  0.24997433932E+03 -0.96518647514E+02  0.28383097891E+03  0.10566000000E+00 0.  1.
<mgrwt>
<rscale>  1 0.73791925E+03</rscale>
<asrwt>0</asrwt>
<pdfrwt beam="1">  1       21 0.22249015E+00 0.10356672E+04</pdfrwt>
<pdfrwt beam="2">  1       -4 0.59759098E-01 0.10356672E+04</pdfrwt>
<totfact> 0.85474623E+00</totfact>
</mgrwt>
</event>
<event>
 6    2  0.2345636E-005  0.1011395E+04  0.7818608E-02  0.1005545E+00
         21   -1    0    0  501  502  0.00000000000E+00  0.00000000000E+00  0.44262113408E+03  0.44262113408E+03  0.00000000000E+00 0. -1.
         -4   -1    0    0    0  501 -0.00000000000E+00 -0.00000000000E+00 -0.67146197863E+03  0.67146197863E+03  0.00000000000E+00 0. -1.
   -9000010    2    1    2    0  502  0.77863547118E+02  0.28755485273E+01 -0.22470645861E+03  0.10360568027E+04  0.10083896593E+04 0.  0.
         13    1    3    3    0    0  0.50002755357E+03 -0.20534353493E+03 -0.11195861194E+03  0.55202197748E+03  0.10566000000E+00 0. -1.
         -4    1    3    3    0  502 -0.42216400645E+03  0.20821908345E+03 -0.11274784667E+03  0.48403482518E+03  0.00000000000E+00 0. -1.
        -13    1    1    2    0    0 -0.77863547118E+02 -0.28755485273E+01 -0.41343859469E+01  0.78026310052E+02  0.10566000000E+00 0.  1.
<mgrwt>
<rscale>  1 0.53284197E+03</rscale>
<asrwt>0</asrwt>
<pdfrwt beam="1">  1       21 0.68095559E-01 0.10113954E+04</pdfrwt>
<pdfrwt beam="2">  1       -4 0.10330184E+00 0.10113954E+04</pdfrwt>
<totfact> 0.58406543E+01</totfact>
</mgrwt>
</event>
<event>
 6    2  0.2345636E-005  0.1005939E+04  0.7818608E-02  0.9912072E-01
         -4   -1    0    0    0  501 -0.00000000000E+00  0.00000000000E+00  0.15433070540E+03  0.15433070540E+03  0.00000000000E+00 0. -1.
         21   -1    0    0  501  502  0.00000000000E+00 -0.00000000000E+00 -0.21106933102E+04  0.21106933102E+04  0.00000000000E+00 0. -1.
   -9000010    2    1    2    0  502 -0.12379323776E+03  0.14347690691E+02 -0.18255107865E+04  0.20843230708E+04  0.99818956607E+03 0.  0.
         13    1    3    3    0    0 -0.15759301234E+03  0.36679809321E+03 -0.16334326230E+04  0.16815107921E+04  0.10566000000E+00 0. -1.
         -4    1    3    3    0  502  0.33799774582E+02 -0.35245040252E+03 -0.19207816348E+03  0.40281227871E+03  0.00000000000E+00 0. -1.
        -13    1    1    2    0    0  0.12379323776E+03 -0.14347690691E+02 -0.13085181831E+03  0.18070094483E+03  0.10566000000E+00 0.  1.
<mgrwt>
<rscale>  1 0.59679798E+03</rscale>
<asrwt>0</asrwt>
<pdfrwt beam="2">  1       21 0.32472205E+00 0.10059389E+04</pdfrwt>
<pdfrwt beam="1">  1       -4 0.23743185E-01 0.10059389E+04</pdfrwt>
<totfact> 0.12630563E+01</totfact>
</mgrwt>
</event>
<event>
 6    2  0.2345636E-005  0.1016234E+04  0.7818608E-02  0.9848196E-01
         21   -1    0    0  501  502  0.00000000000E+00  0.00000000000E+00  0.89993003122E+03  0.89993003122E+03  0.00000000000E+00 0. -1.
         -4   -1    0    0    0  501 -0.00000000000E+00 -0.00000000000E+00 -0.59562007276E+03  0.59562007276E+03  0.00000000000E+00 0. -1.
   -9000010    2    1    2    0  502 -0.14830213449E+03 -0.89424955525E+01  0.58888317654E+03  0.11745276454E+04  0.10053150266E+04 0.  0.
         13    1    3    3    0    0 -0.16750330133E+03 -0.17382079478E+03 -0.23332829671E+03  0.33572776153E+03  0.10566000000E+00 0. -1.
         -4    1    3    3    0  502  0.19201166840E+02  0.16487829923E+03  0.82221147325E+03  0.83879988383E+03  0.00000000000E+00 0. -1.
        -13    1    1    2    0    0  0.14830213449E+03  0.89424955525E+01 -0.28457321808E+03  0.32102245861E+03  0.10566000000E+00 0.  1.
<mgrwt>
<rscale>  1 0.62838996E+03</rscale>
<asrwt>0</asrwt>
<pdfrwt beam="1">  1       21 0.13845077E+00 0.10162341E+04</pdfrwt>
<pdfrwt beam="2">  1       -4 0.91633857E-01 0.10162341E+04</pdfrwt>
<totfact> 0.13480330E+01</totfact>
</mgrwt>
</event>
<event>
 6    2  0.2345636E-005  0.8816287E+03  0.7818608E-02  0.9864754E-01
         -4   -1    0    0    0  501 -0.00000000000E+00  0.00000000000E+00  0.42304583912E+03  0.42304583912E+03  0.00000000000E+00 0. -1.
         21   -1    0    0  501  502  0.00000000000E+00 -0.00000000000E+00 -0.93940360350E+03  0.93940360350E+03  0.00000000000E+00 0. -1.
   -9000010    2    1    2    0  502 -0.14604529081E+03 -0.15864707482E+03 -0.66177169681E+03  0.11023661017E+04  0.85485152054E+03 0.  0.
         13    1    3    3    0    0  0.74131708487E+02 -0.13052925319E+03  0.17852479631E+03  0.23324774426E+03  0.10566000000E+00 0. -1.
         -4    1    3    3    0  502 -0.22017699929E+03 -0.28117821636E+02 -0.84029649311E+03  0.86911835745E+03  0.00000000000E+00 0. -1.
        -13    1    1    2    0    0  0.14604529081E+03  0.15864707482E+03  0.14541393242E+03  0.26008334092E+03  0.10566000000E+00 0.  1.
<mgrwt>
<rscale>  1 0.62000293E+03</rscale>
<asrwt>0</asrwt>
<pdfrwt beam="2">  1       21 0.14452363E+00 0.88162874E+03</pdfrwt>
<pdfrwt beam="1">  1       -4 0.65083976E-01 0.88162874E+03</pdfrwt>
<totfact> 0.26565989E+01</totfact>
</mgrwt>
</event>
<event>
 6    2  0.2345636E-005  0.1019346E+04  0.7818608E-02  0.9784747E-01
         21   -1    0    0  501  502  0.00000000000E+00  0.00000000000E+00  0.27749980040E+03  0.27749980040E+03  0.00000000000E+00 0. -1.
         -4   -1    0    0    0  501 -0.00000000000E+00 -0.00000000000E+00 -0.12988032640E+04  0.12988032640E+04  0.00000000000E+00 0. -1.
   -9000010    2    1    2    0  502  0.17590167651E+03 -0.43467166787E+02 -0.87619231613E+03  0.13441650652E+04  0.10031131309E+04 0.  0.
         13    1    3    3    0    0  0.28603944879E+03 -0.47631051693E+03 -0.60606500153E+03  0.82219527610E+03  0.10566000000E+00 0. -1.
         -4    1    3    3    0  502 -0.11013777228E+03  0.43284335014E+03 -0.27012731461E+03  0.52196978911E+03  0.00000000000E+00 0. -1.
        -13    1    1    2    0    0 -0.17590167651E+03  0.43467166787E+02 -0.14511114748E+03  0.23213799921E+03  0.10566000000E+00 0.  1.
<mgrwt>
<rscale>  1 0.66187586E+03</rscale>
<asrwt>0</asrwt>
<pdfrwt beam="1">  1       21 0.42692277E-01 0.10193462E+04</pdfrwt>
<pdfrwt beam="2">  1       -4 0.19981588E+00 0.10193462E+04</pdfrwt>
<totfact> 0.27746600E+01</totfact>
</mgrwt>
</event>
<event>
 6    2  0.2345636E-005  0.1003621E+04  0.7818608E-02  0.1055541E+00
         21   -1    0    0  501  502  0.00000000000E+00  0.00000000000E+00  0.40238506391E+03  0.40238506391E+03  0.00000000000E+00 0. -1.
         -4   -1    0    0    0  501 -0.00000000000E+00 -0.00000000000E+00 -0.70936255227E+03  0.70936255227E+03  0.00000000000E+00 0. -1.
   -9000010    2    1    2    0  502  0.16719539666E+02 -0.69338841969E+01 -0.22597365530E+03  0.10287460867E+04  0.10034574213E+04 0.  0.
         13    1    3    3    0    0 -0.29806987552E+03 -0.29389100935E+03  0.16559927308E+03  0.45015631338E+03  0.10566000000E+00 0. -1.
         -4    1    3    3    0  502  0.31478941518E+03  0.28695712515E+03 -0.39157292838E+03  0.57858977335E+03  0.00000000000E+00 0. -1.
        -13    1    1    2    0    0 -0.16719539666E+02  0.69338841969E+01 -0.81003833057E+02  0.83001529448E+02  0.10566000000E+00 0.  1.
<mgrwt>
<rscale>  1 0.36779061E+03</rscale>
<asrwt>0</asrwt>
<pdfrwt beam="1">  1       21 0.61905395E-01 0.10036207E+04</pdfrwt>
<pdfrwt beam="2">  1       -4 0.10913270E+00 0.10036207E+04</pdfrwt>
<totfact> 0.63378206E+01</totfact>
</mgrwt>
</event>
<event>
 6    2  0.2345636E-005  0.1101271E+04  0.7818608E-02  0.9430694E-01
         21   -1    0    0  501  502  0.00000000000E+00  0.00000000000E+00  0.10557118638E+04  0.10557118638E+04  0.00000000000E+00 0. -1.
         -4   -1    0    0    0  501 -0.00000000000E+00 -0.00000000000E+00 -0.65572671377E+03  0.65572671377E+03  0.00000000000E+00 0. -1.
   -9000010    2    1    2    0  502 -0.46383201278E+03  0.13250600905E+03  0.26882289976E+02  0.11015994727E+04  0.99000038494E+03 0.  0.
         13    1    3    3    0    0  0.21495473989E+03  0.30832845832E+03  0.11931491989E+03  0.39434507690E+03  0.10566000000E+00 0. -1.
         -4    1    3    3    0  502 -0.67878675267E+03 -0.17582244927E+03 -0.92432629910E+02  0.70725439577E+03  0.00000000000E+00 0. -1.
        -13    1    1    2    0    0  0.46383201278E+03 -0.13250600905E+03  0.37310286003E+03  0.60983910488E+03  0.10566000000E+00 0.  1.
<mgrwt>
<rscale>  1 0.89592140E+03</rscale>
<asrwt>0</asrwt>
<pdfrwt beam="1">  1       21 0.16241721E+00 0.11012714E+04</pdfrwt>
<pdfrwt beam="2">  1       -4 0.10088103E+00 0.11012714E+04</pdfrwt>
<totfact> 0.67893574E+00</totfact>
</mgrwt>
</event>
<event>
 6    2  0.2345636E-005  0.1053452E+04  0.7818608E-02  0.9564154E-01
         -4   -1    0    0    0  501 -0.00000000000E+00  0.00000000000E+00  0.60954298981E+03  0.60954298981E+03  0.00000000000E+00 0. -1.
         21   -1    0    0  501  502  0.00000000000E+00 -0.00000000000E+00 -0.10352233602E+04  0.10352233602E+04  0.00000000000E+00 0. -1.
   -9000010    2    1    2    0  502  0.25154250477E+03 -0.23668855428E+03 -0.64537600772E+03  0.12354238435E+04  0.99522197443E+03 0.  0.
         13    1    3    3    0    0  0.13658364776E+03  0.26481938115E+02  0.25493024406E+03  0.29042352932E+03  0.10566000000E+00 0. -1.
         -4    1    3    3    0  502  0.11495885701E+03 -0.26317049240E+03 -0.90030625178E+03  0.94500031421E+03  0.00000000000E+00 0. -1.
        -13    1    1    2    0    0 -0.25154250477E+03  0.23668855428E+03  0.21969563730E+03  0.40934250652E+03  0.10566000000E+00 0.  1.
<mgrwt>
<rscale>  1 0.79714809E+03</rscale>
<asrwt>0</asrwt>
<pdfrwt beam="2">  1       21 0.15926513E+00 0.10534524E+04</pdfrwt>
<pdfrwt beam="1">  1       -4 0.93775846E-01 0.10534524E+04</pdfrwt>
<totfact> 0.86051668E+00</totfact>
</mgrwt>
</event>
<event>
 6    2  0.2345636E-005  0.1007711E+04  0.7818608E-02  0.9955122E-01
         -4   -1    0    0    0  501 -0.00000000000E+00  0.00000000000E+00  0.31793838426E+03  0.31793838426E+03  0.00000000000E+00 0. -1.
         21   -1    0    0  501  502  0.00000000000E+00 -0.00000000000E+00 -0.10051293499E+04  0.10051293499E+04  0.00000000000E+00 0. -1.
   -9000010    2    1    2    0  502  0.10518832054E+03 -0.24642286156E+02 -0.67816320029E+03  0.12146549270E+04  0.10019029096E+04 0.  0.
         13    1    3    3    0    0  0.56943769072E+02  0.71761069957E+02 -0.93324431362E+03  0.93772981400E+03  0.10566000000E+00 0. -1.
         -4    1    3    3    0  502  0.48244551465E+02 -0.96403356113E+02  0.25508111333E+03  0.27692511297E+03  0.00000000000E+00 0. -1.
        -13    1    1    2    0    0 -0.10518832054E+03  0.24642286156E+02 -0.90277653275E+01  0.10841280716E+03  0.10566000000E+00 0.  1.
<mgrwt>
<rscale>  1 0.57662619E+03</rscale>
<asrwt>0</asrwt>
<pdfrwt beam="2">  1       21 0.15463528E+00 0.10077109E+04</pdfrwt>
<pdfrwt beam="1">  1       -4 0.48913598E-01 0.10077109E+04</pdfrwt>
<totfact> 0.40175795E+01</totfact>
</mgrwt>
</event>
<event>
 6    2  0.2345636E-005  0.1004819E+04  0.7818608E-02  0.9862695E-01
         -4   -1    0    0    0  501 -0.00000000000E+00  0.00000000000E+00  0.48015068203E+03  0.48015068203E+03  0.00000000000E+00 0. -1.
         21   -1    0    0  501  502  0.00000000000E+00 -0.00000000000E+00 -0.69811307334E+03  0.69811307334E+03  0.00000000000E+00 0. -1.
   -9000010    2    1    2    0  502  0.63225739400E+02 -0.13229294726E+03 -0.14750384597E+03  0.10155882016E+04  0.99406392784E+03 0.  0.
         13    1    3    3    0    0 -0.41874056111E+03  0.24610881617E+02  0.12816982252E+03  0.43860787451E+03  0.10566000000E+00 0. -1.
         -4    1    3    3    0  502  0.48196630051E+03 -0.15690382888E+03 -0.27567366849E+03  0.57698032709E+03  0.00000000000E+00 0. -1.
        -13    1    1    2    0    0 -0.63225739400E+02  0.13229294726E+03 -0.70458545333E+02  0.16267555377E+03  0.10566000000E+00 0.  1.
<mgrwt>
<rscale>  1 0.62103798E+03</rscale>
<asrwt>0</asrwt>
<pdfrwt beam="2">  1       21 0.10740201E+00 0.10048194E+04</pdfrwt>
<pdfrwt beam="1">  1       -4 0.73869335E-01 0.10048194E+04</pdfrwt>
<totfact> 0.43073210E+01</totfact>
</mgrwt>
</event>
<event>
 6    2  0.2345636E-005  0.1008617E+04  0.7818608E-02  0.1018012E+00
         21   -1    0    0  501  502  0.00000000000E+00  0.00000000000E+00  0.93752991957E+03  0.93752991957E+03  0.00000000000E+00 0. -1.
         -4   -1    0    0    0  501 -0.00000000000E+00 -0.00000000000E+00 -0.35923531401E+03  0.35923531401E+03  0.00000000000E+00 0. -1.
   -9000010    2    1    2    0  502 -0.38657194372E+00 -0.53527658018E+02  0.65543389024E+03  0.12028725288E+04  0.10071957984E+04 0.  0.
         13    1    3    3    0    0 -0.17971971577E+03 -0.24586745285E+03  0.83209016844E+03  0.88607225450E+03  0.10566000000E+00 0. -1.
         -4    1    3    3    0  502  0.17933314383E+03  0.19233979483E+03 -0.17665627820E+03  0.31680027427E+03  0.00000000000E+00 0. -1.
        -13    1    1    2    0    0  0.38657194372E+00  0.53527658018E+02 -0.77139284688E+02  0.93892704812E+02  0.10566000000E+00 0.  1.
<mgrwt>
<rscale>  1 0.48410815E+03</rscale>
<asrwt>0</asrwt>
<pdfrwt beam="1">  1       21 0.14423537E+00 0.10086172E+04</pdfrwt>
<pdfrwt beam="2">  1       -4 0.55266972E-01 0.10086172E+04</pdfrwt>
<totfact> 0.37613119E+01</totfact>
</mgrwt>
</event>
<event>
 6    2  0.2345636E-005  0.1011605E+04  0.7818608E-02  0.9770674E-01
         21   -1    0    0  501  502  0.00000000000E+00  0.00000000000E+00  0.62102063182E+03  0.62102063182E+03  0.00000000000E+00 0. -1.
         -4   -1    0    0    0  501 -0.00000000000E+00 -0.00000000000E+00 -0.58530787954E+03  0.58530787954E+03  0.00000000000E+00 0. -1.
   -9000010    2    1    2    0  502  0.40980361609E+02  0.18982189587E+03  0.29873426474E+02  0.10120455963E+04  0.99279007107E+03 0.  0.
         13    1    3    3    0    0  0.28277846383E+02  0.59602888141E+03  0.82013104627E+02  0.60230907727E+03  0.10566000000E+00 0. -1.
         -4    1    3    3    0  502  0.12702515226E+02 -0.40620698554E+03 -0.52139678153E+02  0.40973651904E+03  0.00000000000E+00 0. -1.
        -13    1    1    2    0    0 -0.40980361609E+02 -0.18982189587E+03  0.58393258079E+01  0.19428291504E+03  0.10566000000E+00 0.  1.
<mgrwt>
<rscale>  1 0.66960354E+03</rscale>
<asrwt>0</asrwt>
<pdfrwt beam="1">  1       21 0.95541635E-01 0.10116046E+04</pdfrwt>
<pdfrwt beam="2">  1       -4 0.90047366E-01 0.10116046E+04</pdfrwt>
<totfact> 0.36475383E+01</totfact>
</mgrwt>
</event>
<event>
 6    2  0.2345636E-005  0.9917531E+03  0.7818608E-02  0.1041277E+00
         -4   -1    0    0    0  501 -0.00000000000E+00  0.00000000000E+00  0.78444341556E+03  0.78444341556E+03  0.00000000000E+00 0. -1.
         21   -1    0    0  501  502  0.00000000000E+00 -0.00000000000E+00 -0.34025167610E+03  0.34025167610E+03  0.00000000000E+00 0. -1.
   -9000010    2    1    2    0  502  0.85788690900E+01 -0.26880309819E+02  0.39406901901E+03  0.10671759964E+04  0.99135163665E+03 0.  0.
         13    1    3    3    0    0  0.45290974886E+02  0.43453906361E+03 -0.31991865486E+02  0.43806273618E+03  0.10566000000E+00 0. -1.
         -4    1    3    3    0  502 -0.36712105796E+02 -0.46141937342E+03  0.42606088450E+03  0.62911326022E+03  0.00000000000E+00 0. -1.
        -13    1    1    2    0    0 -0.85788690900E+01  0.26880309819E+02  0.50122720447E+02  0.57519095263E+02  0.10566000000E+00 0.  1.
<mgrwt>
<rscale>  1 0.40731243E+03</rscale>
<asrwt>0</asrwt>
<pdfrwt beam="2">  1       21 0.52346412E-01 0.99175310E+03</pdfrwt>
<pdfrwt beam="1">  1       -4 0.12068360E+00 0.99175310E+03</pdfrwt>
<totfact> 0.71562208E+01</totfact>
</mgrwt>
</event>
<event>
 6    2  0.2345636E-005  0.9961393E+03  0.7818608E-02  0.1008257E+00
         21   -1    0    0  501  502  0.00000000000E+00  0.00000000000E+00  0.26801993021E+04  0.26801993021E+04  0.00000000000E+00 0. -1.
         -4   -1    0    0    0  501 -0.00000000000E+00 -0.00000000000E+00 -0.12803671494E+03  0.12803671494E+03  0.00000000000E+00 0. -1.
   -9000010    2    1    2    0  502  0.73789977819E+02  0.13195060579E+02  0.25449146058E+04  0.27329258926E+04  0.99331491121E+03 0.  0.
         13    1    3    3    0    0  0.50681374183E+03  0.12599908731E+03  0.16771846515E+04  0.17566115977E+04  0.10566000000E+00 0. -1.
         -4    1    3    3    0  502 -0.43302376401E+03 -0.11280402673E+03  0.86772995433E+03  0.97631429483E+03  0.00000000000E+00 0. -1.
        -13    1    1    2    0    0 -0.73789977819E+02 -0.13195060579E+02  0.72479813241E+01  0.75310124469E+02  0.10566000000E+00 0.  1.
<mgrwt>
<rscale>  1 0.52173291E+03</rscale>
<asrwt>0</asrwt>
<pdfrwt beam="1">  1       21 0.41233831E+00 0.99613934E+03</pdfrwt>
<pdfrwt beam="2">  1       -4 0.19697958E-01 0.99613934E+03</pdfrwt>
<totfact> 0.49340735E+00</totfact>
</mgrwt>
</event>
<event>
 6    2  0.2345636E-005  0.1090613E+04  0.7818608E-02  0.9591969E-01
         21   -1    0    0  501  502  0.00000000000E+00  0.00000000000E+00  0.27473305615E+04  0.27473305615E+04  0.00000000000E+00 0. -1.
         -4   -1    0    0    0  501 -0.00000000000E+00 -0.00000000000E+00 -0.18140531133E+03  0.18140531133E+03  0.00000000000E+00 0. -1.
   -9000010    2    1    2    0  502  0.28185628506E+03 -0.23849543368E+02  0.22753165476E+04  0.25231927859E+04  0.10532923037E+04 0.  0.
         13    1    3    3    0    0  0.22562173932E+03  0.20001029851E+02 -0.19430092936E+02  0.22733840442E+03  0.10566000000E+00 0. -1.
         -4    1    3    3    0  502  0.56234545742E+02 -0.43850573219E+02  0.22947466405E+04  0.22958543815E+04  0.00000000000E+00 0. -1.
        -13    1    1    2    0    0 -0.28185628506E+03  0.23849543368E+02  0.29060870258E+03  0.40554308689E+03  0.10566000000E+00 0.  1.
<mgrwt>
<rscale>  1 0.77830031E+03</rscale>
<asrwt>0</asrwt>
<pdfrwt beam="1">  1       21 0.42266621E+00 0.10906129E+04</pdfrwt>
<pdfrwt beam="2">  1       -4 0.27908511E-01 0.10906129E+04</pdfrwt>
<totfact> 0.21310307E+00</totfact>
</mgrwt>
</event>
<event>
 6    2  0.2345636E-005  0.1158812E+04  0.7818608E-02  0.9339984E-01
         21   -1    0    0  501  502  0.00000000000E+00  0.00000000000E+00  0.10574752376E+04  0.10574752376E+04  0.00000000000E+00 0. -1.
         -4   -1    0    0    0  501 -0.00000000000E+00 -0.00000000000E+00 -0.94756946501E+03  0.94756946501E+03  0.00000000000E+00 0. -1.
   -9000010    2    1    2    0  502 -0.19673430304E+03  0.53842091148E+03  0.54965476758E+03  0.12825624166E+04  0.10070970782E+04 0.  0.
         13    1    3    3    0    0 -0.15209639711E+03  0.23746926486E+03 -0.28090264714E+03  0.39803426247E+03  0.10566000000E+00 0. -1.
         -4    1    3    3    0  502 -0.44637905929E+02  0.30095164662E+03  0.83055741472E+03  0.88452815410E+03  0.00000000000E+00 0. -1.
        -13    1    1    2    0    0  0.19673430304E+03 -0.53842091148E+03 -0.43974899497E+03  0.72248228605E+03  0.10566000000E+00 0.  1.
<mgrwt>
<rscale>  1 0.97183719E+03</rscale>
<asrwt>0</asrwt>
<pdfrwt beam="1">  1       21 0.16268850E+00 0.11588123E+04</pdfrwt>
<pdfrwt beam="2">  1       -4 0.14577992E+00 0.11588123E+04</pdfrwt>
<totfact> 0.26394408E+00</totfact>
</mgrwt>
</event>
<event>
 6    2  0.2345636E-005  0.1003850E+04  0.7818608E-02  0.9823104E-01
         -4   -1    0    0    0  501 -0.00000000000E+00  0.00000000000E+00  0.55877925185E+03  0.55877925185E+03  0.00000000000E+00 0. -1.
         21   -1    0    0  501  502  0.00000000000E+00 -0.00000000000E+00 -0.62590442621E+03  0.62590442621E+03  0.00000000000E+00 0. -1.
   -9000010    2    1    2    0  502  0.14005828106E+03 -0.91460589064E+02 -0.11570418376E+03  0.10104961562E+04  0.98981496360E+03 0.  0.
         13    1    3    3    0    0  0.26384862197E+03 -0.33348068293E+03 -0.42329029842E+03  0.60000012425E+03  0.10566000000E+00 0. -1.
         -4    1    3    3    0  502 -0.12379034091E+03  0.24202009387E+03  0.30758611466E+03  0.41049603198E+03  0.00000000000E+00 0. -1.
        -13    1    1    2    0    0 -0.14005828106E+03  0.91460589064E+02  0.48579009399E+02  0.17418752183E+03  0.10566000000E+00 0.  1.
<mgrwt>
<rscale>  1 0.64137241E+03</rscale>
<asrwt>0</asrwt>
<pdfrwt beam="2">  1       21 0.96292988E-01 0.10038501E+04</pdfrwt>
<pdfrwt beam="1">  1       -4 0.85966039E-01 0.10038501E+04</pdfrwt>
<totfact> 0.39914521E+01</totfact>
</mgrwt>
</event>
<event>
 6    2  0.2345636E-005  0.1000100E+04  0.7818608E-02  0.1029024E+00
         -4   -1    0    0    0  501 -0.00000000000E+00  0.00000000000E+00  0.50378920006E+03  0.50378920006E+03  0.00000000000E+00 0. -1.
         21   -1    0    0  501  502  0.00000000000E+00 -0.00000000000E+00 -0.59056051349E+03  0.59056051349E+03  0.00000000000E+00 0. -1.
   -9000010    2    1    2    0  502  0.45438084187E+01 -0.39172488510E+02 -0.15841637270E+03  0.10125685682E+04  0.99932188416E+03 0.  0.
         13    1    3    3    0    0  0.48308960430E+03 -0.11281642296E+03  0.20186426037E+02  0.49649835250E+03  0.10566000000E+00 0. -1.
         -4    1    3    3    0  502 -0.47854579588E+03  0.73643934453E+02 -0.17860279873E+03  0.51607021572E+03  0.00000000000E+00 0. -1.
        -13    1    1    2    0    0 -0.45438084187E+01  0.39172488510E+02  0.71645059262E+02  0.81781145331E+02  0.10566000000E+00 0.  1.
<mgrwt>
<rscale>  1 0.44566004E+03</rscale>
<asrwt>0</asrwt>
<pdfrwt beam="2">  1       21 0.90855463E-01 0.10000997E+04</pdfrwt>
<pdfrwt beam="1">  1       -4 0.77506031E-01 0.10000997E+04</pdfrwt>
<totfact> 0.58415799E+01</totfact>
</mgrwt>
</event>
<event>
 6    2  0.2345636E-005  0.1007128E+04  0.7818608E-02  0.1038410E+00
         -4   -1    0    0    0  501 -0.00000000000E+00  0.00000000000E+00  0.14479814479E+04  0.14479814479E+04  0.00000000000E+00 0. -1.
         21   -1    0    0  501  502  0.00000000000E+00 -0.00000000000E+00 -0.18613233852E+03  0.18613233852E+03  0.00000000000E+00 0. -1.
   -9000010    2    1    2    0  502 -0.84224460163E+01  0.28050641885E+02  0.12405725468E+04  0.15979132424E+04  0.10067018974E+04 0.  0.
         13    1    3    3    0    0  0.38044272363E+03  0.33833089230E+03  0.65319194198E+03  0.82816917528E+03  0.10566000000E+00 0. -1.
         -4    1    3    3    0  502 -0.38886516965E+03 -0.31028025042E+03  0.58738060481E+03  0.76974406712E+03  0.00000000000E+00 0. -1.
        -13    1    1    2    0    0  0.84224460163E+01 -0.28050641885E+02  0.21276562589E+02  0.36200544011E+02  0.10566000000E+00 0.  1.
<mgrwt>
<rscale>  1 0.41589716E+03</rscale>
<asrwt>0</asrwt>
<pdfrwt beam="2">  1       21 0.28635745E-01 0.10071278E+04</pdfrwt>
<pdfrwt beam="1">  1       -4 0.22276637E+00 0.10071278E+04</pdfrwt>
<totfact> 0.44867359E+01</totfact>
</mgrwt>
</event>
<event>
 6    2  0.2345636E-005  0.9957734E+03  0.7818608E-02  0.9803002E-01
         21   -1    0    0  501  502  0.00000000000E+00  0.00000000000E+00  0.46948867399E+03  0.46948867399E+03  0.00000000000E+00 0. -1.
         -4   -1    0    0    0  501 -0.00000000000E+00 -0.00000000000E+00 -0.78403919595E+03  0.78403919595E+03  0.00000000000E+00 0. -1.
   -9000010    2    1    2    0  502 -0.97909907914E+01 -0.18278144534E+03 -0.14925798502E+03  0.10068974700E+04  0.97880521487E+03 0.  0.
         13    1    3    3    0    0 -0.43266635383E+03 -0.33300640562E+03 -0.59148302728E+02  0.54917390033E+03  0.10566000000E+00 0. -1.
         -4    1    3    3    0  502  0.42287536303E+03  0.15022496028E+03 -0.90109682290E+02  0.45772356963E+03  0.00000000000E+00 0. -1.
        -13    1    1    2    0    0  0.97909907914E+01  0.18278144534E+03 -0.16529253694E+03  0.24663039998E+03  0.10566000000E+00 0.  1.
<mgrwt>
<rscale>  1 0.65201707E+03</rscale>
<asrwt>0</asrwt>
<pdfrwt beam="1">  1       21 0.72229027E-01 0.99577335E+03</pdfrwt>
<pdfrwt beam="2">  1       -4 0.12062141E+00 0.99577335E+03</pdfrwt>
<totfact> 0.34837463E+01</totfact>
</mgrwt>
</event>
<event>
 6    2  0.2345636E-005  0.9457088E+03  0.7818608E-02  0.9938494E-01
         -4   -1    0    0    0  501 -0.00000000000E+00  0.00000000000E+00  0.60810030381E+03  0.60810030381E+03  0.00000000000E+00 0. -1.
         21   -1    0    0  501  502  0.00000000000E+00 -0.00000000000E+00 -0.49452114905E+03  0.49452114905E+03  0.00000000000E+00 0. -1.
   -9000010    2    1    2    0  502  0.10906637402E+03 -0.84255363770E+02  0.40384926599E+02  0.94657067117E+03  0.93561244805E+03 0.  0.
         13    1    3    3    0    0  0.26254200840E+03  0.37308164230E+03  0.77528284648E+02  0.46274060129E+03  0.10566000000E+00 0. -1.
         -4    1    3    3    0  502 -0.15347563438E+03 -0.45733700607E+03 -0.37143358050E+02  0.48383006988E+03  0.00000000000E+00 0. -1.
        -13    1    1    2    0    0 -0.10906637402E+03  0.84255363770E+02  0.73194228160E+02  0.15605078169E+03  0.10566000000E+00 0.  1.
<mgrwt>
<rscale>  1 0.58431416E+03</rscale>
<asrwt>0</asrwt>
<pdfrwt beam="2">  1       21 0.76080177E-01 0.94570878E+03</pdfrwt>
<pdfrwt beam="1">  1       -4 0.93553892E-01 0.94570878E+03</pdfrwt>
<totfact> 0.57699131E+01</totfact>
</mgrwt>
</event>
<event>
 6    2  0.2345636E-005  0.1050662E+04  0.7818608E-02  0.9797751E-01
         -4   -1    0    0    0  501 -0.00000000000E+00  0.00000000000E+00  0.14657827559E+04  0.14657827559E+04  0.00000000000E+00 0. -1.
         21   -1    0    0  501  502  0.00000000000E+00 -0.00000000000E+00 -0.51756983960E+03  0.51756983960E+03  0.00000000000E+00 0. -1.
   -9000010    2    1    2    0  502 -0.42639990282E+02  0.15269717709E+03  0.29515468910E+02  0.10510760230E+04  0.10386313333E+04 0.  0.
         13    1    3    3    0    0  0.27070271335E+03 -0.26116614125E+03 -0.25946584859E+03  0.45695760208E+03  0.10566000000E+00 0. -1.
         -4    1    3    3    0  502 -0.31334270363E+03  0.41386331834E+03  0.28898131750E+03  0.59411842089E+03  0.00000000000E+00 0. -1.
        -13    1    1    2    0    0  0.42639990282E+02 -0.15269717709E+03  0.91869744742E+03  0.93227657255E+03  0.10566000000E+00 0.  1.
<mgrwt>
<rscale>  1 0.65483387E+03</rscale>
<asrwt>0</asrwt>
<pdfrwt beam="2">  1       21 0.79626130E-01 0.10506615E+04</pdfrwt>
<pdfrwt beam="1">  1       -4 0.22550504E+00 0.10506615E+04</pdfrwt>
<totfact> 0.47161969E+00</totfact>
</mgrwt>
</event>
<event>
 6    2  0.2345636E-005  0.1013972E+04  0.7818608E-02  0.9862428E-01
         -4   -1    0    0    0  501 -0.00000000000E+00  0.00000000000E+00  0.67006868033E+03  0.67006868033E+03  0.00000000000E+00 0. -1.
         21   -1    0    0  501  502  0.00000000000E+00 -0.00000000000E+00 -0.75930450575E+03  0.75930450575E+03  0.00000000000E+00 0. -1.
   -9000010    2    1    2    0  502 -0.56351912409E+02 -0.13122586472E+03 -0.39791703582E+03  0.10892557557E+04  0.10038647162E+04 0.  0.
         13    1    3    3    0    0 -0.14168179781E+03 -0.47113576722E+03  0.78106247325E+02  0.49813977960E+03  0.10566000000E+00 0. -1.
         -4    1    3    3    0  502  0.85329885404E+02  0.33990990250E+03 -0.47602328315E+03  0.59111597615E+03  0.00000000000E+00 0. -1.
        -13    1    1    2    0    0  0.56351912409E+02  0.13122586472E+03  0.30868121040E+03  0.34011743034E+03  0.10566000000E+00 0.  1.
<mgrwt>
<rscale>  1 0.62117240E+03</rscale>
<asrwt>0</asrwt>
<pdfrwt beam="2">  1       21 0.11681608E+00 0.10139725E+04</pdfrwt>
<pdfrwt beam="1">  1       -4 0.10308749E+00 0.10139725E+04</pdfrwt>
<totfact> 0.15930603E+01</totfact>
</mgrwt>
</event>
<event>
 6    2  0.2345636E-005  0.1260628E+04  0.7818608E-02  0.9194081E-01
         -4   -1    0    0    0  501 -0.00000000000E+00  0.00000000000E+00  0.15612155282E+04  0.15612155282E+04  0.00000000000E+00 0. -1.
         21   -1    0    0  501  502  0.00000000000E+00 -0.00000000000E+00 -0.95980141471E+03  0.95980141471E+03  0.00000000000E+00 0.  1.
   -9000010    2    1    2    0  502  0.51812898278E+03 -0.55844963745E+03 -0.34415194915E+03  0.13067604501E+04  0.10044195684E+04 0.  0.
         13    1    3    3    0    0 -0.14720322040E+03  0.76705321110E+01 -0.40506329835E+03  0.43104977902E+03  0.10566000000E+00 0. -1.
         -4    1    3    3    0  502  0.66533220319E+03 -0.56612016956E+03  0.60911349201E+02  0.87571067108E+03  0.00000000000E+00 0. -1.
        -13    1    1    2    0    0 -0.51812898278E+03  0.55844963745E+03  0.94556606264E+03  0.12142564928E+04  0.10566000000E+00 0.  1.
<mgrwt>
<rscale>  1 0.11114730E+04</rscale>
<asrwt>0</asrwt>
<pdfrwt beam="2">  1       21 0.14766176E+00 0.12606277E+04</pdfrwt>
<pdfrwt beam="1">  1       -4 0.24018700E+00 0.12606277E+04</pdfrwt>
<totfact> 0.76863870E-01</totfact>
</mgrwt>
</event>
<event>
 6    2  0.2345636E-005  0.1027598E+04  0.7818608E-02  0.9704096E-01
         21   -1    0    0  501  502  0.00000000000E+00  0.00000000000E+00  0.55600432215E+03  0.55600432215E+03  0.00000000000E+00 0. -1.
         -4   -1    0    0    0  501 -0.00000000000E+00 -0.00000000000E+00 -0.71569872715E+03  0.71569872715E+03  0.00000000000E+00 0. -1.
   -9000010    2    1    2    0  502  0.19639952060E+03  0.12200993515E+03 -0.16312852804E+03  0.10404650759E+04  0.10012479521E+04 0.  0.
         13    1    3    3    0    0  0.45396211771E+03  0.59071066585E+02 -0.45548559163E+03  0.64578489497E+03  0.10566000000E+00 0. -1.
         -4    1    3    3    0  502 -0.25756259711E+03  0.62938868561E+02  0.29235706359E+03  0.39468018095E+03  0.00000000000E+00 0. -1.
        -13    1    1    2    0    0 -0.19639952060E+03 -0.12200993515E+03  0.34341230412E+01  0.23123797338E+03  0.10566000000E+00 0.  1.
<mgrwt>
<rscale>  1 0.70773415E+03</rscale>
<asrwt>0</asrwt>
<pdfrwt beam="1">  1       21 0.85539127E-01 0.10275975E+04</pdfrwt>
<pdfrwt beam="2">  1       -4 0.11010750E+00 0.10275975E+04</pdfrwt>
<totfact> 0.29311069E+01</totfact>
</mgrwt>
</event>
<event>
 6    2  0.2345636E-005  0.9679432E+03  0.7818608E-02  0.9784595E-01
         -4   -1    0    0    0  501 -0.00000000000E+00  0.00000000000E+00  0.10474545381E+04  0.10474545381E+04  0.00000000000E+00 0. -1.
         21   -1    0    0  501  502  0.00000000000E+00 -0.00000000000E+00 -0.33963798438E+03  0.33963798438E+03  0.00000000000E+00 0. -1.
   -9000010    2    1    2    0  502  0.20802014948E+03  0.39438951313E+02  0.49609178484E+03  0.10876677366E+04  0.94450316717E+03 0.  0.
         13    1    3    3    0    0  0.44780872496E+03 -0.30701029194E+03  0.32597417303E+03  0.63328283267E+03  0.10566000000E+00 0. -1.
         -4    1    3    3    0  502 -0.23978857548E+03  0.34644924325E+03  0.17011761181E+03  0.45438490394E+03  0.00000000000E+00 0. -1.
        -13    1    1    2    0    0 -0.20802014948E+03 -0.39438951313E+02  0.21172476886E+03  0.29942478585E+03  0.10566000000E+00 0.  1.
<mgrwt>
<rscale>  1 0.66195865E+03</rscale>
<asrwt>0</asrwt>
<pdfrwt beam="2">  1       21 0.52251998E-01 0.96794320E+03</pdfrwt>
<pdfrwt beam="1">  1       -4 0.16114685E+00 0.96794320E+03</pdfrwt>
<totfact> 0.33667232E+01</totfact>
</mgrwt>
</event>
<event>
 6    2  0.2345636E-005  0.1043619E+04  0.7818608E-02  0.9588606E-01
         -4   -1    0    0    0  501 -0.00000000000E+00  0.00000000000E+00  0.23141383331E+04  0.23141383331E+04  0.00000000000E+00 0. -1.
         21   -1    0    0  501  502  0.00000000000E+00 -0.00000000000E+00 -0.21337464377E+03  0.21337464377E+03  0.00000000000E+00 0. -1.
   -9000010    2    1    2    0  502  0.31768612481E+03 -0.75651166463E+02  0.18146102404E+04  0.20933109728E+04  0.99120781433E+03 0.  0.
         13    1    3    3    0    0  0.53132911026E+03 -0.37519039253E+03  0.92667892180E+03  0.11321714929E+04  0.10566000000E+00 0. -1.
         -4    1    3    3    0  502 -0.21364298545E+03  0.29953922607E+03  0.88793131861E+03  0.96113947986E+03  0.00000000000E+00 0. -1.
        -13    1    1    2    0    0 -0.31768612481E+03  0.75651166463E+02  0.28615344894E+03  0.43420200413E+03  0.10566000000E+00 0.  1.
<mgrwt>
<rscale>  1 0.78054941E+03</rscale>
<asrwt>0</asrwt>
<pdfrwt beam="2">  1       21 0.32826870E-01 0.10436189E+04</pdfrwt>
<pdfrwt beam="1">  1       -4 0.35602126E+00 0.10436189E+04</pdfrwt>
<totfact> 0.49651580E+00</totfact>
</mgrwt>
</event>
<event>
 6    2  0.2345636E-005  0.1092927E+04  0.7818608E-02  0.9428204E-01
         -4   -1    0    0    0  501 -0.00000000000E+00  0.00000000000E+00  0.24219921691E+03  0.24219921691E+03  0.00000000000E+00 0. -1.
         21   -1    0    0  501  502  0.00000000000E+00 -0.00000000000E+00 -0.28031645306E+04  0.28031645306E+04  0.00000000000E+00 0.  1.
   -9000010    2    1    2    0  502 -0.49359175837E+03 -0.65411702248E+02 -0.20973628657E+04  0.23650412095E+04  0.97292210256E+03 0.  0.
         13    1    3    3    0    0 -0.16470007672E+03 -0.29225378318E+03 -0.18810082987E+04  0.19106885198E+04  0.10566000000E+00 0. -1.
         -4    1    3    3    0  502 -0.32889168165E+03  0.22684208093E+03 -0.21635456701E+03  0.45435268967E+03  0.00000000000E+00 0. -1.
        -13    1    1    2    0    0  0.49359175837E+03  0.65411702248E+02 -0.46360244799E+03  0.68032253797E+03  0.10566000000E+00 0.  1.
<mgrwt>
<rscale>  1 0.89790500E+03</rscale>
<asrwt>0</asrwt>
<pdfrwt beam="2">  1       21 0.43125608E+00 0.10929268E+04</pdfrwt>
<pdfrwt beam="1">  1       -4 0.37261418E-01 0.10929268E+04</pdfrwt>
<totfact> 0.10521255E+00</totfact>
</mgrwt>
</event>
<event>
 6    2  0.2345636E-005  0.9949366E+03  0.7818608E-02  0.9884787E-01
         21   -1    0    0  501  502  0.00000000000E+00  0.00000000000E+00  0.13136751149E+04  0.13136751149E+04  0.00000000000E+00 0. -1.
         -4   -1    0    0    0  501 -0.00000000000E+00 -0.00000000000E+00 -0.26480378168E+03  0.26480378168E+03  0.00000000000E+00 0. -1.
   -9000010    2    1    2    0  502 -0.12936983805E+03  0.55118736488E+02  0.10373950701E+04  0.14373890462E+04  0.98494878468E+03 0.  0.
         13    1    3    3    0    0  0.53177528425E+02  0.50573285828E+03  0.54578018304E+03  0.74596889535E+03  0.10566000000E+00 0. -1.
         -4    1    3    3    0  502 -0.18254736647E+03 -0.45061412179E+03  0.49161488708E+03  0.69142015082E+03  0.00000000000E+00 0. -1.
        -13    1    1    2    0    0  0.12936983805E+03 -0.55118736488E+02  0.11476263092E+02  0.14108985040E+03  0.10566000000E+00 0.  1.
<mgrwt>
<rscale>  1 0.61004253E+03</rscale>
<asrwt>0</asrwt>
<pdfrwt beam="1">  1       21 0.20210386E+00 0.99493655E+03</pdfrwt>
<pdfrwt beam="2">  1       -4 0.40739044E-01 0.99493655E+03</pdfrwt>
<totfact> 0.26407422E+01</totfact>
</mgrwt>
</event>
<event>
 6    2  0.2345636E-005  0.1011231E+04  0.7818608E-02  0.9876317E-01
         -4   -1    0    0    0  501 -0.00000000000E+00  0.00000000000E+00  0.19347935948E+04  0.19347935948E+04  0.00000000000E+00 0. -1.
         21   -1    0    0  501  502  0.00000000000E+00 -0.00000000000E+00 -0.17806892351E+03  0.17806892351E+03  0.00000000000E+00 0. -1.
   -9000010    2    1    2    0  502  0.36039991700E+02  0.13284602675E+03  0.13730485626E+04  0.17052422104E+04  0.10018191919E+04 0.  0.
         13    1    3    3    0    0  0.20422480121E+03 -0.39982795421E+03  0.68452603189E+03  0.81862449383E+03  0.10566000000E+00 0. -1.
         -4    1    3    3    0  502 -0.16818480951E+03  0.53267398096E+03  0.68852253068E+03  0.88661771660E+03  0.00000000000E+00 0. -1.
        -13    1    1    2    0    0 -0.36039991700E+02 -0.13284602675E+03  0.38367610871E+03  0.40762030787E+03  0.10566000000E+00 0.  1.
<mgrwt>
<rscale>  1 0.61422898E+03</rscale>
<asrwt>0</asrwt>
<pdfrwt beam="2">  1       21 0.27395220E-01 0.10112313E+04</pdfrwt>
<pdfrwt beam="1">  1       -4 0.29766054E+00 0.10112313E+04</pdfrwt>
<totfact> 0.16824529E+01</totfact>
</mgrwt>
</event>
<event>
 6    2  0.2345636E-005  0.1206547E+04  0.7818608E-02  0.9252567E-01
         21   -1    0    0  501  502  0.00000000000E+00  0.00000000000E+00  0.14466921899E+04  0.14466921899E+04  0.00000000000E+00 0.  1.
         -4   -1    0    0    0  501 -0.00000000000E+00 -0.00000000000E+00 -0.62803281839E+03  0.62803281839E+03  0.00000000000E+00 0. -1.
   -9000010    2    1    2    0  502 -0.12946832615E+03 -0.68706842071E+03  0.49168385476E+03  0.13028843110E+04  0.98332571038E+03 0.  0.
         13    1    3    3    0    0  0.28544945610E+03  0.10837326431E+03  0.79107963685E+02  0.31541121966E+03  0.10566000000E+00 0. -1.
         -4    1    3    3    0  502 -0.41491778225E+03 -0.79544168502E+03  0.41257589108E+03  0.98747309138E+03  0.00000000000E+00 0. -1.
        -13    1    1    2    0    0  0.12946832615E+03  0.68706842071E+03  0.32697551675E+03  0.77184069725E+03  0.10566000000E+00 0.  1.
<mgrwt>
<rscale>  1 0.10526944E+04</rscale>
<asrwt>0</asrwt>
<pdfrwt beam="1">  1       21 0.22256803E+00 0.12065465E+04</pdfrwt>
<pdfrwt beam="2">  1       -4 0.96620434E-01 0.12065465E+04</pdfrwt>
<totfact> 0.27875155E+00</totfact>
</mgrwt>
</event>
<event>
 6    2  0.2345636E-005  0.1064510E+04  0.7818608E-02  0.9554594E-01
         -4   -1    0    0    0  501 -0.00000000000E+00  0.00000000000E+00  0.14862641244E+04  0.14862641244E+04  0.00000000000E+00 0. -1.
         21   -1    0    0  501  502  0.00000000000E+00 -0.00000000000E+00 -0.48217847238E+03  0.48217847238E+03  0.00000000000E+00 0. -1.
   -9000010    2    1    2    0  502 -0.34341984290E+03  0.42016905430E+02  0.11725019186E+04  0.15836482896E+04  0.10067167165E+04 0.  0.
         13    1    3    3    0    0  0.32066067463E+03 -0.11375774390E+03  0.61438951403E+03  0.70230946075E+03  0.10566000000E+00 0. -1.
         -4    1    3    3    0  502 -0.66408051752E+03  0.15577464933E+03  0.55811240457E+03  0.88133882886E+03  0.00000000000E+00 0. -1.
        -13    1    1    2    0    0  0.34341984290E+03 -0.42016905430E+02 -0.16841626656E+03  0.38479430719E+03  0.10566000000E+00 0.  1.
<mgrwt>
<rscale>  1 0.80375792E+03</rscale>
<asrwt>0</asrwt>
<pdfrwt beam="2">  1       21 0.74181304E-01 0.10645098E+04</pdfrwt>
<pdfrwt beam="1">  1       -4 0.22865602E+00 0.10645098E+04</pdfrwt>
<totfact> 0.53061849E+00</totfact>
</mgrwt>
</event>
<event>
 6    2  0.2345636E-005  0.1016177E+04  0.7818608E-02  0.9611599E-01
         -4   -1    0    0    0  501 -0.00000000000E+00  0.00000000000E+00  0.82587241335E+03  0.82587241335E+03  0.00000000000E+00 0. -1.
         21   -1    0    0  501  502  0.00000000000E+00 -0.00000000000E+00 -0.69010732326E+03  0.69010732326E+03  0.00000000000E+00 0. -1.
   -9000010    2    1    2    0  502  0.14397939662E+03 -0.29354987859E+03 -0.21263832649E+03  0.10381863192E+04  0.96214041471E+03 0.  0.
         13    1    3    3    0    0  0.18057076023E+03 -0.51926244646E+03  0.18452388207E+03  0.57990375234E+03  0.10566000000E+00 0. -1.
         -4    1    3    3    0  502 -0.36591363610E+02  0.22571256787E+03 -0.39716220856E+03  0.45828256687E+03  0.00000000000E+00 0. -1.
        -13    1    1    2    0    0 -0.14397939662E+03  0.29354987859E+03  0.34840341658E+03  0.47779341741E+03  0.10566000000E+00 0.  1.
<mgrwt>
<rscale>  1 0.76533234E+03</rscale>
<asrwt>0</asrwt>
<pdfrwt beam="2">  1       21 0.10617036E+00 0.10161770E+04</pdfrwt>
<pdfrwt beam="1">  1       -4 0.12705729E+00 0.10161770E+04</pdfrwt>
<totfact> 0.12068188E+01</totfact>
</mgrwt>
</event>
<event>
 6    2  0.2345636E-005  0.1049419E+04  0.7818608E-02  0.9633335E-01
         -4   -1    0    0    0  501 -0.00000000000E+00  0.00000000000E+00  0.48484194847E+03  0.48484194847E+03  0.00000000000E+00 0. -1.
         21   -1    0    0  501  502  0.00000000000E+00 -0.00000000000E+00 -0.10139603040E+04  0.10139603040E+04  0.00000000000E+00 0. -1.
   -9000010    2    1    2    0  502 -0.13515453701E+03 -0.24025394572E+03 -0.60703558910E+03  0.12123414109E+04  0.10125664338E+04 0.  0.
         13    1    3    3    0    0 -0.42724297795E+03  0.17782266199E+03 -0.51802684186E+03  0.69462888032E+03  0.10566000000E+00 0. -1.
         -4    1    3    3    0  502  0.29208844094E+03 -0.41807660771E+03 -0.89008747240E+02  0.51771253059E+03  0.00000000000E+00 0. -1.
        -13    1    1    2    0    0  0.13515453701E+03  0.24025394572E+03  0.77917233543E+02  0.28646084158E+03  0.10566000000E+00 0.  1.
<mgrwt>
<rscale>  1 0.75128587E+03</rscale>
<asrwt>0</asrwt>
<pdfrwt beam="2">  1       21 0.15599389E+00 0.10494186E+04</pdfrwt>
<pdfrwt beam="1">  1       -4 0.74591069E-01 0.10494186E+04</pdfrwt>
<totfact> 0.15534690E+01</totfact>
</mgrwt>
</event>
<event>
 6    2  0.2345636E-005  0.1004945E+04  0.7818608E-02  0.9990323E-01
         21   -1    0    0  501  502  0.00000000000E+00  0.00000000000E+00  0.28417330560E+04  0.28417330560E+04  0.00000000000E+00 0. -1.
         -4   -1    0    0    0  501 -0.00000000000E+00 -0.00000000000E+00 -0.12962989198E+03  0.12962989198E+03  0.00000000000E+00 0. -1.
   -9000010    2    1    2    0  502 -0.97160743346E+02  0.72591358358E+01  0.26898156469E+04  0.28714147130E+04  0.10002106451E+04 0.  0.
         13    1    3    3    0    0  0.23183015877E+02 -0.47462830607E+03  0.95193006663E+03  0.10639456490E+04  0.10566000000E+00 0. -1.
         -4    1    3    3    0  502 -0.12034375922E+03  0.48188744191E+03  0.17378855803E+04  0.18074690640E+04  0.00000000000E+00 0. -1.
        -13    1    1    2    0    0  0.97160743346E+02 -0.72591358358E+01  0.22287517155E+02  0.99948235030E+02  0.10566000000E+00 0.  1.
<mgrwt>
<rscale>  1 0.56076596E+03</rscale>
<asrwt>0</asrwt>
<pdfrwt beam="1">  1       21 0.43718965E+00 0.10049449E+04</pdfrwt>
<pdfrwt beam="2">  1       -4 0.19943062E-01 0.10049449E+04</pdfrwt>
<totfact> 0.32784038E+00</totfact>
</mgrwt>
</event>
<event>
 6    2  0.2345636E-005  0.1042046E+04  0.7818608E-02  0.9637162E-01
         -4   -1    0    0    0  501 -0.00000000000E+00  0.00000000000E+00  0.73364875460E+03  0.73364875460E+03  0.00000000000E+00 0. -1.
         21   -1    0    0  501  502  0.00000000000E+00 -0.00000000000E+00 -0.60245682178E+03  0.60245682178E+03  0.00000000000E+00 0. -1.
   -9000010    2    1    2    0  502 -0.27619516140E+03  0.30857516151E+02  0.37135900228E+02  0.10427073795E+04  0.10043025693E+04 0.  0.
         13    1    3    3    0    0 -0.31955749053E+03  0.44917474518E+03 -0.16594334174E+03  0.57568406725E+03  0.10566000000E+00 0. -1.
         -4    1    3    3    0  502  0.43362329129E+02 -0.41831722903E+03  0.20307924197E+03  0.46702331227E+03  0.00000000000E+00 0. -1.
        -13    1    1    2    0    0  0.27619516140E+03 -0.30857516151E+02  0.94056032600E+02  0.29339819685E+03  0.10566000000E+00 0.  1.
<mgrwt>
<rscale>  1 0.74884611E+03</rscale>
<asrwt>0</asrwt>
<pdfrwt beam="2">  1       21 0.92685665E-01 0.10420459E+04</pdfrwt>
<pdfrwt beam="1">  1       -4 0.11286904E+00 0.10420459E+04</pdfrwt>
<totfact> 0.22693955E+01</totfact>
</mgrwt>
</event>
<event>
 6    2  0.2345636E-005  0.1084988E+04  0.7818608E-02  0.9457237E-01
         -4   -1    0    0    0  501 -0.00000000000E+00  0.00000000000E+00  0.80150477725E+03  0.80150477725E+03  0.00000000000E+00 0. -1.
         21   -1    0    0  501  502  0.00000000000E+00 -0.00000000000E+00 -0.93216963935E+03  0.93216963935E+03  0.00000000000E+00 0. -1.
   -9000010    2    1    2    0  502 -0.27408350034E+03 -0.36840770429E+03 -0.44975313679E+03  0.11745113456E+04  0.98303256059E+03 0.  0.
         13    1    3    3    0    0 -0.23166686969E+02 -0.68174336215E+03 -0.25386131589E+03  0.72784358629E+03  0.10566000000E+00 0. -1.
         -4    1    3    3    0  502 -0.25091681337E+03  0.31333565787E+03 -0.19589182090E+03  0.44666775933E+03  0.00000000000E+00 0. -1.
        -13    1    1    2    0    0  0.27408350034E+03  0.36840770429E+03  0.31908827469E+03  0.55916307098E+03  0.10566000000E+00 0.  1.
<mgrwt>
<rscale>  1 0.87511350E+03</rscale>
<asrwt>0</asrwt>
<pdfrwt beam="2">  1       21 0.14341071E+00 0.10849880E+04</pdfrwt>
<pdfrwt beam="1">  1       -4 0.12330843E+00 0.10849880E+04</pdfrwt>
<totfact> 0.58738191E+00</totfact>
</mgrwt>
</event>
<event>
 6    2  0.2345636E-005  0.1130661E+04  0.7818608E-02  0.9390304E-01
         21   -1    0    0  501  502  0.00000000000E+00  0.00000000000E+00  0.57744091356E+03  0.57744091356E+03  0.00000000000E+00 0. -1.
         -4   -1    0    0    0  501 -0.00000000000E+00 -0.00000000000E+00 -0.11856877852E+04  0.11856877852E+04  0.00000000000E+00 0. -1.
   -9000010    2    1    2    0  502 -0.29681561290E+03  0.42063837102E+03 -0.32951386169E+03  0.11776987292E+04  0.10066572230E+04 0.  0.
         13    1    3    3    0    0 -0.52533299923E+03  0.62569641659E+03 -0.29550318979E+03  0.86878818601E+03  0.10566000000E+00 0. -1.
         -4    1    3    3    0  502  0.22851738633E+03 -0.20505804557E+03 -0.34010671901E+02  0.30891054322E+03  0.00000000000E+00 0. -1.
        -13    1    1    2    0    0  0.29681561290E+03 -0.42063837102E+03 -0.27873300998E+03  0.58542996956E+03  0.10566000000E+00 0.  1.
<mgrwt>
<rscale>  1 0.92877930E+03</rscale>
<asrwt>0</asrwt>
<pdfrwt beam="1">  1       21 0.88837065E-01 0.11306613E+04</pdfrwt>
<pdfrwt beam="2">  1       -4 0.18241350E+00 0.11306613E+04</pdfrwt>
<totfact> 0.69283403E+00</totfact>
</mgrwt>
</event>
<event>
 6    2  0.2345636E-005  0.9971444E+03  0.7818608E-02  0.9815954E-01
         21   -1    0    0  501  502  0.00000000000E+00  0.00000000000E+00  0.42205277951E+03  0.42205277951E+03  0.00000000000E+00 0. -1.
         -4   -1    0    0    0  501 -0.00000000000E+00 -0.00000000000E+00 -0.13094431617E+04  0.13094431617E+04  0.00000000000E+00 0. -1.
   -9000010    2    1    2    0  502 -0.15998954620E+03  0.70198024252E+02 -0.19323983056E+03  0.10156960970E+04  0.98171916138E+03 0.  0.
         13    1    3    3    0    0 -0.43299839494E+03  0.38098733962E+03 -0.17040248744E+03  0.60139502980E+03  0.10566000000E+00 0. -1.
         -4    1    3    3    0  502  0.27300884874E+03 -0.31078931537E+03 -0.22837343124E+02  0.41430106720E+03  0.00000000000E+00 0. -1.
        -13    1    1    2    0    0  0.15998954620E+03 -0.70198024252E+02 -0.69415055161E+03  0.71579984421E+03  0.10566000000E+00 0.  1.
<mgrwt>
<rscale>  1 0.64513333E+03</rscale>
<asrwt>0</asrwt>
<pdfrwt beam="1">  1       21 0.64931198E-01 0.99714439E+03</pdfrwt>
<pdfrwt beam="2">  1       -4 0.20145279E+00 0.99714439E+03</pdfrwt>
<totfact> 0.10862229E+01</totfact>
</mgrwt>
</event>
<event>
 6    2  0.2345636E-005  0.1120128E+04  0.7818608E-02  0.9426999E-01
         21   -1    0    0  501  502  0.00000000000E+00  0.00000000000E+00  0.19603324969E+04  0.19603324969E+04  0.00000000000E+00 0. -1.
         -4   -1    0    0    0  501 -0.00000000000E+00 -0.00000000000E+00 -0.33716435007E+03  0.33716435007E+03  0.00000000000E+00 0. -1.
   -9000010    2    1    2    0  502  0.11273610779E+02 -0.46435515210E+03  0.13661084940E+04  0.17666178797E+04  0.10192808808E+04 0.  0.
         13    1    3    3    0    0  0.23045459302E+03 -0.30307741048E+03  0.72835464363E+01  0.38081268020E+03  0.10566000000E+00 0. -1.
         -4    1    3    3    0  502 -0.21918098224E+03 -0.16127774163E+03  0.13588249476E+04  0.13858051995E+04  0.00000000000E+00 0. -1.
        -13    1    1    2    0    0 -0.11273610779E+02  0.46435515210E+03  0.25705965285E+03  0.53087896725E+03  0.10566000000E+00 0.  1.
<mgrwt>
<rscale>  1 0.89886660E+03</rscale>
<asrwt>0</asrwt>
<pdfrwt beam="1">  1       21 0.30158961E+00 0.11201278E+04</pdfrwt>
<pdfrwt beam="2">  1       -4 0.51871440E-01 0.11201278E+04</pdfrwt>
<totfact> 0.36033788E+00</totfact>
</mgrwt>
</event>
<event>
 6    2  0.2345636E-005  0.1085661E+04  0.7818608E-02  0.9437008E-01
         21   -1    0    0  501  502  0.00000000000E+00  0.00000000000E+00  0.50596462501E+03  0.50596462501E+03  0.00000000000E+00 0. -1.
         -4   -1    0    0    0  501 -0.00000000000E+00 -0.00000000000E+00 -0.14177631496E+04  0.14177631496E+04  0.00000000000E+00 0. -1.
   -9000010    2    1    2    0  502  0.16184105598E+03  0.46497991246E+03 -0.27711378376E+03  0.11204696730E+04  0.96760601100E+03 0.  0.
         13    1    3    3    0    0  0.85506127942E+02  0.33464293246E+03 -0.64008325629E+03  0.72732645786E+03  0.10566000000E+00 0. -1.
         -4    1    3    3    0  502  0.76334928033E+02  0.13033698001E+03  0.36296947254E+03  0.39314321511E+03  0.00000000000E+00 0. -1.
        -13    1    1    2    0    0 -0.16184105598E+03 -0.46497991246E+03 -0.63468474079E+03  0.80325810158E+03  0.10566000000E+00 0.  1.
<mgrwt>
<rscale>  1 0.89091662E+03</rscale>
<asrwt>0</asrwt>
<pdfrwt beam="1">  1       21 0.77840711E-01 0.10856612E+04</pdfrwt>
<pdfrwt beam="2">  1       -4 0.21811741E+00 0.10856612E+04</pdfrwt>
<totfact> 0.55198793E+00</totfact>
</mgrwt>
</event>
<event>
 6    2  0.2345636E-005  0.1088659E+04  0.7818608E-02  0.9472310E-01
         -4   -1    0    0    0  501 -0.00000000000E+00  0.00000000000E+00  0.14114908989E+04  0.14114908989E+04  0.00000000000E+00 0. -1.
         21   -1    0    0  501  502  0.00000000000E+00 -0.00000000000E+00 -0.53805527981E+03  0.53805527981E+03  0.00000000000E+00 0. -1.
   -9000010    2    1    2    0  502  0.16236466129E+03 -0.39927451584E+03  0.13835471632E+03  0.10974156916E+04  0.99969832974E+03 0.  0.
         13    1    3    3    0    0 -0.23808090376E+03 -0.29666048280E+03 -0.30770592128E+03  0.48925750270E+03  0.10566000000E+00 0. -1.
         -4    1    3    3    0  502  0.40044556505E+03 -0.10261403303E+03  0.44606063761E+03  0.60815818893E+03  0.00000000000E+00 0. -1.
        -13    1    1    2    0    0 -0.16236466129E+03  0.39927451584E+03  0.73508090273E+03  0.85213048705E+03  0.10566000000E+00 0.  1.
<mgrwt>
<rscale>  1 0.86356411E+03</rscale>
<asrwt>0</asrwt>
<pdfrwt beam="2">  1       21 0.82777736E-01 0.10886593E+04</pdfrwt>
<pdfrwt beam="1">  1       -4 0.21715244E+00 0.10886593E+04</pdfrwt>
<totfact> 0.48415700E+00</totfact>
</mgrwt>
</event>
<event>
 6    2  0.2345636E-005  0.9186673E+03  0.7818608E-02  0.1001333E+00
         -4   -1    0    0    0  501 -0.00000000000E+00  0.00000000000E+00  0.16067659954E+04  0.16067659954E+04  0.00000000000E+00 0. -1.
         21   -1    0    0  501  502  0.00000000000E+00 -0.00000000000E+00 -0.18636152527E+03  0.18636152527E+03  0.00000000000E+00 0. -1.
   -9000010    2    1    2    0  502  0.78093484351E+02 -0.89292546055E+02  0.13973479739E+04  0.16722831403E+04  0.91097628399E+03 0.  0.
         13    1    3    3    0    0 -0.20379340267E+03  0.33322850487E+03  0.43871300027E+03  0.58740283894E+03  0.10566000000E+00 0. -1.
         -4    1    3    3    0  502  0.28188688702E+03 -0.42252105092E+03  0.95863497367E+03  0.10848803014E+04  0.00000000000E+00 0. -1.
        -13    1    1    2    0    0 -0.78093484351E+02  0.89292546055E+02  0.23056496172E+02  0.12084438034E+03  0.10566000000E+00 0.  1.
<mgrwt>
<rscale>  1 0.55069647E+03</rscale>
<asrwt>0</asrwt>
<pdfrwt beam="2">  1       21 0.28671005E-01 0.91866726E+03</pdfrwt>
<pdfrwt beam="1">  1       -4 0.24719476E+00 0.91866726E+03</pdfrwt>
<totfact> 0.31750751E+01</totfact>
</mgrwt>
</event>
<event>
 6    2  0.2345636E-005  0.1052890E+04  0.7818608E-02  0.9615343E-01
         -4   -1    0    0    0  501 -0.00000000000E+00  0.00000000000E+00  0.80241519892E+03  0.80241519892E+03  0.00000000000E+00 0. -1.
         21   -1    0    0  501  502  0.00000000000E+00 -0.00000000000E+00 -0.58671050286E+03  0.58671050286E+03  0.00000000000E+00 0. -1.
   -9000010    2    1    2    0  502 -0.77214777441E+02  0.27973861301E+03  0.48067420488E+02  0.10539868040E+04  0.10121076488E+04 0.  0.
         13    1    3    3    0    0  0.12202849365E+03 -0.35187175120E+03  0.11124205818E+03  0.38868945089E+03  0.10566000000E+00 0. -1.
         -4    1    3    3    0  502 -0.19924327110E+03  0.63161036421E+03 -0.63174637697E+02  0.66529735314E+03  0.00000000000E+00 0. -1.
        -13    1    1    2    0    0  0.77214777441E+02 -0.27973861301E+03  0.16763727558E+03  0.33513889775E+03  0.10566000000E+00 0.  1.
<mgrwt>
<rscale>  1 0.76288929E+03</rscale>
<asrwt>0</asrwt>
<pdfrwt beam="2">  1       21 0.90263154E-01 0.10528902E+04</pdfrwt>
<pdfrwt beam="1">  1       -4 0.12344849E+00 0.10528902E+04</pdfrwt>
<totfact> 0.19314463E+01</totfact>
</mgrwt>
</event>
<event>
 6    2  0.2345636E-005  0.1023225E+04  0.7818608E-02  0.9624261E-01
         21   -1    0    0  501  502  0.00000000000E+00  0.00000000000E+00  0.46251431992E+03  0.46251431992E+03  0.00000000000E+00 0. -1.
         -4   -1    0    0    0  501 -0.00000000000E+00 -0.00000000000E+00 -0.99211644606E+03  0.99211644606E+03  0.00000000000E+00 0. -1.
   -9000010    2    1    2    0  502  0.25405997385E+03 -0.17182018674E+03 -0.28455944621E+03  0.10620564762E+04  0.97617684526E+03 0.  0.
         13    1    3    3    0    0  0.11511286416E+03 -0.42187555446E+03  0.21430823986E+03  0.48698869369E+03  0.10566000000E+00 0. -1.
         -4    1    3    3    0  502  0.13894710969E+03  0.25005536772E+03 -0.49886768607E+03  0.57506778246E+03  0.00000000000E+00 0. -1.
        -13    1    1    2    0    0 -0.25405997385E+03  0.17182018674E+03 -0.24504267992E+03  0.39257428982E+03  0.10566000000E+00 0.  1.
<mgrwt>
<rscale>  1 0.75711012E+03</rscale>
<asrwt>0</asrwt>
<pdfrwt beam="1">  1       21 0.71156050E-01 0.10232252E+04</pdfrwt>
<pdfrwt beam="2">  1       -4 0.15263330E+00 0.10232252E+04</pdfrwt>
<totfact> 0.19476678E+01</totfact>
</mgrwt>
</event>
<event>
 6    2  0.2345636E-005  0.1023125E+04  0.7818608E-02  0.9574234E-01
         21   -1    0    0  501  502  0.00000000000E+00  0.00000000000E+00  0.23444633349E+04  0.23444633349E+04  0.00000000000E+00 0. -1.
         -4   -1    0    0    0  501 -0.00000000000E+00 -0.00000000000E+00 -0.21799744433E+03  0.21799744433E+03  0.00000000000E+00 0. -1.
   -9000010    2    1    2    0  502  0.39170135752E+02 -0.36203409183E+03  0.12634078043E+04  0.16257258890E+04  0.95612886315E+03 0.  0.
         13    1    3    3    0    0  0.19787894820E+03  0.27935455269E+03  0.28677001771E+03  0.44657821092E+03  0.10566000000E+00 0. -1.
         -4    1    3    3    0  502 -0.15870881245E+03 -0.64138864452E+03  0.97663778659E+03  0.11791476781E+04  0.00000000000E+00 0. -1.
        -13    1    1    2    0    0 -0.39170135752E+02  0.36203409183E+03  0.86305808629E+03  0.93673489027E+03  0.10566000000E+00 0.  1.
<mgrwt>
<rscale>  1 0.79025243E+03</rscale>
<asrwt>0</asrwt>
<pdfrwt beam="1">  1       21 0.36068665E+00 0.10231253E+04</pdfrwt>
<pdfrwt beam="2">  1       -4 0.33538070E-01 0.10231253E+04</pdfrwt>
<totfact> 0.38205080E+00</totfact>
</mgrwt>
</event>
<event>
 6    2  0.2345636E-005  0.1054358E+04  0.7818608E-02  0.9560091E-01
         -4   -1    0    0    0  501 -0.00000000000E+00  0.00000000000E+00  0.60088601985E+03  0.60088601985E+03  0.00000000000E+00 0. -1.
         21   -1    0    0  501  502  0.00000000000E+00 -0.00000000000E+00 -0.88910337288E+03  0.88910337288E+03  0.00000000000E+00 0.  1.
   -9000010    2    1    2    0  502 -0.24418282851E+03  0.24986661622E+03 -0.28646647729E+02  0.10547474579E+04  0.99479293818E+03 0.  0.
         13    1    3    3    0    0  0.28170369238E+02 -0.23866320330E+03 -0.33865578723E+03  0.41526069848E+03  0.10566000000E+00 0. -1.
         -4    1    3    3    0  502 -0.27235319775E+03  0.48852981952E+03  0.31000913950E+03  0.63948675941E+03  0.00000000000E+00 0. -1.
        -13    1    1    2    0    0  0.24418282851E+03 -0.24986661622E+03 -0.25957070529E+03  0.43524193485E+03  0.10566000000E+00 0.  1.
<mgrwt>
<rscale>  1 0.79994897E+03</rscale>
<asrwt>0</asrwt>
<pdfrwt beam="2">  1       21 0.13678513E+00 0.10543584E+04</pdfrwt>
<pdfrwt beam="1">  1       -4 0.92444003E-01 0.10543584E+04</pdfrwt>
<totfact> 0.13587003E+01</totfact>
</mgrwt>
</event>
<event>
 6    2  0.2345636E-005  0.1207549E+04  0.7818608E-02  0.9355975E-01
         -4   -1    0    0    0  501 -0.00000000000E+00  0.00000000000E+00  0.39593752129E+03  0.39593752129E+03  0.00000000000E+00 0. -1.
         21   -1    0    0  501  502  0.00000000000E+00 -0.00000000000E+00 -0.17972057410E+04  0.17972057410E+04  0.00000000000E+00 0. -1.
   -9000010    2    1    2    0  502 -0.46953606698E+03 -0.90268450309E+02 -0.96269994692E+03  0.15443330802E+04  0.11088557000E+04 0.  0.
         13    1    3    3    0    0 -0.37808167989E+03  0.48960241721E+03 -0.45042008286E+03  0.76520229078E+03  0.10566000000E+00 0. -1.
         -4    1    3    3    0  502 -0.91454387097E+02 -0.57987086752E+03 -0.51227986406E+03  0.77913078943E+03  0.00000000000E+00 0. -1.
        -13    1    1    2    0    0  0.46953606698E+03  0.90268450309E+02 -0.43856827280E+03  0.64881018210E+03  0.10566000000E+00 0.  1.
<mgrwt>
<rscale>  1 0.95789080E+03</rscale>
<asrwt>0</asrwt>
<pdfrwt beam="2">  1       21 0.27649319E+00 0.12075485E+04</pdfrwt>
<pdfrwt beam="1">  1       -4 0.60913465E-01 0.12075485E+04</pdfrwt>
<totfact> 0.36087499E+00</totfact>
</mgrwt>
</event>
<event>
 6    2  0.2345636E-005  0.1023971E+04  0.7818608E-02  0.9698808E-01
         -4   -1    0    0    0  501 -0.00000000000E+00  0.00000000000E+00  0.28505683915E+03  0.28505683915E+03  0.00000000000E+00 0. -1.
         21   -1    0    0  501  502  0.00000000000E+00 -0.00000000000E+00 -0.15923884068E+04  0.15923884068E+04  0.00000000000E+00 0. -1.
   -9000010    2    1    2    0  502  0.15153784743E+03 -0.18333761004E+03 -0.12782504566E+04  0.16378161145E+04  0.99596234696E+03 0.  0.
         13    1    3    3    0    0  0.63862542618E+02  0.39213257490E+03 -0.29376474865E+03  0.49410942043E+03  0.10566000000E+00 0. -1.
         -4    1    3    3    0  502  0.87675304812E+02 -0.57547018493E+03 -0.98448570799E+03  0.11437066941E+04  0.00000000000E+00 0. -1.
        -13    1    1    2    0    0 -0.15153784743E+03  0.18333761004E+03 -0.29081111003E+02  0.23962913145E+03  0.10566000000E+00 0.  1.
<mgrwt>
<rscale>  1 0.71087835E+03</rscale>
<asrwt>0</asrwt>
<pdfrwt beam="2">  1       21 0.24498284E+00 0.10239714E+04</pdfrwt>
<pdfrwt beam="1">  1       -4 0.43854897E-01 0.10239714E+04</pdfrwt>
<totfact> 0.11798234E+01</totfact>
</mgrwt>
</event>
<event>
 6    2  0.2345636E-005  0.1024257E+04  0.7818608E-02  0.1015844E+00
         21   -1    0    0  501  502  0.00000000000E+00  0.00000000000E+00  0.26273948756E+03  0.26273948756E+03  0.00000000000E+00 0. -1.
         -4   -1    0    0    0  501 -0.00000000000E+00 -0.00000000000E+00 -0.11159652771E+04  0.11159652771E+04  0.00000000000E+00 0. -1.
   -9000010    2    1    2    0  502  0.21567099057E+02  0.50164420459E+02 -0.83386419345E+03  0.13207695301E+04  0.10228005913E+04 0.  0.
         13    1    3    3    0    0  0.16309745394E+03 -0.46226860289E+03 -0.44564346068E+03  0.66248860059E+03  0.10566000000E+00 0. -1.
         -4    1    3    3    0  502 -0.14153035488E+03  0.51243302335E+03 -0.38822073277E+03  0.65828092949E+03  0.00000000000E+00 0. -1.
        -13    1    1    2    0    0 -0.21567099057E+02 -0.50164420459E+02 -0.19361596117E+02  0.57935234616E+02  0.10566000000E+00 0.  1.
<mgrwt>
<rscale>  1 0.49216796E+03</rscale>
<asrwt>0</asrwt>
<pdfrwt beam="1">  1       21 0.40421460E-01 0.10242571E+04</pdfrwt>
<pdfrwt beam="2">  1       -4 0.17168697E+00 0.10242571E+04</pdfrwt>
<totfact> 0.48573232E+01</totfact>
</mgrwt>
</event>
<event>
 6    2  0.2345636E-005  0.1084816E+04  0.7818608E-02  0.9452672E-01
         21   -1    0    0  501  502  0.00000000000E+00  0.00000000000E+00  0.82830496329E+03  0.82830496329E+03  0.00000000000E+00 0.  1.
         -4   -1    0    0    0  501 -0.00000000000E+00 -0.00000000000E+00 -0.82104252638E+03  0.82104252638E+03  0.00000000000E+00 0. -1.
   -9000010    2    1    2    0  502 -0.35689750006E+03  0.30097974619E+03  0.26409397574E+03  0.11164994028E+04  0.97921430510E+03 0.  0.
         13    1    3    3    0    0 -0.41774647575E+03  0.50824277059E+03 -0.12669726301E+03  0.66998137249E+03  0.10566000000E+00 0. -1.
         -4    1    3    3    0  502  0.60848975694E+02 -0.20726302440E+03  0.39079123876E+03  0.44651803033E+03  0.00000000000E+00 0. -1.
        -13    1    1    2    0    0  0.35689750006E+03 -0.30097974619E+03 -0.25683153883E+03  0.53284808686E+03  0.10566000000E+00 0.  1.
<mgrwt>
<rscale>  1 0.87864867E+03</rscale>
<asrwt>0</asrwt>
<pdfrwt beam="1">  1       21 0.12743153E+00 0.10848158E+04</pdfrwt>
<pdfrwt beam="2">  1       -4 0.12631424E+00 0.10848158E+04</pdfrwt>
<totfact> 0.75963470E+00</totfact>
</mgrwt>
</event>
<event>
 6    2  0.2345636E-005  0.1117658E+04  0.7818608E-02  0.9437581E-01
         21   -1    0    0  501  502  0.00000000000E+00  0.00000000000E+00  0.57480386794E+03  0.57480386794E+03  0.00000000000E+00 0.  1.
         -4   -1    0    0    0  501 -0.00000000000E+00 -0.00000000000E+00 -0.12719850773E+04  0.12719850773E+04  0.00000000000E+00 0. -1.
   -9000010    2    1    2    0  502  0.64543431581E+02 -0.44568867221E+03 -0.81266836593E+03  0.13818786941E+04  0.10229147595E+04 0.  0.
         13    1    3    3    0    0 -0.43282173773E+03 -0.43228248223E+03 -0.53159526208E+03  0.81042972239E+03  0.10566000000E+00 0. -1.
         -4    1    3    3    0  502  0.49736516931E+03 -0.13406189977E+02 -0.28107310385E+03  0.57144897172E+03  0.00000000000E+00 0. -1.
        -13    1    1    2    0    0 -0.64543431581E+02  0.44568867221E+03  0.11548715658E+03  0.46491025112E+03  0.10566000000E+00 0.  1.
<mgrwt>
<rscale>  1 0.89046389E+03</rscale>
<asrwt>0</asrwt>
<pdfrwt beam="1">  1       21 0.88431367E-01 0.11176578E+04</pdfrwt>
<pdfrwt beam="2">  1       -4 0.19569001E+00 0.11176578E+04</pdfrwt>
<totfact> 0.56952588E+00</totfact>
</mgrwt>
</event>
<event>
 6    2  0.2345636E-005  0.1109680E+04  0.7818608E-02  0.9418774E-01
         -4   -1    0    0    0  501 -0.00000000000E+00  0.00000000000E+00  0.10394546317E+04  0.10394546317E+04  0.00000000000E+00 0. -1.
         21   -1    0    0  501  502  0.00000000000E+00 -0.00000000000E+00 -0.65648742889E+03  0.65648742889E+03  0.00000000000E+00 0. -1.
   -9000010    2    1    2    0  502  0.45522068486E+03 -0.18643980514E+03  0.67863176599E+02  0.11117535368E+04  0.99468831445E+03 0.  0.
         13    1    3    3    0    0 -0.12600590870E+03 -0.42572215533E+03  0.16911467058E+03  0.47509643815E+03  0.10566000000E+00 0. -1.
         -4    1    3    3    0  502  0.58122659357E+03  0.23928235019E+03 -0.10125149399E+03  0.63665709862E+03  0.00000000000E+00 0. -1.
        -13    1    1    2    0    0 -0.45522068486E+03  0.18643980514E+03  0.31510402623E+03  0.58418852383E+03  0.10566000000E+00 0.  1.
<mgrwt>
<rscale>  1 0.90546598E+03</rscale>
<asrwt>0</asrwt>
<pdfrwt beam="2">  1       21 0.10099807E+00 0.11096804E+04</pdfrwt>
<pdfrwt beam="1">  1       -4 0.15991610E+00 0.11096804E+04</pdfrwt>
<totfact> 0.73639583E+00</totfact>
</mgrwt>
</event>
<event>
 6    2  0.2345636E-005  0.1054376E+04  0.7818608E-02  0.9576405E-01
         -4   -1    0    0    0  501 -0.00000000000E+00  0.00000000000E+00  0.14544151053E+04  0.14544151053E+04  0.00000000000E+00 0. -1.
         21   -1    0    0  501  502  0.00000000000E+00 -0.00000000000E+00 -0.38787086397E+03  0.38787086397E+03  0.00000000000E+00 0. -1.
   -9000010    2    1    2    0  502 -0.85401464162E+02  0.31900805975E+03  0.45725991018E+03  0.11492585819E+04  0.10013236791E+04 0.  0.
         13    1    3    3    0    0 -0.54017372028E+03  0.23027332408E+03  0.20686209738E+03  0.62257962572E+03  0.10566000000E+00 0. -1.
         -4    1    3    3    0  502  0.45477225612E+03  0.88734735670E+02  0.25039781280E+03  0.52667895620E+03  0.00000000000E+00 0. -1.
        -13    1    1    2    0    0  0.85401464162E+02 -0.31900805975E+03  0.60928433115E+03  0.69302738735E+03  0.10566000000E+00 0.  1.
<mgrwt>
<rscale>  1 0.78877764E+03</rscale>
<asrwt>0</asrwt>
<pdfrwt beam="2">  1       21 0.59672441E-01 0.10543760E+04</pdfrwt>
<pdfrwt beam="1">  1       -4 0.22375617E+00 0.10543760E+04</pdfrwt>
<totfact> 0.93585854E+00</totfact>
</mgrwt>
</event>
<event>
 6    2  0.2345636E-005  0.9961378E+03  0.7818608E-02  0.9916563E-01
         -4   -1    0    0    0  501 -0.00000000000E+00  0.00000000000E+00  0.13268205185E+04  0.13268205185E+04  0.00000000000E+00 0. -1.
         21   -1    0    0  501  502  0.00000000000E+00 -0.00000000000E+00 -0.37622469430E+03  0.37622469430E+03  0.00000000000E+00 0. -1.
   -9000010    2    1    2    0  502 -0.81306344323E+02  0.96911171511E+02  0.30009631044E+03  0.10403596725E+04  0.98807284944E+03 0.  0.
         13    1    3    3    0    0 -0.30874152539E+03 -0.11483756970E+03  0.55033102689E+03  0.64138385328E+03  0.10566000000E+00 0. -1.
         -4    1    3    3    0  502  0.22743518107E+03  0.21174874121E+03 -0.25023471645E+03  0.39897581921E+03  0.00000000000E+00 0. -1.
        -13    1    1    2    0    0  0.81306344323E+02 -0.96911171511E+02  0.65049951379E+03  0.66268554036E+03  0.10566000000E+00 0.  1.
<mgrwt>
<rscale>  1 0.59465224E+03</rscale>
<asrwt>0</asrwt>
<pdfrwt beam="2">  1       21 0.57880723E-01 0.99613777E+03</pdfrwt>
<pdfrwt beam="1">  1       -4 0.20412623E+00 0.99613777E+03</pdfrwt>
<totfact> 0.13492101E+01</totfact>
</mgrwt>
</event>
<event>
 6    2  0.2345636E-005  0.1013476E+04  0.7818608E-02  0.9878555E-01
         -4   -1    0    0    0  501 -0.00000000000E+00  0.00000000000E+00  0.12069982352E+04  0.12069982352E+04  0.00000000000E+00 0. -1.
         21   -1    0    0  501  502  0.00000000000E+00 -0.00000000000E+00 -0.28468192870E+03  0.28468192870E+03  0.00000000000E+00 0. -1.
   -9000010    2    1    2    0  502 -0.11820308599E+03 -0.66754379132E+02  0.89735549757E+03  0.13536541887E+04  0.10043428981E+04 0.  0.
         13    1    3    3    0    0  0.44650738069E+03 -0.34641712079E+02  0.39474325399E+03  0.59698503915E+03  0.10566000000E+00 0. -1.
         -4    1    3    3    0  502 -0.56471046668E+03 -0.32112667053E+02  0.50261224358E+03  0.75666914960E+03  0.00000000000E+00 0. -1.
        -13    1    1    2    0    0  0.11820308599E+03  0.66754379132E+02  0.24960808934E+02  0.13802597515E+03  0.10566000000E+00 0.  1.
<mgrwt>
<rscale>  1 0.61311957E+03</rscale>
<asrwt>0</asrwt>
<pdfrwt beam="2">  1       21 0.43797221E-01 0.10134756E+04</pdfrwt>
<pdfrwt beam="1">  1       -4 0.18569203E+00 0.10134756E+04</pdfrwt>
<totfact> 0.32743492E+01</totfact>
</mgrwt>
</event>
<event>
 6    2  0.2345636E-005  0.1029889E+04  0.7818608E-02  0.9667726E-01
         21   -1    0    0  501  502  0.00000000000E+00  0.00000000000E+00  0.24675018553E+04  0.24675018553E+04  0.00000000000E+00 0. -1.
         -4   -1    0    0    0  501 -0.00000000000E+00 -0.00000000000E+00 -0.17223328304E+03  0.17223328304E+03  0.00000000000E+00 0. -1.
   -9000010    2    1    2    0  502 -0.11740861219E+03  0.23148746286E+03  0.16605470866E+04  0.19539927645E+04  0.99664430438E+03 0.  0.
         13    1    3    3    0    0  0.10205906055E+03  0.19917648377E+03 -0.49836335243E+02  0.22928365620E+03  0.10566000000E+00 0. -1.
         -4    1    3    3    0  502 -0.21946767274E+03  0.32310979086E+02  0.17103834218E+04  0.17247091083E+04  0.00000000000E+00 0. -1.
        -13    1    1    2    0    0  0.11740861219E+03 -0.23148746286E+03  0.63472148572E+03  0.68574237384E+03  0.10566000000E+00 0.  1.
<mgrwt>
<rscale>  1 0.72971311E+03</rscale>
<asrwt>0</asrwt>
<pdfrwt beam="1">  1       21 0.37961565E+00 0.10298889E+04</pdfrwt>
<pdfrwt beam="2">  1       -4 0.26497430E-01 0.10298889E+04</pdfrwt>
<totfact> 0.45759436E+00</totfact>
</mgrwt>
</event>
<event>
 6    2  0.2345636E-005  0.1156323E+04  0.7818608E-02  0.9340737E-01
         21   -1    0    0  501  502  0.00000000000E+00  0.00000000000E+00  0.10166284475E+04  0.10166284475E+04  0.00000000000E+00 0. -1.
         -4   -1    0    0    0  501 -0.00000000000E+00 -0.00000000000E+00 -0.88071976216E+03  0.88071976216E+03  0.00000000000E+00 0. -1.
   -9000010    2    1    2    0  502  0.56859386420E+03 -0.88091081547E+02  0.45121524822E+03  0.12412405502E+04  0.10030074189E+04 0.  0.
         13    1    3    3    0    0  0.11339686138E+03 -0.50987057048E+03  0.11269531330E+03  0.53434735109E+03  0.10566000000E+00 0. -1.
         -4    1    3    3    0  502  0.45519700282E+03  0.42177948893E+03  0.33851993491E+03  0.70689319914E+03  0.00000000000E+00 0. -1.
        -13    1    1    2    0    0 -0.56859386420E+03  0.88091081547E+02 -0.31530656285E+03  0.65610765945E+03  0.10566000000E+00 0.  1.
<mgrwt>
<rscale>  1 0.97117514E+03</rscale>
<asrwt>0</asrwt>
<pdfrwt beam="1">  1       21 0.15640438E+00 0.11563230E+04</pdfrwt>
<pdfrwt beam="2">  1       -4 0.13549535E+00 0.11563230E+04</pdfrwt>
<totfact> 0.35868245E+00</totfact>
</mgrwt>
</event>
<event>
 6    2  0.2345636E-005  0.1145644E+04  0.7818608E-02  0.9363994E-01
         -4   -1    0    0    0  501 -0.00000000000E+00  0.00000000000E+00  0.90629864617E+03  0.90629864617E+03  0.00000000000E+00 0. -1.
         21   -1    0    0  501  502  0.00000000000E+00 -0.00000000000E+00 -0.78758122060E+03  0.78758122060E+03  0.00000000000E+00 0. -1.
   -9000010    2    1    2    0  502 -0.77769159055E+02 -0.53835644992E+03  0.70847250820E+02  0.11478329145E+04  0.10082784127E+04 0.  0.
         13    1    3    3    0    0 -0.19641465179E+03  0.46229870548E+02  0.41336390793E+03  0.45998439963E+03  0.10566000000E+00 0. -1.
         -4    1    3    3    0  502  0.11864549273E+03 -0.58458632047E+03 -0.34251665711E+03  0.68784851488E+03  0.00000000000E+00 0. -1.
        -13    1    1    2    0    0  0.77769159055E+02  0.53835644992E+03  0.47870174748E+02  0.54604695225E+03  0.10566000000E+00 0.  1.
<mgrwt>
<rscale>  1 0.95099020E+03</rscale>
<asrwt>0</asrwt>
<pdfrwt beam="2">  1       21 0.12116634E+00 0.11456444E+04</pdfrwt>
<pdfrwt beam="1">  1       -4 0.13943056E+00 0.11456444E+04</pdfrwt>
<totfact> 0.66725307E+00</totfact>
</mgrwt>
</event>
<event>
 6    2  0.2345636E-005  0.1065822E+04  0.7818608E-02  0.9685372E-01
         -4   -1    0    0    0  501 -0.00000000000E+00  0.00000000000E+00  0.44638509089E+03  0.44638509089E+03  0.00000000000E+00 0. -1.
         21   -1    0    0  501  502  0.00000000000E+00 -0.00000000000E+00 -0.14123667211E+04  0.14123667211E+04  0.00000000000E+00 0. -1.
   -9000010    2    1    2    0  502 -0.16458299696E+03  0.14698346461E+03 -0.11525246146E+04  0.15698054537E+04  0.10427293384E+04 0.  0.
         13    1    3    3    0    0 -0.10670451879E+03  0.57866209703E+03 -0.44010645457E+03  0.73479887002E+03  0.10566000000E+00 0. -1.
         -4    1    3    3    0  502 -0.57878478178E+02 -0.43167863241E+03 -0.71241816007E+03  0.83500658363E+03  0.00000000000E+00 0. -1.
        -13    1    1    2    0    0  0.16458299696E+03 -0.14698346461E+03  0.18654298446E+03  0.28894635830E+03  0.10566000000E+00 0.  1.
<mgrwt>
<rscale>  1 0.71894446E+03</rscale>
<asrwt>0</asrwt>
<pdfrwt beam="2">  1       21 0.21728719E+00 0.10658218E+04</pdfrwt>
<pdfrwt beam="1">  1       -4 0.68674630E-01 0.10658218E+04</pdfrwt>
<totfact> 0.67811510E+00</totfact>
</mgrwt>
</event>
<event>
 6    2  0.2345636E-005  0.1022813E+04  0.7818608E-02  0.9753598E-01
         21   -1    0    0  501  502  0.00000000000E+00  0.00000000000E+00  0.10064180659E+04  0.10064180659E+04  0.00000000000E+00 0. -1.
         -4   -1    0    0    0  501 -0.00000000000E+00 -0.00000000000E+00 -0.42107299669E+03  0.42107299669E+03  0.00000000000E+00 0. -1.
   -9000010    2    1    2    0  502 -0.71878858659E+01 -0.19867711086E+03  0.65758935613E+03  0.12159644490E+04  0.10033052974E+04 0.  0.
         13    1    3    3    0    0 -0.49706228167E+03 -0.11190598446E+03  0.43906895400E+03  0.67258859546E+03  0.10566000000E+00 0. -1.
         -4    1    3    3    0  502  0.48987439580E+03 -0.86771126399E+02  0.21852040213E+03  0.54337585352E+03  0.00000000000E+00 0. -1.
        -13    1    1    2    0    0  0.71878858659E+01  0.19867711086E+03 -0.72244286965E+02  0.21152661357E+03  0.10566000000E+00 0.  1.
<mgrwt>
<rscale>  1 0.67913336E+03</rscale>
<asrwt>0</asrwt>
<pdfrwt beam="1">  1       21 0.15483355E+00 0.10228127E+04</pdfrwt>
<pdfrwt beam="2">  1       -4 0.64780461E-01 0.10228127E+04</pdfrwt>
<totfact> 0.21817627E+01</totfact>
</mgrwt>
</event>
<event>
 6    2  0.2345636E-005  0.1007629E+04  0.7818608E-02  0.1004651E+00
         -4   -1    0    0    0  501 -0.00000000000E+00  0.00000000000E+00  0.63281587487E+03  0.63281587487E+03  0.00000000000E+00 0. -1.
         21   -1    0    0  501  502  0.00000000000E+00 -0.00000000000E+00 -0.92749306905E+03  0.92749306905E+03  0.00000000000E+00 0. -1.
   -9000010    2    1    2    0  502  0.78954262457E+02 -0.18189508564E+02 -0.64787341953E+03  0.11979386657E+04  0.10043666886E+04 0.  0.
         13    1    3    3    0    0  0.19436714905E+03  0.76717562610E+02  0.22808149159E+03  0.30933048834E+03  0.10566000000E+00 0. -1.
         -4    1    3    3    0  502 -0.11541288660E+03 -0.94907071175E+02 -0.87595491111E+03  0.88860817735E+03  0.00000000000E+00 0. -1.
        -13    1    1    2    0    0 -0.78954262457E+02  0.18189508564E+02  0.35319622535E+03  0.36237027823E+03  0.10566000000E+00 0.  1.
<mgrwt>
<rscale>  1 0.53657081E+03</rscale>
<asrwt>0</asrwt>
<pdfrwt beam="2">  1       21 0.14269124E+00 0.10076294E+04</pdfrwt>
<pdfrwt beam="1">  1       -4 0.97356288E-01 0.10076294E+04</pdfrwt>
<totfact> 0.10759314E+01</totfact>
</mgrwt>
</event>
<event>
 6    2  0.2345636E-005  0.9934215E+03  0.7818608E-02  0.9710569E-01
         21   -1    0    0  501  502  0.00000000000E+00  0.00000000000E+00  0.35900319733E+03  0.35900319733E+03  0.00000000000E+00 0. -1.
         -4   -1    0    0    0  501 -0.00000000000E+00 -0.00000000000E+00 -0.11456630543E+04  0.11456630543E+04  0.00000000000E+00 0. -1.
   -9000010    2    1    2    0  502  0.11329498496E+03  0.22332445785E+03 -0.46457126728E+03  0.10966826271E+04  0.96134112322E+03 0.  0.
         13    1    3    3    0    0 -0.64516699616E+02 -0.31733121885E+03 -0.41356150453E+03  0.52525673359E+03  0.10566000000E+00 0. -1.
         -4    1    3    3    0  502  0.17781168458E+03  0.54065567670E+03 -0.51009762749E+02  0.57142589355E+03  0.00000000000E+00 0. -1.
        -13    1    1    2    0    0 -0.11329498496E+03 -0.22332445785E+03 -0.32208858973E+03  0.40798362453E+03  0.10566000000E+00 0.  1.
<mgrwt>
<rscale>  1 0.70390963E+03</rscale>
<asrwt>0</asrwt>
<pdfrwt beam="1">  1       21 0.55231261E-01 0.99342152E+03</pdfrwt>
<pdfrwt beam="2">  1       -4 0.17625585E+00 0.99342152E+03</pdfrwt>
<totfact> 0.23134013E+01</totfact>
</mgrwt>
</event>
<event>
 6    2  0.2345636E-005  0.1030492E+04  0.7818608E-02  0.9672988E-01
         -4   -1    0    0    0  501 -0.00000000000E+00  0.00000000000E+00  0.11310705192E+04  0.11310705192E+04  0.00000000000E+00 0. -1.
         21   -1    0    0  501  502  0.00000000000E+00 -0.00000000000E+00 -0.39602827295E+03  0.39602827295E+03  0.00000000000E+00 0. -1.
   -9000010    2    1    2    0  502  0.24475876949E+03 -0.69899068616E+02  0.39787265243E+03  0.11046344964E+04  0.99855995714E+03 0.  0.
         13    1    3    3    0    0 -0.23368802082E+03  0.10641186308E+02  0.54875530360E+03  0.59653643670E+03  0.10566000000E+00 0. -1.
         -4    1    3    3    0  502  0.47844679032E+03 -0.80540254924E+02 -0.15088265116E+03  0.50809805968E+03  0.00000000000E+00 0. -1.
        -13    1    1    2    0    0 -0.24475876949E+03  0.69899068616E+02  0.33716959377E+03  0.42246429572E+03  0.10566000000E+00 0.  1.
<mgrwt>
<rscale>  1 0.72648126E+03</rscale>
<asrwt>0</asrwt>
<pdfrwt beam="2">  1       21 0.60927427E-01 0.10304925E+04</pdfrwt>
<pdfrwt beam="1">  1       -4 0.17401085E+00 0.10304925E+04</pdfrwt>
<totfact> 0.19236391E+01</totfact>
</mgrwt>
</event>
<event>
 6    2  0.2345636E-005  0.9617180E+03  0.7818608E-02  0.9956491E-01
         21   -1    0    0  501  502  0.00000000000E+00  0.00000000000E+00  0.48796302821E+03  0.48796302821E+03  0.00000000000E+00 0. -1.
         -4   -1    0    0    0  501 -0.00000000000E+00 -0.00000000000E+00 -0.71438806839E+03  0.71438806839E+03  0.00000000000E+00 0. -1.
   -9000010    2    1    2    0  502  0.11186326572E+03 -0.52920216263E+02 -0.20300568740E+02  0.96193219468E+03  0.95372296531E+03 0.  0.
         13    1    3    3    0    0  0.43067949809E+03 -0.14454009589E+03 -0.28608999459E+03  0.53686512791E+03  0.10566000000E+00 0. -1.
         -4    1    3    3    0  502 -0.31881623237E+03  0.91619879623E+02  0.26578942585E+03  0.42506706677E+03  0.00000000000E+00 0. -1.
        -13    1    1    2    0    0 -0.11186326572E+03  0.52920216263E+02 -0.20612447144E+03  0.24041890192E+03  0.10566000000E+00 0.  1.
<mgrwt>
<rscale>  1 0.57599896E+03</rscale>
<asrwt>0</asrwt>
<pdfrwt beam="1">  1       21 0.75071235E-01 0.96171796E+03</pdfrwt>
<pdfrwt beam="2">  1       -4 0.10990586E+00 0.96171796E+03</pdfrwt>
<totfact> 0.40265834E+01</totfact>
</mgrwt>
</event>
<event>
 6    2  0.2345636E-005  0.1307141E+04  0.7818608E-02  0.9142662E-01
         -4   -1    0    0    0  501 -0.00000000000E+00  0.00000000000E+00  0.19925447347E+04  0.19925447347E+04  0.00000000000E+00 0. -1.
         21   -1    0    0  501  502  0.00000000000E+00 -0.00000000000E+00 -0.66774101433E+03  0.66774101433E+03  0.00000000000E+00 0. -1.
   -9000010    2    1    2    0  502  0.48295854894E+03  0.67395652120E+03  0.29829420550E+03  0.13407448638E+04  0.10105201652E+04 0.  0.
         13    1    3    3    0    0 -0.55381678989E+02  0.69897387388E+03 -0.43606383005E+02  0.70251913464E+03  0.10566000000E+00 0. -1.
         -4    1    3    3    0  502  0.53834022793E+03 -0.25017352684E+02  0.34190058850E+03  0.63822572916E+03  0.00000000000E+00 0. -1.
        -13    1    1    2    0    0 -0.48295854894E+03 -0.67395652120E+03  0.10265095148E+04  0.13195408852E+04  0.10566000000E+00 0.  1.
<mgrwt>
<rscale>  1 0.11665362E+04</rscale>
<asrwt>0</asrwt>
<pdfrwt beam="2">  1       21 0.10272939E+00 0.13071409E+04</pdfrwt>
<pdfrwt beam="1">  1       -4 0.30654534E+00 0.13071409E+04</pdfrwt>
<totfact> 0.76905546E-01</totfact>
</mgrwt>
</event>
<event>
 6    2  0.2345636E-005  0.1034137E+04  0.7818608E-02  0.9804909E-01
         -4   -1    0    0    0  501 -0.00000000000E+00  0.00000000000E+00  0.18227413196E+03  0.18227413196E+03  0.00000000000E+00 0. -1.
         21   -1    0    0  501  502  0.00000000000E+00 -0.00000000000E+00 -0.22327418677E+04  0.22327418677E+04  0.00000000000E+00 0. -1.
   -9000010    2    1    2    0  502  0.44771694424E+02 -0.15610545234E+03 -0.19882425289E+04  0.22411039403E+04  0.10213055863E+04 0.  0.
         13    1    3    3    0    0 -0.33512269530E+03 -0.21978443106E+03 -0.17336675511E+04  0.17793863004E+04  0.10566000000E+00 0. -1.
         -4    1    3    3    0  502  0.37989438972E+03  0.63678978722E+02 -0.25457497778E+03  0.46171763989E+03  0.00000000000E+00 0. -1.
        -13    1    1    2    0    0 -0.44771694424E+02  0.15610545234E+03 -0.62225206860E+02  0.17391205940E+03  0.10566000000E+00 0.  1.
<mgrwt>
<rscale>  1 0.65099740E+03</rscale>
<asrwt>0</asrwt>
<pdfrwt beam="2">  1       21 0.34349875E+00 0.10341366E+04</pdfrwt>
<pdfrwt beam="1">  1       -4 0.28042174E-01 0.10341366E+04</pdfrwt>
<totfact> 0.69614908E+00</totfact>
</mgrwt>
</event>
<event>
 6    2  0.2345636E-005  0.1068967E+04  0.7818608E-02  0.9521293E-01
         21   -1    0    0  501  502  0.00000000000E+00  0.00000000000E+00  0.28908008892E+03  0.28908008892E+03  0.00000000000E+00 0. -1.
         -4   -1    0    0    0  501 -0.00000000000E+00 -0.00000000000E+00 -0.18508509324E+04  0.18508509324E+04  0.00000000000E+00 0. -1.
   -9000010    2    1    2    0  502  0.37872195896E+03 -0.60553386573E+02 -0.12568480818E+04  0.16499565969E+04  0.99779388458E+03 0.  0.
         13    1    3    3    0    0  0.17620202161E+03 -0.25261863699E+03  0.51406567297E+02  0.31225946663E+03  0.10566000000E+00 0. -1.
         -4    1    3    3    0  502  0.20251993735E+03  0.19206525042E+03 -0.13082546491E+04  0.13376971303E+04  0.00000000000E+00 0. -1.
        -13    1    1    2    0    0 -0.37872195896E+03  0.60553386573E+02 -0.30492276165E+03  0.48997442439E+03  0.10566000000E+00 0.  1.
<mgrwt>
<rscale>  1 0.82732026E+03</rscale>
<asrwt>0</asrwt>
<pdfrwt beam="1">  1       21 0.44473861E-01 0.10689666E+04</pdfrwt>
<pdfrwt beam="2">  1       -4 0.28474629E+00 0.10689666E+04</pdfrwt>
<totfact> 0.74028282E+00</totfact>
</mgrwt>
</event>
<event>
 6    2  0.2345636E-005  0.1130278E+04  0.7818608E-02  0.9375405E-01
         -4   -1    0    0    0  501 -0.00000000000E+00  0.00000000000E+00  0.73893737639E+03  0.73893737639E+03  0.00000000000E+00 0. -1.
         21   -1    0    0  501  502  0.00000000000E+00 -0.00000000000E+00 -0.94925924522E+03  0.94925924522E+03  0.00000000000E+00 0.  1.
   -9000010    2    1    2    0  502  0.29570470329E+03  0.45618789016E+03 -0.17090218122E+03  0.11431254468E+04  0.99094882254E+03 0.  0.
         13    1    3    3    0    0  0.98670456350E+02 -0.25564289920E+03 -0.28545950847E+03  0.39569722391E+03  0.10566000000E+00 0. -1.
         -4    1    3    3    0  502  0.19703424694E+03  0.71183078936E+03  0.11455732725E+03  0.74742822289E+03  0.00000000000E+00 0. -1.
        -13    1    1    2    0    0 -0.29570470329E+03 -0.45618789016E+03 -0.39419687606E+02  0.54507117481E+03  0.10566000000E+00 0.  1.
<mgrwt>
<rscale>  1 0.94127726E+03</rscale>
<asrwt>0</asrwt>
<pdfrwt beam="2">  1       21 0.14603988E+00 0.11302779E+04</pdfrwt>
<pdfrwt beam="1">  1       -4 0.11368267E+00 0.11302779E+04</pdfrwt>
<totfact> 0.68150451E+00</totfact>
</mgrwt>
</event>
<event>
 6    2  0.2345636E-005  0.1267938E+04  0.7818608E-02  0.9198690E-01
         -4   -1    0    0    0  501 -0.00000000000E+00  0.00000000000E+00  0.11504036835E+04  0.11504036835E+04  0.00000000000E+00 0. -1.
         21   -1    0    0  501  502  0.00000000000E+00 -0.00000000000E+00 -0.90928976697E+03  0.90928976697E+03  0.00000000000E+00 0.  1.
   -9000010    2    1    2    0  502  0.41972765810E+03  0.60446446132E+03 -0.48475382251E+02  0.12688644139E+04  0.10325301188E+04 0.  0.
         13    1    3    3    0    0  0.58242056127E+03  0.34574071965E+03  0.35341025508E+03  0.76396935474E+03  0.10566000000E+00 0. -1.
         -4    1    3    3    0  502 -0.16269290317E+03  0.25872374166E+03 -0.40188563733E+03  0.50489505913E+03  0.00000000000E+00 0. -1.
        -13    1    1    2    0    0 -0.41972765810E+03 -0.60446446132E+03  0.28958929875E+03  0.79082903657E+03  0.10566000000E+00 0.  1.
<mgrwt>
<rscale>  1 0.11066957E+04</rscale>
<asrwt>0</asrwt>
<pdfrwt beam="2">  1       21 0.13989073E+00 0.12679381E+04</pdfrwt>
<pdfrwt beam="1">  1       -4 0.17698518E+00 0.12679381E+04</pdfrwt>
<totfact> 0.23266244E+00</totfact>
</mgrwt>
</event>
<event>
 6    2  0.2345636E-005  0.1050728E+04  0.7818608E-02  0.9626518E-01
         21   -1    0    0  501  502  0.00000000000E+00  0.00000000000E+00  0.40335901325E+03  0.40335901325E+03  0.00000000000E+00 0. -1.
         -4   -1    0    0    0  501 -0.00000000000E+00 -0.00000000000E+00 -0.15244524836E+04  0.15244524836E+04  0.00000000000E+00 0. -1.
   -9000010    2    1    2    0  502 -0.12985479328E+02 -0.28077728829E+03 -0.35064389179E+03  0.11076913395E+04  0.10124349146E+04 0.  0.
         13    1    3    3    0    0 -0.40194341299E+02  0.37707059738E+03 -0.21339955257E+03  0.43512894719E+03  0.10566000000E+00 0. -1.
         -4    1    3    3    0  502  0.27208861970E+02 -0.65784788567E+03 -0.13724433921E+03  0.67256239227E+03  0.00000000000E+00 0. -1.
        -13    1    1    2    0    0  0.12985479328E+02  0.28077728829E+03 -0.77044957861E+03  0.82012015744E+03  0.10566000000E+00 0.  1.
<mgrwt>
<rscale>  1 0.75565606E+03</rscale>
<asrwt>0</asrwt>
<pdfrwt beam="1">  1       21 0.62055233E-01 0.10507278E+04</pdfrwt>
<pdfrwt beam="2">  1       -4 0.23453115E+00 0.10507278E+04</pdfrwt>
<totfact> 0.73340155E+00</totfact>
</mgrwt>
</event>
<event>
 6    2  0.2345636E-005  0.1004313E+04  0.7818608E-02  0.9716455E-01
         21   -1    0    0  501  502  0.00000000000E+00  0.00000000000E+00  0.93853602813E+03  0.93853602813E+03  0.00000000000E+00 0. -1.
         -4   -1    0    0    0  501 -0.00000000000E+00 -0.00000000000E+00 -0.47483907480E+03  0.47483907480E+03  0.00000000000E+00 0. -1.
   -9000010    2    1    2    0  502  0.11603991267E+03 -0.20737822821E+03  0.56805623112E+03  0.11538334668E+04  0.97579341895E+03 0.  0.
         13    1    3    3    0    0  0.13508688974E+03  0.17833477025E+03  0.70844005689E+03  0.74292602824E+03  0.10566000000E+00 0. -1.
         -4    1    3    3    0  502 -0.19046977074E+02 -0.38571299846E+03 -0.14038382577E+03  0.41090743855E+03  0.00000000000E+00 0. -1.
        -13    1    1    2    0    0 -0.11603991267E+03  0.20737822821E+03 -0.10435927780E+03  0.25954163615E+03  0.10566000000E+00 0.  1.
<mgrwt>
<rscale>  1 0.70045440E+03</rscale>
<asrwt>0</asrwt>
<pdfrwt beam="1">  1       21 0.14439016E+00 0.10043126E+04</pdfrwt>
<pdfrwt beam="2">  1       -4 0.73052166E-01 0.10043126E+04</pdfrwt>
<totfact> 0.20302982E+01</totfact>
</mgrwt>
</event>
<event>
 6    2  0.2345636E-005  0.1122500E+04  0.7818608E-02  0.9374138E-01
         -4   -1    0    0    0  501 -0.00000000000E+00  0.00000000000E+00  0.68757452963E+03  0.68757452963E+03  0.00000000000E+00 0. -1.
         21   -1    0    0  501  502  0.00000000000E+00 -0.00000000000E+00 -0.10640896048E+04  0.10640896048E+04  0.00000000000E+00 0. -1.
   -9000010    2    1    2    0  502  0.26168383939E+03 -0.49233162355E+03 -0.93491101453E+02  0.11263870437E+04  0.97423730516E+03 0.  0.
         13    1    3    3    0    0  0.50775209209E+03 -0.23430868781E+03  0.26671831947E+03  0.61955743988E+03  0.10566000000E+00 0. -1.
         -4    1    3    3    0  502 -0.24606825270E+03 -0.25802293574E+03 -0.36020942093E+03  0.50682960379E+03  0.00000000000E+00 0. -1.
        -13    1    1    2    0    0 -0.26168383939E+03  0.49233162355E+03 -0.28302397371E+03  0.62527709074E+03  0.10566000000E+00 0.  1.
<mgrwt>
<rscale>  1 0.94234969E+03</rscale>
<asrwt>0</asrwt>
<pdfrwt beam="2">  1       21 0.16370609E+00 0.11225004E+04</pdfrwt>
<pdfrwt beam="1">  1       -4 0.10578070E+00 0.11225004E+04</pdfrwt>
<totfact> 0.58963630E+00</totfact>
</mgrwt>
</event>
<event>
 6    2  0.2345636E-005  0.7590952E+03  0.7818608E-02  0.1068348E+00
         21   -1    0    0  501  502  0.00000000000E+00  0.00000000000E+00  0.67676546918E+03  0.67676546918E+03  0.00000000000E+00 0. -1.
         -4   -1    0    0    0  501 -0.00000000000E+00 -0.00000000000E+00 -0.23725701654E+03  0.23725701654E+03  0.00000000000E+00 0. -1.
   -9000010    2    1    2    0  502 -0.29218822609E+02 -0.17452817284E+01  0.45055377532E+03  0.88273677141E+03  0.75853063060E+03 0.  0.
         13    1    3    3    0    0  0.83230816995E+02 -0.26114784249E+03 -0.76563916693E+02  0.28458321988E+03  0.10566000000E+00 0. -1.
         -4    1    3    3    0  502 -0.11244963960E+03  0.25940256076E+03  0.52711769201E+03  0.59815355153E+03  0.00000000000E+00 0. -1.
        -13    1    1    2    0    0  0.29218822609E+02  0.17452817284E+01 -0.11045322672E+02  0.31285714311E+02  0.10566000000E+00 0.  1.
<mgrwt>
<rscale>  1 0.33638135E+03</rscale>
<asrwt>0</asrwt>
<pdfrwt beam="1">  1       21 0.10411776E+00 0.75909519E+03</pdfrwt>
<pdfrwt beam="2">  1       -4 0.36501080E-01 0.75909519E+03</pdfrwt>
<totfact> 0.21249116E+02</totfact>
</mgrwt>
</event>
<event>
 6    2  0.2345636E-005  0.1017275E+04  0.7818608E-02  0.9703324E-01
         -4   -1    0    0    0  501 -0.00000000000E+00  0.00000000000E+00  0.11276808333E+04  0.11276808333E+04  0.00000000000E+00 0. -1.
         21   -1    0    0  501  502  0.00000000000E+00 -0.00000000000E+00 -0.62650422389E+03  0.62650422389E+03  0.00000000000E+00 0. -1.
   -9000010    2    1    2    0  502 -0.13506790979E+03  0.19710174023E+03 -0.17931973272E+03  0.10329585192E+04  0.98881509880E+03 0.  0.
         13    1    3    3    0    0 -0.40349479853E+03 -0.91523175965E+01 -0.44637525873E+03  0.60178293440E+03  0.10566000000E+00 0. -1.
         -4    1    3    3    0  502  0.26842688873E+03  0.20625405783E+03  0.26705552602E+03  0.43117558482E+03  0.00000000000E+00 0. -1.
        -13    1    1    2    0    0  0.13506790979E+03 -0.19710174023E+03  0.68049634216E+03  0.72122653800E+03  0.10566000000E+00 0.  1.
<mgrwt>
<rscale>  1 0.70819198E+03</rscale>
<asrwt>0</asrwt>
<pdfrwt beam="2">  1       21 0.96385265E-01 0.10172747E+04</pdfrwt>
<pdfrwt beam="1">  1       -4 0.17348936E+00 0.10172747E+04</pdfrwt>
<totfact> 0.66507464E+00</totfact>
</mgrwt>
</event>
<event>
 6    2  0.2345636E-005  0.9976844E+03  0.7818608E-02  0.1010062E+00
         -4   -1    0    0    0  501 -0.00000000000E+00  0.00000000000E+00  0.20509000386E+03  0.20509000386E+03  0.00000000000E+00 0. -1.
         21   -1    0    0  501  502  0.00000000000E+00 -0.00000000000E+00 -0.22107614163E+04  0.22107614163E+04  0.00000000000E+00 0. -1.
   -9000010    2    1    2    0  502  0.60254970998E+02  0.36715650399E+02 -0.20839536519E+04  0.23104625179E+04  0.99518617498E+03 0.  0.
         13    1    3    3    0    0  0.33528386258E+03  0.35473540225E+03 -0.15824997916E+04  0.16560670505E+04  0.10566000000E+00 0. -1.
         -4    1    3    3    0  502 -0.27502889158E+03 -0.31801975186E+03 -0.50145386032E+03  0.65439546744E+03  0.00000000000E+00 0. -1.
        -13    1    1    2    0    0 -0.60254970998E+02 -0.36715650399E+02  0.78282239526E+02  0.10538890218E+03  0.10566000000E+00 0.  1.
<mgrwt>
<rscale>  1 0.51449898E+03</rscale>
<asrwt>0</asrwt>
<pdfrwt beam="2">  1       21 0.34011714E+00 0.99768443E+03</pdfrwt>
<pdfrwt beam="1">  1       -4 0.31552309E-01 0.99768443E+03</pdfrwt>
<totfact> 0.58450896E+00</totfact>
</mgrwt>
</event>
<event>
 6    2  0.2345636E-005  0.1023201E+04  0.7818608E-02  0.9601829E-01
         21   -1    0    0  501  502  0.00000000000E+00  0.00000000000E+00  0.14653151466E+04  0.14653151466E+04  0.00000000000E+00 0.  1.
         -4   -1    0    0    0  501 -0.00000000000E+00 -0.00000000000E+00 -0.31793539208E+03  0.31793539208E+03  0.00000000000E+00 0. -1.
   -9000010    2    1    2    0  502 -0.26166970189E+03  0.20295747733E+03  0.95848350185E+03  0.14020097015E+04  0.96813109101E+03 0.  0.
         13    1    3    3    0    0 -0.68722218114E+02  0.57908429688E+03  0.67996678184E+03  0.89577687050E+03  0.10566000000E+00 0. -1.
         -4    1    3    3    0  502 -0.19294748378E+03 -0.37612681956E+03  0.27851672001E+03  0.50623283103E+03  0.00000000000E+00 0. -1.
        -13    1    1    2    0    0  0.26166970189E+03 -0.20295747733E+03  0.18889625270E+03  0.38124083719E+03  0.10566000000E+00 0.  1.
<mgrwt>
<rscale>  1 0.77175272E+03</rscale>
<asrwt>0</asrwt>
<pdfrwt beam="1">  1       21 0.22543310E+00 0.10232011E+04</pdfrwt>
<pdfrwt beam="2">  1       -4 0.48913138E-01 0.10232011E+04</pdfrwt>
<totfact> 0.12571983E+01</totfact>
</mgrwt>
</event>
<event>
 6    2  0.2345636E-005  0.1078760E+04  0.7818608E-02  0.9545495E-01
         -4   -1    0    0    0  501 -0.00000000000E+00  0.00000000000E+00  0.10739820095E+04  0.10739820095E+04  0.00000000000E+00 0. -1.
         21   -1    0    0  501  502  0.00000000000E+00 -0.00000000000E+00 -0.16773134696E+04  0.16773134696E+04  0.00000000000E+00 0. -1.
   -9000010    2    1    2    0  502  0.24000139941E+03 -0.24517065609E+03 -0.14675994873E+04  0.18214199195E+04  0.10227477429E+04 0.  0.
         13    1    3    3    0    0  0.30473729582E+03 -0.54096712048E+02  0.29393399243E+02  0.31089428557E+03  0.10566000000E+00 0. -1.
         -4    1    3    3    0  502 -0.64735896413E+02 -0.19107394404E+03 -0.14969928866E+04  0.15105256340E+04  0.00000000000E+00 0. -1.
        -13    1    1    2    0    0 -0.24000139941E+03  0.24517065609E+03  0.86426802723E+03  0.92987555962E+03  0.10566000000E+00 0.  1.
<mgrwt>
<rscale>  1 0.81011163E+03</rscale>
<asrwt>0</asrwt>
<pdfrwt beam="2">  1       21 0.25804823E+00 0.10787596E+04</pdfrwt>
<pdfrwt beam="1">  1       -4 0.16522800E+00 0.10787596E+04</pdfrwt>
<totfact> 0.42287672E-01</totfact>
</mgrwt>
</event>
<event>
 6    2  0.2345636E-005  0.1033086E+04  0.7818608E-02  0.9695197E-01
         21   -1    0    0  501  502  0.00000000000E+00  0.00000000000E+00  0.26622480810E+03  0.26622480810E+03  0.00000000000E+00 0. -1.
         -4   -1    0    0    0  501 -0.00000000000E+00 -0.00000000000E+00 -0.15195293652E+04  0.15195293652E+04  0.00000000000E+00 0. -1.
   -9000010    2    1    2    0  502 -0.18809554828E+03  0.13993733964E+03 -0.96004213703E+03  0.14103007774E+04  0.10061336807E+04 0.  0.
         13    1    3    3    0    0 -0.42970894893E+03 -0.20598225535E+03 -0.84964405301E+03  0.97415270789E+03  0.10566000000E+00 0. -1.
         -4    1    3    3    0  502  0.24161340065E+03  0.34591959499E+03 -0.11039808402E+03  0.43614806950E+03  0.00000000000E+00 0. -1.
        -13    1    1    2    0    0  0.18809554828E+03 -0.13993733964E+03 -0.29326242007E+03  0.37545339591E+03  0.10566000000E+00 0.  1.
<mgrwt>
<rscale>  1 0.71303472E+03</rscale>
<asrwt>0</asrwt>
<pdfrwt beam="1">  1       21 0.40957662E-01 0.10330863E+04</pdfrwt>
<pdfrwt beam="2">  1       -4 0.23377375E+00 0.10330863E+04</pdfrwt>
<totfact> 0.18295908E+01</totfact>
</mgrwt>
</event>
<event>
 6    2  0.2345636E-005  0.9835059E+03  0.7818608E-02  0.9868336E-01
         21   -1    0    0  501  502  0.00000000000E+00  0.00000000000E+00  0.63393977841E+03  0.63393977841E+03  0.00000000000E+00 0. -1.
         -4   -1    0    0    0  501 -0.00000000000E+00 -0.00000000000E+00 -0.57458937757E+03  0.57458937757E+03  0.00000000000E+00 0. -1.
   -9000010    2    1    2    0  502  0.14386974663E+03  0.53611401635E+02  0.19616901506E+03  0.10028788928E+04  0.97144794241E+03 0.  0.
         13    1    3    3    0    0 -0.23020840895E+03  0.28465483573E+03 -0.19464173958E+03  0.41461995250E+03  0.10566000000E+00 0. -1.
         -4    1    3    3    0  502  0.37407815557E+03 -0.23104343410E+03  0.39081075465E+03  0.58825894032E+03  0.00000000000E+00 0. -1.
        -13    1    1    2    0    0 -0.14386974663E+03 -0.53611401635E+02 -0.13681861422E+03  0.20565026317E+03  0.10566000000E+00 0.  1.
<mgrwt>
<rscale>  1 0.61820694E+03</rscale>
<asrwt>0</asrwt>
<pdfrwt beam="1">  1       21 0.97529196E-01 0.98350587E+03</pdfrwt>
<pdfrwt beam="2">  1       -4 0.88398367E-01 0.98350587E+03</pdfrwt>
<totfact> 0.36307372E+01</totfact>
</mgrwt>
</event>
<event>
 6    2  0.2345636E-005  0.1120467E+04  0.7818608E-02  0.9388026E-01
         -4   -1    0    0    0  501 -0.00000000000E+00  0.00000000000E+00  0.97351706659E+03  0.97351706659E+03  0.00000000000E+00 0. -1.
         21   -1    0    0  501  502  0.00000000000E+00 -0.00000000000E+00 -0.71109278698E+03  0.71109278698E+03  0.00000000000E+00 0.  1.
   -9000010    2    1    2    0  502 -0.17224029653E+03 -0.50475447854E+03  0.89903513395E+02  0.11240679467E+04  0.98539449148E+03 0.  0.
         13    1    3    3    0    0 -0.32194010858E+03 -0.63931839346E+03 -0.22499611630E+03  0.75033106376E+03  0.10566000000E+00 0. -1.
         -4    1    3    3    0  502  0.14969981206E+03  0.13456391492E+03  0.31489962969E+03  0.37373688299E+03  0.00000000000E+00 0. -1.
        -13    1    1    2    0    0  0.17224029653E+03  0.50475447854E+03  0.17252076622E+03  0.56054190681E+03  0.10566000000E+00 0.  1.
<mgrwt>
<rscale>  1 0.93067670E+03</rscale>
<asrwt>0</asrwt>
<pdfrwt beam="2">  1       21 0.10939889E+00 0.11204669E+04</pdfrwt>
<pdfrwt beam="1">  1       -4 0.14977186E+00 0.11204669E+04</pdfrwt>
<totfact> 0.71899020E+00</totfact>
</mgrwt>
</event>
<event>
 6    2  0.2345636E-005  0.9913557E+03  0.7818608E-02  0.9704236E-01
         21   -1    0    0  501  502  0.00000000000E+00  0.00000000000E+00  0.59503496866E+03  0.59503496866E+03  0.00000000000E+00 0. -1.
         -4   -1    0    0    0  501 -0.00000000000E+00 -0.00000000000E+00 -0.85808366800E+03  0.85808366800E+03  0.00000000000E+00 0. -1.
   -9000010    2    1    2    0  502  0.68216778898E+02 -0.24818349428E+03  0.11262155880E+03  0.99773228446E+03  0.95735966084E+03 0.  0.
         13    1    3    3    0    0 -0.15442462555E+03 -0.27679513985E+03 -0.35689089123E+03  0.47731921586E+03  0.10566000000E+00 0. -1.
         -4    1    3    3    0  502  0.22264140445E+03  0.28611645573E+02  0.46951245003E+03  0.52041306860E+03  0.00000000000E+00 0. -1.
        -13    1    1    2    0    0 -0.68216778898E+02  0.24818349428E+03 -0.37567025814E+03  0.45538635220E+03  0.10566000000E+00 0.  1.
<mgrwt>
<rscale>  1 0.70765113E+03</rscale>
<asrwt>0</asrwt>
<pdfrwt beam="1">  1       21 0.91543842E-01 0.99135569E+03</pdfrwt>
<pdfrwt beam="2">  1       -4 0.13201287E+00 0.99135569E+03</pdfrwt>
<totfact> 0.15819473E+01</totfact>
</mgrwt>
</event>
<event>
 6    2  0.2345636E-005  0.1031556E+04  0.7818608E-02  0.9652272E-01
         -4   -1    0    0    0  501 -0.00000000000E+00  0.00000000000E+00  0.16920378037E+04  0.16920378037E+04  0.00000000000E+00 0. -1.
         21   -1    0    0  501  502  0.00000000000E+00 -0.00000000000E+00 -0.41984603767E+03  0.41984603767E+03  0.00000000000E+00 0. -1.
   -9000010    2    1    2    0  502 -0.33837717664E+02 -0.27005114047E+03  0.26010654448E+03  0.10638432332E+04  0.99500472394E+03 0.  0.
         13    1    3    3    0    0  0.25938354090E+03 -0.26656611185E+03  0.54182718277E+03  0.65720165888E+03  0.10566000000E+00 0. -1.
         -4    1    3    3    0  502 -0.29322125856E+03 -0.34850286243E+01 -0.28172063830E+03  0.40664157429E+03  0.00000000000E+00 0. -1.
        -13    1    1    2    0    0  0.33837717664E+02  0.27005114047E+03  0.10120852216E+04  0.10480406082E+04  0.10566000000E+00 0.  1.
<mgrwt>
<rscale>  1 0.73931021E+03</rscale>
<asrwt>0</asrwt>
<pdfrwt beam="2">  1       21 0.64591699E-01 0.10315556E+04</pdfrwt>
<pdfrwt beam="1">  1       -4 0.26031351E+00 0.10315556E+04</pdfrwt>
<totfact> 0.46458798E+00</totfact>
</mgrwt>
</event>
<event>
 6    2  0.2345636E-005  0.1017539E+04  0.7818608E-02  0.9805902E-01
         -4   -1    0    0    0  501 -0.00000000000E+00  0.00000000000E+00  0.74466354094E+03  0.74466354094E+03  0.00000000000E+00 0. -1.
         21   -1    0    0  501  502  0.00000000000E+00 -0.00000000000E+00 -0.48555729264E+03  0.48555729264E+03  0.00000000000E+00 0. -1.
   -9000010    2    1    2    0  502 -0.43815834965E+02  0.16417546483E+03  0.15063591049E+03  0.10286290778E+04  0.10032513103E+04 0.  0.
         13    1    3    3    0    0 -0.32511779908E+03  0.30547933366E+03  0.42119842189E+03  0.61353673756E+03  0.10566000000E+00 0. -1.
         -4    1    3    3    0  502  0.28130196412E+03 -0.14130386882E+03 -0.27056251139E+03  0.41509234025E+03  0.00000000000E+00 0. -1.
        -13    1    1    2    0    0  0.43815834965E+02 -0.16417546483E+03  0.10847033781E+03  0.20159175577E+03  0.10566000000E+00 0.  1.
<mgrwt>
<rscale>  1 0.65046770E+03</rscale>
<asrwt>0</asrwt>
<pdfrwt beam="2">  1       21 0.74701122E-01 0.10175395E+04</pdfrwt>
<pdfrwt beam="1">  1       -4 0.11456362E+00 0.10175395E+04</pdfrwt>
<totfact> 0.36587971E+01</totfact>
</mgrwt>
</event>
<event>
 6    2  0.2345636E-005  0.1024514E+04  0.7818608E-02  0.9670011E-01
         -4   -1    0    0    0  501 -0.00000000000E+00  0.00000000000E+00  0.62899578696E+03  0.62899578696E+03  0.00000000000E+00 0. -1.
         21   -1    0    0  501  502  0.00000000000E+00 -0.00000000000E+00 -0.66357520986E+03  0.66357520986E+03  0.00000000000E+00 0. -1.
   -9000010    2    1    2    0  502 -0.25170802619E+03 -0.71403447014E+02  0.22567546998E+02  0.10247629125E+04  0.99054245239E+03 0.  0.
         13    1    3    3    0    0  0.51924740480E+02 -0.49795447288E+03  0.22952490249E+02  0.50118027067E+03  0.10566000000E+00 0. -1.
         -4    1    3    3    0  502 -0.30363276667E+03  0.42655102587E+03 -0.38494325172E+00  0.52358264184E+03  0.00000000000E+00 0. -1.
        -13    1    1    2    0    0  0.25170802619E+03  0.71403447014E+02 -0.57146969898E+02  0.26780808431E+03  0.10566000000E+00 0.  1.
<mgrwt>
<rscale>  1 0.72830713E+03</rscale>
<asrwt>0</asrwt>
<pdfrwt beam="2">  1       21 0.10208849E+00 0.10245144E+04</pdfrwt>
<pdfrwt beam="1">  1       -4 0.96768582E-01 0.10245144E+04</pdfrwt>
<totfact> 0.26073688E+01</totfact>
</mgrwt>
</event>
<event>
 6    2  0.2345636E-005  0.1053583E+04  0.7818608E-02  0.9526192E-01
         -4   -1    0    0    0  501 -0.00000000000E+00  0.00000000000E+00  0.55839354743E+03  0.55839354743E+03  0.00000000000E+00 0. -1.
         21   -1    0    0  501  502  0.00000000000E+00 -0.00000000000E+00 -0.10082977866E+04  0.10082977866E+04  0.00000000000E+00 0. -1.
   -9000010    2    1    2    0  502 -0.35452211804E+03 -0.17145525220E+03 -0.50620713791E+03  0.11688812496E+04  0.97721792532E+03 0.  0.
         13    1    3    3    0    0  0.21112176953E+03 -0.38263908865E+03 -0.30315105103E+03  0.53186995087E+03  0.10566000000E+00 0. -1.
         -4    1    3    3    0  502 -0.56564388757E+03  0.21118383645E+03 -0.20305608687E+03  0.63701129875E+03  0.00000000000E+00 0. -1.
        -13    1    1    2    0    0  0.35452211804E+03  0.17145525220E+03  0.56302898742E+02  0.39781008441E+03  0.10566000000E+00 0.  1.
<mgrwt>
<rscale>  1 0.82380063E+03</rscale>
<asrwt>0</asrwt>
<pdfrwt beam="2">  1       21 0.15512274E+00 0.10535833E+04</pdfrwt>
<pdfrwt beam="1">  1       -4 0.85906700E-01 0.10535833E+04</pdfrwt>
<totfact> 0.11400768E+01</totfact>
</mgrwt>
</event>
<event>
 6    2  0.2345636E-005  0.1096672E+04  0.7818608E-02  0.9455206E-01
         21   -1    0    0  501  502  0.00000000000E+00  0.00000000000E+00  0.75087702378E+03  0.75087702378E+03  0.00000000000E+00 0.  1.
         -4   -1    0    0    0  501 -0.00000000000E+00 -0.00000000000E+00 -0.95240895849E+03  0.95240895849E+03  0.00000000000E+00 0. -1.
   -9000010    2    1    2    0  502 -0.44710104191E+03  0.26071840356E+02  0.18441846380E+03  0.11120696058E+04  0.10010542222E+04 0.  0.
         13    1    3    3    0    0  0.22772381233E+03 -0.23480219360E+03  0.20898958406E+03  0.38815829532E+03  0.10566000000E+00 0. -1.
         -4    1    3    3    0  502 -0.67482485423E+03  0.26087403395E+03 -0.24571120259E+02  0.72391131048E+03  0.00000000000E+00 0. -1.
        -13    1    1    2    0    0  0.44710104191E+03 -0.26071840356E+02 -0.38595039851E+03  0.59121637647E+03  0.10566000000E+00 0.  1.
<mgrwt>
<rscale>  1 0.87668416E+03</rscale>
<asrwt>0</asrwt>
<pdfrwt beam="1">  1       21 0.11551954E+00 0.10966716E+04</pdfrwt>
<pdfrwt beam="2">  1       -4 0.14652446E+00 0.10966716E+04</pdfrwt>
<totfact> 0.66541007E+00</totfact>
</mgrwt>
</event>
<event>
 6    2  0.2345636E-005  0.1567141E+04  0.7818608E-02  0.8911168E-01
         -4   -1    0    0    0  501 -0.00000000000E+00  0.00000000000E+00  0.15672253446E+04  0.15672253446E+04  0.00000000000E+00 0. -1.
         21   -1    0    0  501  502  0.00000000000E+00 -0.00000000000E+00 -0.18620903275E+04  0.18620903275E+04  0.00000000000E+00 0.  1.
   -9000010    2    1    2    0  502  0.26302595056E+03  0.11524739566E+04 -0.11723466415E+04  0.19571224294E+04  0.10288598955E+04 0.  0.
         13    1    3    3    0    0  0.50760623965E+03  0.23534705686E+03 -0.18941007550E+03  0.59070171793E+03  0.10566000000E+00 0. -1.
         -4    1    3    3    0  502 -0.24458028909E+03  0.91712689978E+03 -0.98293656597E+03  0.13664207115E+04  0.00000000000E+00 0. -1.
        -13    1    1    2    0    0 -0.26302595056E+03 -0.11524739566E+04  0.87748165864E+03  0.14721932427E+04  0.10566000000E+00 0.  1.
<mgrwt>
<rscale>  1 0.14604792E+04</rscale>
<asrwt>0</asrwt>
<pdfrwt beam="2">  1       21 0.28647543E+00 0.15671412E+04</pdfrwt>
<pdfrwt beam="1">  1       -4 0.24111159E+00 0.15671412E+04</pdfrwt>
<totfact> 0.79775776E-02</totfact>
</mgrwt>
</event>
<event>
 6    2  0.2345636E-005  0.1013889E+04  0.7818608E-02  0.9833063E-01
         21   -1    0    0  501  502  0.00000000000E+00  0.00000000000E+00  0.34732320555E+04  0.34732320555E+04  0.00000000000E+00 0. -1.
         -4   -1    0    0    0  501 -0.00000000000E+00 -0.00000000000E+00 -0.10825544769E+03  0.10825544769E+03  0.00000000000E+00 0. -1.
   -9000010    2    1    2    0  502 -0.19014691504E+02 -0.15600744552E+03  0.31853286789E+04  0.33427967596E+04  0.10016344153E+04 0.  0.
         13    1    3    3    0    0 -0.30166788929E+03  0.19657122593E+03  0.48026795447E+03  0.60025084885E+03  0.10566000000E+00 0. -1.
         -4    1    3    3    0  502  0.28265319778E+03 -0.35257867145E+03  0.27050607244E+04  0.27425459107E+04  0.00000000000E+00 0. -1.
        -13    1    1    2    0    0  0.19014691504E+02  0.15600744552E+03  0.17964792895E+03  0.23869074362E+03  0.10566000000E+00 0.  1.
<mgrwt>
<rscale>  1 0.63617964E+03</rscale>
<asrwt>0</asrwt>
<pdfrwt beam="1">  1       21 0.53434331E+00 0.10138892E+04</pdfrwt>
<pdfrwt beam="2">  1       -4 0.16654687E-01 0.10138892E+04</pdfrwt>
<totfact> 0.93158007E-01</totfact>
</mgrwt>
</event>
<event>
 6    2  0.2345636E-005  0.1420152E+04  0.7818608E-02  0.9039748E-01
         -4   -1    0    0    0  501 -0.00000000000E+00  0.00000000000E+00  0.60909796848E+03  0.60909796848E+03  0.00000000000E+00 0. -1.
         21   -1    0    0  501  502  0.00000000000E+00 -0.00000000000E+00 -0.30249903703E+04  0.30249903703E+04  0.00000000000E+00 0.  1.
   -9000010    2    1    2    0  502 -0.89300096263E+03 -0.34846343079E+03 -0.22508244829E+04  0.26613988144E+04  0.10478336291E+04 0.  0.
         13    1    3    3    0    0 -0.53878773727E+03 -0.20429869844E+03 -0.22016704028E+04  0.22758257309E+04  0.10566000000E+00 0. -1.
         -4    1    3    3    0  502 -0.35421322535E+03 -0.14416473235E+03 -0.49154080158E+02  0.38557308343E+03  0.00000000000E+00 0. -1.
        -13    1    1    2    0    0  0.89300096263E+03  0.34846343079E+03 -0.16506791887E+03  0.97268952439E+03  0.10566000000E+00 0.  1.
<mgrwt>
<rscale>  1 0.12872367E+04</rscale>
<asrwt>0</asrwt>
<pdfrwt beam="2">  1       21 0.46538313E+00 0.14201524E+04</pdfrwt>
<pdfrwt beam="1">  1       -4 0.93707381E-01 0.14201524E+04</pdfrwt>
<totfact> 0.76497800E-02</totfact>
</mgrwt>
</event>
<event>
 6    2  0.2345636E-005  0.1161846E+04  0.7818608E-02  0.9338202E-01
         -4   -1    0    0    0  501 -0.00000000000E+00  0.00000000000E+00  0.13893599543E+04  0.13893599543E+04  0.00000000000E+00 0. -1.
         21   -1    0    0  501  502  0.00000000000E+00 -0.00000000000E+00 -0.10394480186E+04  0.10394480186E+04  0.00000000000E+00 0. -1.
   -9000010    2    1    2    0  502 -0.47786513840E+03  0.31517386321E+03 -0.60918564430E+03  0.13118666881E+04  0.10110377854E+04 0.  0.
         13    1    3    3    0    0 -0.61701568366E+03 -0.14325954529E+03 -0.15590906925E+03  0.65233373379E+03  0.10566000000E+00 0. -1.
         -4    1    3    3    0  502  0.13915054526E+03  0.45843340850E+03 -0.45327657505E+03  0.65953295427E+03  0.00000000000E+00 0. -1.
        -13    1    1    2    0    0  0.47786513840E+03 -0.31517386321E+03  0.95909758003E+03  0.11169412848E+04  0.10566000000E+00 0.  1.
<mgrwt>
<rscale>  1 0.97340681E+03</rscale>
<asrwt>0</asrwt>
<pdfrwt beam="2">  1       21 0.15991508E+00 0.11618464E+04</pdfrwt>
<pdfrwt beam="1">  1       -4 0.21374769E+00 0.11618464E+04</pdfrwt>
<totfact> 0.91659614E-01</totfact>
</mgrwt>
</event>
<event>
 6    2  0.2345636E-005  0.1010377E+04  0.7818608E-02  0.9583312E-01
         21   -1    0    0  501  502  0.00000000000E+00  0.00000000000E+00  0.12978986202E+04  0.12978986202E+04  0.00000000000E+00 0.  1.
         -4   -1    0    0    0  501 -0.00000000000E+00 -0.00000000000E+00 -0.37953280420E+03  0.37953280420E+03  0.00000000000E+00 0. -1.
   -9000010    2    1    2    0  502 -0.13489191373E+03  0.34075102720E+03  0.52072831605E+03  0.11366702170E+04  0.94157002507E+03 0.  0.
         13    1    3    3    0    0 -0.29604941847E+03 -0.69619701842E+02  0.61476012778E+03  0.68587330239E+03  0.10566000000E+00 0. -1.
         -4    1    3    3    0  502  0.16115750474E+03  0.41037072904E+03 -0.94031811725E+02  0.45079691459E+03  0.00000000000E+00 0. -1.
        -13    1    1    2    0    0  0.13489191373E+03 -0.34075102720E+03  0.39763749995E+03  0.54076120742E+03  0.10566000000E+00 0.  1.
<mgrwt>
<rscale>  1 0.78410629E+03</rscale>
<asrwt>0</asrwt>
<pdfrwt beam="1">  1       21 0.19967671E+00 0.10103768E+04</pdfrwt>
<pdfrwt beam="2">  1       -4 0.58389663E-01 0.10103768E+04</pdfrwt>
<totfact> 0.12843171E+01</totfact>
</mgrwt>
</event>
<event>
 6    2  0.2345636E-005  0.9226820E+03  0.7818608E-02  0.9972568E-01
         -4   -1    0    0    0  501 -0.00000000000E+00  0.00000000000E+00  0.21976352501E+03  0.21976352501E+03  0.00000000000E+00 0. -1.
         21   -1    0    0  501  502  0.00000000000E+00 -0.00000000000E+00 -0.21287088057E+04  0.21287088057E+04  0.00000000000E+00 0. -1.
   -9000010    2    1    2    0  502  0.34734418092E+02  0.12854718917E+03 -0.19893584937E+04  0.21929179812E+04  0.91302310810E+03 0.  0.
         13    1    3    3    0    0  0.57507542929E+02 -0.37352830444E+03 -0.11910819192E+04  0.12496026012E+04  0.10566000000E+00 0. -1.
         -4    1    3    3    0  502 -0.22773124838E+02  0.50207549362E+03 -0.79827657458E+03  0.94331537994E+03  0.00000000000E+00 0. -1.
        -13    1    1    2    0    0 -0.34734418092E+02 -0.12854718917E+03  0.80413213088E+02  0.15555434950E+03  0.10566000000E+00 0.  1.
<mgrwt>
<rscale>  1 0.56869615E+03</rscale>
<asrwt>0</asrwt>
<pdfrwt beam="2">  1       21 0.32749366E+00 0.92268199E+03</pdfrwt>
<pdfrwt beam="1">  1       -4 0.33809773E-01 0.92268199E+03</pdfrwt>
<totfact> 0.62045932E+00</totfact>
</mgrwt>
</event>
<event>
 6    2  0.2345636E-005  0.1071891E+04  0.7818608E-02  0.9538214E-01
         21   -1    0    0  501  502  0.00000000000E+00  0.00000000000E+00  0.73697399921E+03  0.73697399921E+03  0.00000000000E+00 0.  1.
         -4   -1    0    0    0  501 -0.00000000000E+00 -0.00000000000E+00 -0.69719607857E+03  0.69719607857E+03  0.00000000000E+00 0. -1.
   -9000010    2    1    2    0  502  0.34960950888E+03  0.80100889737E+02 -0.10850759499E+02  0.10719460647E+04  0.10101027994E+04 0.  0.
         13    1    3    3    0    0  0.37613581757E+03  0.23398420016E+03  0.42198815729E+03  0.61180125469E+03  0.10566000000E+00 0. -1.
         -4    1    3    3    0  502 -0.26526308688E+02 -0.15388331042E+03 -0.43283891679E+03  0.46014481000E+03  0.00000000000E+00 0. -1.
        -13    1    1    2    0    0 -0.34960950888E+03 -0.80100889737E+02  0.50628680135E+02  0.36222401308E+03  0.10566000000E+00 0.  1.
<mgrwt>
<rscale>  1 0.81524159E+03</rscale>
<asrwt>0</asrwt>
<pdfrwt beam="1">  1       21 0.11338061E+00 0.10718911E+04</pdfrwt>
<pdfrwt beam="2">  1       -4 0.10726094E+00 0.10718911E+04</pdfrwt>
<totfact> 0.15512978E+01</totfact>
</mgrwt>
</event>
<event>
 6    2  0.2345636E-005  0.1002037E+04  0.7818608E-02  0.9741452E-01
         -4   -1    0    0    0  501 -0.00000000000E+00  0.00000000000E+00  0.24964705941E+04  0.24964705941E+04  0.00000000000E+00 0. -1.
         21   -1    0    0  501  502  0.00000000000E+00 -0.00000000000E+00 -0.15753547809E+03  0.15753547809E+03  0.00000000000E+00 0. -1.
   -9000010    2    1    2    0  502  0.86318234600E+02  0.20250253973E+03  0.21130310055E+04  0.23385844582E+04  0.97755773333E+03 0.  0.
         13    1    3    3    0    0  0.13729465179E+03  0.38545305942E+03  0.21093078466E+04  0.21486282799E+04  0.10566000000E+00 0. -1.
         -4    1    3    3    0  502 -0.50976417194E+02 -0.18295051969E+03  0.37231588708E+01  0.18995617830E+03  0.00000000000E+00 0. -1.
        -13    1    1    2    0    0 -0.86318234600E+02 -0.20250253973E+03  0.22590411054E+03  0.31542161395E+03  0.10566000000E+00 0.  1.
<mgrwt>
<rscale>  1 0.68601491E+03</rscale>
<asrwt>0</asrwt>
<pdfrwt beam="2">  1       21 0.24236229E-01 0.10020365E+04</pdfrwt>
<pdfrwt beam="1">  1       -4 0.38407237E+00 0.10020365E+04</pdfrwt>
<totfact> 0.59761487E+00</totfact>
</mgrwt>
</event>
<event>
 6    2  0.2345636E-005  0.7536199E+03  0.7818608E-02  0.1035440E+00
         -4   -1    0    0    0  501 -0.00000000000E+00  0.00000000000E+00  0.14755541854E+03  0.14755541854E+03  0.00000000000E+00 0. -1.
         21   -1    0    0  501  502  0.00000000000E+00 -0.00000000000E+00 -0.13260340584E+04  0.13260340584E+04  0.00000000000E+00 0. -1.
   -9000010    2    1    2    0  502 -0.22872046366E+02 -0.72738434621E+02 -0.11766713610E+04  0.13973183304E+04  0.74975263537E+03 0.  0.
         13    1    3    3    0    0  0.14966158942E+03  0.13188815491E+03 -0.11013443889E+04  0.11192642900E+04  0.10566000000E+00 0. -1.
         -4    1    3    3    0  502 -0.17253363578E+03 -0.20462658954E+03 -0.75326972036E+02  0.27805404032E+03  0.00000000000E+00 0. -1.
        -13    1    1    2    0    0  0.22872046366E+02  0.72738434621E+02 -0.18072788715E+01  0.76271146557E+02  0.10566000000E+00 0.  1.
<mgrwt>
<rscale>  1 0.42503419E+03</rscale>
<asrwt>0</asrwt>
<pdfrwt beam="2">  1       21 0.20400523E+00 0.75361995E+03</pdfrwt>
<pdfrwt beam="1">  1       -4 0.22700834E-01 0.75361995E+03</pdfrwt>
<totfact> 0.83139128E+01</totfact>
</mgrwt>
</event>
<event>
 6    2  0.2345636E-005  0.1070394E+04  0.7818608E-02  0.9534048E-01
         21   -1    0    0  501  502  0.00000000000E+00  0.00000000000E+00  0.92873353205E+03  0.92873353205E+03  0.00000000000E+00 0. -1.
         -4   -1    0    0    0  501 -0.00000000000E+00 -0.00000000000E+00 -0.96384354734E+03  0.96384354734E+03  0.00000000000E+00 0. -1.
   -9000010    2    1    2    0  502 -0.32627597584E+03 -0.16455359990E+03  0.54946445133E+03  0.12031851605E+04  0.10060862028E+04 0.  0.
         13    1    3    3    0    0 -0.60864017115E+03 -0.95209416466E+02  0.64999160391E+03  0.89554273334E+03  0.10566000000E+00 0. -1.
         -4    1    3    3    0  502  0.28236419532E+03 -0.69344183434E+02 -0.10052715258E+03  0.30764242714E+03  0.00000000000E+00 0. -1.
        -13    1    1    2    0    0  0.32627597584E+03  0.16455359990E+03 -0.58457446663E+03  0.68939191891E+03  0.10566000000E+00 0.  1.
<mgrwt>
<rscale>  1 0.81819477E+03</rscale>
<asrwt>0</asrwt>
<pdfrwt beam="1">  1       21 0.14288208E+00 0.10703940E+04</pdfrwt>
<pdfrwt beam="2">  1       -4 0.14828362E+00 0.10703940E+04</pdfrwt>
<totfact> 0.36762452E+00</totfact>
</mgrwt>
</event>
<event>
 6    2  0.2345636E-005  0.1087013E+04  0.7818608E-02  0.9481164E-01
         21   -1    0    0  501  502  0.00000000000E+00  0.00000000000E+00  0.80197781986E+03  0.80197781986E+03  0.00000000000E+00 0.  1.
         -4   -1    0    0    0  501 -0.00000000000E+00 -0.00000000000E+00 -0.84798190716E+03  0.84798190716E+03  0.00000000000E+00 0. -1.
   -9000010    2    1    2    0  502 -0.85735343913E+02 -0.41086361431E+03 -0.33836408945E+03  0.11384581720E+04  0.10027149613E+04 0.  0.
         13    1    3    3    0    0  0.30416184582E+03  0.16034894020E+03  0.46529424040E+02  0.34697436439E+03  0.10566000000E+00 0. -1.
         -4    1    3    3    0  502 -0.38989718974E+03 -0.57121255451E+03 -0.38489351349E+03  0.79148380762E+03  0.00000000000E+00 0. -1.
        -13    1    1    2    0    0  0.85735343913E+02  0.41086361431E+03  0.29236000215E+03  0.51150155502E+03  0.10566000000E+00 0.  1.
<mgrwt>
<rscale>  1 0.85686872E+03</rscale>
<asrwt>0</asrwt>
<pdfrwt beam="1">  1       21 0.12338120E+00 0.10870128E+04</pdfrwt>
<pdfrwt beam="2">  1       -4 0.13045876E+00 0.10870128E+04</pdfrwt>
<totfact> 0.76127988E+00</totfact>
</mgrwt>
</event>
<event>
 6    2  0.2345636E-005  0.1030346E+04  0.7818608E-02  0.9690452E-01
         21   -1    0    0  501  502  0.00000000000E+00  0.00000000000E+00  0.17434972837E+04  0.17434972837E+04  0.00000000000E+00 0. -1.
         -4   -1    0    0    0  501 -0.00000000000E+00 -0.00000000000E+00 -0.25845366632E+03  0.25845366632E+03  0.00000000000E+00 0. -1.
   -9000010    2    1    2    0  502  0.11778325165E+03 -0.20923934957E+03  0.14177147323E+04  0.17525773554E+04  0.10019772077E+04 0.  0.
         13    1    3    3    0    0 -0.66004527618E+01  0.38731329015E+03  0.34437158465E+03  0.51831163423E+03  0.10566000000E+00 0. -1.
         -4    1    3    3    0  502  0.12438370442E+03 -0.59655263972E+03  0.10733431476E+04  0.12342657211E+04  0.00000000000E+00 0. -1.
        -13    1    1    2    0    0 -0.11778325165E+03  0.20923934957E+03  0.67328885149E+02  0.24937359467E+03  0.10566000000E+00 0.  1.
<mgrwt>
<rscale>  1 0.71588114E+03</rscale>
<asrwt>0</asrwt>
<pdfrwt beam="1">  1       21 0.26823034E+00 0.10303457E+04</pdfrwt>
<pdfrwt beam="2">  1       -4 0.39762104E-01 0.10303457E+04</pdfrwt>
<totfact> 0.10271640E+01</totfact>
</mgrwt>
</event>
<event>
 6    2  0.2345636E-005  0.9391072E+03  0.7818608E-02  0.9862211E-01
         -4   -1    0    0    0  501 -0.00000000000E+00  0.00000000000E+00  0.59564726139E+03  0.59564726139E+03  0.00000000000E+00 0. -1.
         21   -1    0    0  501  502  0.00000000000E+00 -0.00000000000E+00 -0.10908439916E+04  0.10908439916E+04  0.00000000000E+00 0. -1.
   -9000010    2    1    2    0  502  0.17968597364E+03 -0.85828467703E+01 -0.86403752996E+03  0.12761203705E+04  0.92171667692E+03 0.  0.
         13    1    3    3    0    0  0.38912189186E+03  0.14927334820E+03 -0.48659643131E+02  0.41960237278E+03  0.10566000000E+00 0. -1.
         -4    1    3    3    0  502 -0.20943591822E+03 -0.15785619497E+03 -0.81537788683E+03  0.85651799775E+03  0.00000000000E+00 0. -1.
        -13    1    1    2    0    0 -0.17968597364E+03  0.85828467703E+01  0.36884079979E+03  0.41037088241E+03  0.10566000000E+00 0.  1.
<mgrwt>
<rscale>  1 0.62128184E+03</rscale>
<asrwt>0</asrwt>
<pdfrwt beam="2">  1       21 0.16782215E+00 0.93910721E+03</pdfrwt>
<pdfrwt beam="1">  1       -4 0.91638040E-01 0.93910721E+03</pdfrwt>
<totfact> 0.79306420E+00</totfact>
</mgrwt>
</event>
<event>
 6    2  0.2345636E-005  0.1024553E+04  0.7818608E-02  0.9635379E-01
         21   -1    0    0  501  502  0.00000000000E+00  0.00000000000E+00  0.14476936536E+04  0.14476936536E+04  0.00000000000E+00 0. -1.
         -4   -1    0    0    0  501 -0.00000000000E+00 -0.00000000000E+00 -0.30052231169E+03  0.30052231169E+03  0.00000000000E+00 0. -1.
   -9000010    2    1    2    0  502 -0.25861312952E+03 -0.14019993425E+03  0.87173795625E+03  0.13452267180E+04  0.98141280112E+03 0.  0.
         13    1    3    3    0    0 -0.52446459896E+03 -0.33690918812E+02  0.91538881976E+03  0.10555258860E+04  0.10566000000E+00 0. -1.
         -4    1    3    3    0  502  0.26585146945E+03 -0.10650901544E+03 -0.43650863505E+02  0.28970083200E+03  0.00000000000E+00 0. -1.
        -13    1    1    2    0    0  0.25861312952E+03  0.14019993425E+03  0.27543338569E+03  0.40298924730E+03  0.10566000000E+00 0.  1.
<mgrwt>
<rscale>  1 0.74998196E+03</rscale>
<asrwt>0</asrwt>
<pdfrwt beam="1">  1       21 0.22272210E+00 0.10245525E+04</pdfrwt>
<pdfrwt beam="2">  1       -4 0.46234203E-01 0.10245525E+04</pdfrwt>
<totfact> 0.14735543E+01</totfact>
</mgrwt>
</event>
<event>
 6    2  0.2345636E-005  0.1013618E+04  0.7818608E-02  0.9815358E-01
         21   -1    0    0  501  502  0.00000000000E+00  0.00000000000E+00  0.20698348471E+03  0.20698348471E+03  0.00000000000E+00 0. -1.
         -4   -1    0    0    0  501 -0.00000000000E+00 -0.00000000000E+00 -0.19106852805E+04  0.19106852805E+04  0.00000000000E+00 0. -1.
   -9000010    2    1    2    0  502 -0.69119538267E+02  0.15164751980E+03 -0.11196747274E+04  0.15103285734E+04  0.99982319617E+03 0.  0.
         13    1    3    3    0    0  0.37827621094E+03 -0.38435945259E+02 -0.11996237934E+03  0.39869938208E+03  0.10566000000E+00 0. -1.
         -4    1    3    3    0  502 -0.44739574921E+03  0.19008346506E+03 -0.99971234809E+03  0.11116291913E+04  0.00000000000E+00 0. -1.
        -13    1    1    2    0    0  0.69119538267E+02 -0.15164751980E+03 -0.58402706837E+03  0.60734019180E+03  0.10566000000E+00 0.  1.
<mgrwt>
<rscale>  1 0.64544823E+03</rscale>
<asrwt>0</asrwt>
<pdfrwt beam="1">  1       21 0.31843612E-01 0.10136177E+04</pdfrwt>
<pdfrwt beam="2">  1       -4 0.29395159E+00 0.10136177E+04</pdfrwt>
<totfact> 0.13093285E+01</totfact>
</mgrwt>
</event>
<event>
 6    2  0.2345636E-005  0.1070944E+04  0.7818608E-02  0.9519741E-01
         -4   -1    0    0    0  501 -0.00000000000E+00  0.00000000000E+00  0.28549746346E+03  0.28549746346E+03  0.00000000000E+00 0. -1.
         21   -1    0    0  501  502  0.00000000000E+00 -0.00000000000E+00 -0.18577051764E+04  0.18577051764E+04  0.00000000000E+00 0. -1.
   -9000010    2    1    2    0  502  0.16048667114E+03  0.34828217622E+03 -0.12073930121E+04  0.16139142280E+04  0.99993239951E+03 0.  0.
         13    1    3    3    0    0 -0.71756161311E+02 -0.33820060266E+03 -0.41348983983E+03  0.53898279484E+03  0.10566000000E+00 0. -1.
         -4    1    3    3    0  502  0.23224283245E+03  0.68648277888E+03 -0.79390317232E+03  0.10749314331E+04  0.00000000000E+00 0. -1.
        -13    1    1    2    0    0 -0.16048667114E+03 -0.34828217622E+03 -0.36481470079E+03  0.52928841190E+03  0.10566000000E+00 0.  1.
<mgrwt>
<rscale>  1 0.82843915E+03</rscale>
<asrwt>0</asrwt>
<pdfrwt beam="2">  1       21 0.28580081E+00 0.10709441E+04</pdfrwt>
<pdfrwt beam="1">  1       -4 0.43922685E-01 0.10709441E+04</pdfrwt>
<totfact> 0.64595958E+00</totfact>
</mgrwt>
</event>
<event>
 6    2  0.2345636E-005  0.1069374E+04  0.7818608E-02  0.9512987E-01
         21   -1    0    0  501  502  0.00000000000E+00  0.00000000000E+00  0.70662295632E+03  0.70662295632E+03  0.00000000000E+00 0. -1.
         -4   -1    0    0    0  501 -0.00000000000E+00 -0.00000000000E+00 -0.11895637308E+04  0.11895637308E+04  0.00000000000E+00 0. -1.
   -9000010    2    1    2    0  502  0.26171629945E+03 -0.29498458713E+03  0.21852404697E+03  0.10914729275E+04  0.99400657155E+03 0.  0.
         13    1    3    3    0    0 -0.11711217991E+03  0.15031090910E+03 -0.26940299857E+03  0.32997972495E+03  0.10566000000E+00 0. -1.
         -4    1    3    3    0  502  0.37882847936E+03 -0.44529549623E+03  0.48792704554E+03  0.76149320253E+03  0.00000000000E+00 0. -1.
        -13    1    1    2    0    0 -0.26171629945E+03  0.29498458713E+03 -0.70146482147E+03  0.80471375965E+03  0.10566000000E+00 0.  1.
<mgrwt>
<rscale>  1 0.83333078E+03</rscale>
<asrwt>0</asrwt>
<pdfrwt beam="1">  1       21 0.10871122E+00 0.10693738E+04</pdfrwt>
<pdfrwt beam="2">  1       -4 0.18300980E+00 0.10693738E+04</pdfrwt>
<totfact> 0.41945430E+00</totfact>
</mgrwt>
</event>
<event>
 6    2  0.2345636E-005  0.1057189E+04  0.7818608E-02  0.9553172E-01
         -4   -1    0    0    0  501 -0.00000000000E+00  0.00000000000E+00  0.57085594349E+03  0.57085594349E+03  0.00000000000E+00 0. -1.
         21   -1    0    0  501  502  0.00000000000E+00 -0.00000000000E+00 -0.88948810914E+03  0.88948810914E+03  0.00000000000E+00 0. -1.
   -9000010    2    1    2    0  502  0.24049718466E+03 -0.26106856080E+03 -0.32276123752E+03  0.11053613071E+04  0.99581781135E+03 0.  0.
         13    1    3    3    0    0  0.41661650390E+03 -0.48469730285E+03  0.44515873248E+02  0.64068905161E+03  0.10566000000E+00 0. -1.
         -4    1    3    3    0  502 -0.17611931924E+03  0.22362874206E+03 -0.36727711077E+03  0.46467225544E+03  0.00000000000E+00 0. -1.
        -13    1    1    2    0    0 -0.24049718466E+03  0.26106856080E+03  0.41290718713E+01  0.35498274559E+03  0.10566000000E+00 0.  1.
<mgrwt>
<rscale>  1 0.80474627E+03</rscale>
<asrwt>0</asrwt>
<pdfrwt beam="2">  1       21 0.13684432E+00 0.10571891E+04</pdfrwt>
<pdfrwt beam="1">  1       -4 0.87823992E-01 0.10571891E+04</pdfrwt>
<totfact> 0.15308407E+01</totfact>
</mgrwt>
</event>
<event>
 6    2  0.2345636E-005  0.1010942E+04  0.7818608E-02  0.9765987E-01
         21   -1    0    0  501  502  0.00000000000E+00  0.00000000000E+00  0.39829881920E+03  0.39829881920E+03  0.00000000000E+00 0. -1.
         -4   -1    0    0    0  501 -0.00000000000E+00 -0.00000000000E+00 -0.96957043320E+03  0.96957043320E+03  0.00000000000E+00 0. -1.
   -9000010    2    1    2    0  502 -0.16957044042E+02  0.19688700130E+03 -0.34672407112E+03  0.10687478008E+04  0.99143948258E+03 0.  0.
         13    1    3    3    0    0 -0.40738291110E+03 -0.18906957910E+03 -0.24089730536E+03  0.50964660784E+03  0.10566000000E+00 0. -1.
         -4    1    3    3    0  502  0.39042586706E+03  0.38595658040E+03 -0.10582676576E+03  0.55910119296E+03  0.00000000000E+00 0. -1.
        -13    1    1    2    0    0  0.16957044042E+02 -0.19688700130E+03 -0.22454754289E+03  0.29912145160E+03  0.10566000000E+00 0.  1.
<mgrwt>
<rscale>  1 0.67220268E+03</rscale>
<asrwt>0</asrwt>
<pdfrwt beam="1">  1       21 0.61276741E-01 0.10109423E+04</pdfrwt>
<pdfrwt beam="2">  1       -4 0.14916468E+00 0.10109423E+04</pdfrwt>
<totfact> 0.29114237E+01</totfact>
</mgrwt>
</event>
<event>
 6    2  0.2345636E-005  0.1033965E+04  0.7818608E-02  0.9728379E-01
         21   -1    0    0  501  502  0.00000000000E+00  0.00000000000E+00  0.20090577324E+03  0.20090577324E+03  0.00000000000E+00 0. -1.
         -4   -1    0    0    0  501 -0.00000000000E+00 -0.00000000000E+00 -0.19763121970E+04  0.19763121970E+04  0.00000000000E+00 0. -1.
   -9000010    2    1    2    0  502  0.10307212776E+03  0.18213210348E+03 -0.13260119679E+04  0.16814848215E+04  0.10125648124E+04 0.  0.
         13    1    3    3    0    0  0.20418358342E+03  0.15830045176E+03  0.80909874108E+02  0.27073305609E+03  0.10566000000E+00 0. -1.
         -4    1    3    3    0  502 -0.10111145566E+03  0.23831651715E+02 -0.14069218421E+04  0.14107517655E+04  0.00000000000E+00 0. -1.
        -13    1    1    2    0    0 -0.10307212776E+03 -0.18213210348E+03 -0.44939445585E+03  0.49573314873E+03  0.10566000000E+00 0.  1.
<mgrwt>
<rscale>  1 0.69351943E+03</rscale>
<asrwt>0</asrwt>
<pdfrwt beam="1">  1       21 0.30908581E-01 0.10339649E+04</pdfrwt>
<pdfrwt beam="2">  1       -4 0.30404803E+00 0.10339649E+04</pdfrwt>
<totfact> 0.12014420E+01</totfact>
</mgrwt>
</event>
<event>
 6    2  0.2345636E-005  0.1013954E+04  0.7818608E-02  0.1037177E+00
         -4   -1    0    0    0  501 -0.00000000000E+00  0.00000000000E+00  0.58805088647E+03  0.58805088647E+03  0.00000000000E+00 0. -1.
         21   -1    0    0  501  502  0.00000000000E+00 -0.00000000000E+00 -0.47565476540E+03  0.47565476540E+03  0.00000000000E+00 0. -1.
   -9000010    2    1    2    0  502  0.23900452496E+02  0.17720640052E+02  0.76146191079E+02  0.10168087298E+04  0.10135168957E+04 0.  0.
         13    1    3    3    0    0  0.50874375310E+02 -0.48382284712E+03 -0.75121839476E+02  0.49225608314E+03  0.10566000000E+00 0. -1.
         -4    1    3    3    0  502 -0.26973922814E+02  0.50154348717E+03  0.15126803056E+03  0.52455264664E+03  0.00000000000E+00 0. -1.
        -13    1    1    2    0    0 -0.23900452496E+02 -0.17720640052E+02  0.36249929992E+02  0.46896922093E+02  0.10566000000E+00 0.  1.
<mgrwt>
<rscale>  1 0.41966005E+03</rscale>
<asrwt>0</asrwt>
<pdfrwt beam="2">  1       21 0.73177656E-01 0.10139535E+04</pdfrwt>
<pdfrwt beam="1">  1       -4 0.90469368E-01 0.10139535E+04</pdfrwt>
<totfact> 0.67989273E+01</totfact>
</mgrwt>
</event>
<event>
 6    2  0.2345636E-005  0.1099858E+04  0.7818608E-02  0.9427539E-01
         -4   -1    0    0    0  501 -0.00000000000E+00  0.00000000000E+00  0.59459093821E+03  0.59459093821E+03  0.00000000000E+00 0. -1.
         21   -1    0    0  501  502  0.00000000000E+00 -0.00000000000E+00 -0.11172880168E+04  0.11172880168E+04  0.00000000000E+00 0. -1.
   -9000010    2    1    2    0  502  0.28698759822E+03 -0.39680200354E+03 -0.53269530234E+03  0.12220691070E+04  0.98482227107E+03 0.  0.
         13    1    3    3    0    0  0.19644606319E+03 -0.72520540131E+03 -0.29744080615E+03  0.80807485678E+03  0.10566000000E+00 0. -1.
         -4    1    3    3    0  502  0.90541535030E+02  0.32840339777E+03 -0.23525449619E+03  0.41399425022E+03  0.00000000000E+00 0. -1.
        -13    1    1    2    0    0 -0.28698759822E+03  0.39680200354E+03  0.99982237705E+01  0.48980984799E+03  0.10566000000E+00 0.  1.
<mgrwt>
<rscale>  1 0.89843539E+03</rscale>
<asrwt>0</asrwt>
<pdfrwt beam="2">  1       21 0.17189046E+00 0.10998585E+04</pdfrwt>
<pdfrwt beam="1">  1       -4 0.91475529E-01 0.10998585E+04</pdfrwt>
<totfact> 0.72732990E+00</totfact>
</mgrwt>
</event>
<event>
 6    2  0.2345636E-005  0.1009485E+04  0.7818608E-02  0.9566552E-01
         -4   -1    0    0    0  501 -0.00000000000E+00  0.00000000000E+00  0.11979609743E+04  0.11979609743E+04  0.00000000000E+00 0. -1.
         21   -1    0    0  501  502  0.00000000000E+00 -0.00000000000E+00 -0.91274872190E+03  0.91274872190E+03  0.00000000000E+00 0. -1.
   -9000010    2    1    2    0  502  0.32620304790E+03 -0.21244224162E+03 -0.57837864287E+03  0.11634349842E+04  0.93140698590E+03 0.  0.
         13    1    3    3    0    0  0.42652444652E+03  0.22507395777E+03 -0.73441502457E+02  0.48782687031E+03  0.10566000000E+00 0. -1.
         -4    1    3    3    0  502 -0.10032139862E+03 -0.43751619938E+03 -0.50493714042E+03  0.67560811386E+03  0.00000000000E+00 0. -1.
        -13    1    1    2    0    0 -0.32620304790E+03  0.21244224162E+03  0.86359089530E+03  0.94727471205E+03  0.10566000000E+00 0.  1.
<mgrwt>
<rscale>  1 0.79550100E+03</rscale>
<asrwt>0</asrwt>
<pdfrwt beam="2">  1       21 0.14042288E+00 0.10094846E+04</pdfrwt>
<pdfrwt beam="1">  1       -4 0.18430169E+00 0.10094846E+04</pdfrwt>
<totfact> 0.21182436E+00</totfact>
</mgrwt>
</event>
<event>
 6    2  0.2345636E-005  0.9781011E+03  0.7818608E-02  0.9726718E-01
         21   -1    0    0  501  502  0.00000000000E+00  0.00000000000E+00  0.75259671121E+03  0.75259671121E+03  0.00000000000E+00 0. -1.
         -4   -1    0    0    0  501 -0.00000000000E+00 -0.00000000000E+00 -0.50345706510E+03  0.50345706510E+03  0.00000000000E+00 0. -1.
   -9000010    2    1    2    0  502 -0.22723327130E+03  0.10081506376E+03  0.24086833791E+03  0.10073228728E+04  0.94598265162E+03 0.  0.
         13    1    3    3    0    0 -0.53227425674E+02 -0.16917642568E+02  0.59389231882E+03  0.59651275175E+03  0.10566000000E+00 0. -1.
         -4    1    3    3    0  502 -0.17400584562E+03  0.11773270632E+03 -0.35302398091E+03  0.41081012104E+03  0.00000000000E+00 0. -1.
        -13    1    1    2    0    0  0.22723327130E+03 -0.10081506376E+03  0.82713082042E+01  0.24873090353E+03  0.10566000000E+00 0.  1.
<mgrwt>
<rscale>  1 0.69448072E+03</rscale>
<asrwt>0</asrwt>
<pdfrwt beam="1">  1       21 0.11578411E+00 0.97810113E+03</pdfrwt>
<pdfrwt beam="2">  1       -4 0.77454934E-01 0.97810113E+03</pdfrwt>
<totfact> 0.32034852E+01</totfact>
</mgrwt>
</event>
<event>
 6    2  0.2345636E-005  0.1001717E+04  0.7818608E-02  0.9808403E-01
         21   -1    0    0  501  502  0.00000000000E+00  0.00000000000E+00  0.56756567607E+03  0.56756567607E+03  0.00000000000E+00 0. -1.
         -4   -1    0    0    0  501 -0.00000000000E+00 -0.00000000000E+00 -0.61166565992E+03  0.61166565992E+03  0.00000000000E+00 0. -1.
   -9000010    2    1    2    0  502  0.36240788073E+02 -0.17288891251E+03 -0.41063252635E+02  0.10025587470E+04  0.98601920860E+03 0.  0.
         13    1    3    3    0    0  0.49690811510E+03 -0.11541713734E+03 -0.13764610613E+03  0.52837983699E+03  0.10566000000E+00 0. -1.
         -4    1    3    3    0  502 -0.46066732703E+03 -0.57471775172E+02  0.96582853500E+02  0.47417891003E+03  0.00000000000E+00 0. -1.
        -13    1    1    2    0    0 -0.36240788073E+02  0.17288891251E+03 -0.30367312187E+01  0.17667258896E+03  0.10566000000E+00 0.  1.
<mgrwt>
<rscale>  1 0.64913531E+03</rscale>
<asrwt>0</asrwt>
<pdfrwt beam="1">  1       21 0.87317796E-01 0.10017175E+04</pdfrwt>
<pdfrwt beam="2">  1       -4 0.94102410E-01 0.10017175E+04</pdfrwt>
<totfact> 0.40912078E+01</totfact>
</mgrwt>
</event>
<event>
 6    2  0.2345636E-005  0.1033053E+04  0.7818608E-02  0.9679548E-01
         -4   -1    0    0    0  501 -0.00000000000E+00  0.00000000000E+00  0.25258206992E+04  0.25258206992E+04  0.00000000000E+00 0. -1.
         21   -1    0    0  501  502  0.00000000000E+00 -0.00000000000E+00 -0.16839334302E+03  0.16839334302E+03  0.00000000000E+00 0. -1.
   -9000010    2    1    2    0  502  0.22976414383E+03 -0.91006358658E+02  0.16697913422E+04  0.19635177866E+04  0.10030579508E+04 0.  0.
         13    1    3    3    0    0  0.67677289059E+02 -0.42578200899E+03  0.25553424999E+03  0.50116693697E+03  0.10566000000E+00 0. -1.
         -4    1    3    3    0  502  0.16208685477E+03  0.33477565033E+03  0.14142570922E+04  0.14623508496E+04  0.00000000000E+00 0. -1.
        -13    1    1    2    0    0 -0.22976414383E+03  0.91006358658E+02  0.68763601393E+03  0.73069625558E+03  0.10566000000E+00 0.  1.
<mgrwt>
<rscale>  1 0.72247667E+03</rscale>
<asrwt>0</asrwt>
<pdfrwt beam="2">  1       21 0.25906670E-01 0.10330532E+04</pdfrwt>
<pdfrwt beam="1">  1       -4 0.38858777E+00 0.10330532E+04</pdfrwt>
<totfact> 0.48589499E+00</totfact>
</mgrwt>
</event>
<event>
 6    2  0.2345636E-005  0.1033263E+04  0.7818608E-02  0.9751451E-01
         -4   -1    0    0    0  501 -0.00000000000E+00  0.00000000000E+00  0.10223428781E+04  0.10223428781E+04  0.00000000000E+00 0. -1.
         21   -1    0    0  501  502  0.00000000000E+00 -0.00000000000E+00 -0.43436518814E+03  0.43436518814E+03  0.00000000000E+00 0. -1.
   -9000010    2    1    2    0  502  0.11410472427E+03  0.15715927975E+03  0.24398844264E+03  0.10616795347E+04  0.10148468589E+04 0.  0.
         13    1    3    3    0    0  0.18729469830E+03 -0.31512655180E+03 -0.19282973399E+03  0.41420691101E+03  0.10566000000E+00 0. -1.
         -4    1    3    3    0  502 -0.73189974032E+02  0.47228583154E+03  0.43681817663E+03  0.64747262367E+03  0.00000000000E+00 0. -1.
        -13    1    1    2    0    0 -0.11410472427E+03 -0.15715927975E+03  0.34398924735E+03  0.39502853158E+03  0.10566000000E+00 0.  1.
<mgrwt>
<rscale>  1 0.68034342E+03</rscale>
<asrwt>0</asrwt>
<pdfrwt beam="2">  1       21 0.66825414E-01 0.10332633E+04</pdfrwt>
<pdfrwt beam="1">  1       -4 0.15728352E+00 0.10332633E+04</pdfrwt>
<totfact> 0.20701826E+01</totfact>
</mgrwt>
</event>
<event>
 6    2  0.2345636E-005  0.9883519E+03  0.7818608E-02  0.1008142E+00
         -4   -1    0    0    0  501 -0.00000000000E+00  0.00000000000E+00  0.15632405004E+03  0.15632405004E+03  0.00000000000E+00 0. -1.
         21   -1    0    0  501  502  0.00000000000E+00 -0.00000000000E+00 -0.19288668401E+04  0.19288668401E+04  0.00000000000E+00 0. -1.
   -9000010    2    1    2    0  502 -0.54360913709E+02  0.54562561895E+02 -0.17409638713E+04  0.20019477441E+04  0.98534632820E+03 0.  0.
         13    1    3    3    0    0 -0.22416599500E+03 -0.16731652011E+03 -0.16960489455E+04  0.17189610956E+04  0.10566000000E+00 0. -1.
         -4    1    3    3    0  502  0.16980508129E+03  0.22187908201E+03 -0.44914925803E+02  0.28298664849E+03  0.00000000000E+00 0. -1.
        -13    1    1    2    0    0  0.54360913709E+02 -0.54562561895E+02 -0.31578918728E+02  0.83243146096E+02  0.10566000000E+00 0.  1.
<mgrwt>
<rscale>  1 0.52219851E+03</rscale>
<asrwt>0</asrwt>
<pdfrwt beam="2">  1       21 0.29674875E+00 0.98835195E+03</pdfrwt>
<pdfrwt beam="1">  1       -4 0.24049853E-01 0.98835195E+03</pdfrwt>
<totfact> 0.18457511E+01</totfact>
</mgrwt>
</event>
<event>
 6    2  0.2345636E-005  0.1009273E+04  0.7818608E-02  0.9877481E-01
         -4   -1    0    0    0  501 -0.00000000000E+00  0.00000000000E+00  0.15018391294E+04  0.15018391294E+04  0.00000000000E+00 0. -1.
         21   -1    0    0  501  502  0.00000000000E+00 -0.00000000000E+00 -0.24318397986E+03  0.24318397986E+03  0.00000000000E+00 0. -1.
   -9000010    2    1    2    0  502  0.49503170971E+02 -0.12874151713E+03  0.86955976214E+03  0.13322033255E+04  0.99980326989E+03 0.  0.
         13    1    3    3    0    0 -0.39917380280E+03  0.38177669557E+02  0.73112125995E+03  0.83386783557E+03  0.10566000000E+00 0. -1.
         -4    1    3    3    0  502  0.44867697377E+03 -0.16691918669E+03  0.13843850219E+03  0.49833548997E+03  0.00000000000E+00 0. -1.
        -13    1    1    2    0    0 -0.49503170971E+02  0.12874151713E+03  0.38909538738E+03  0.41281978370E+03  0.10566000000E+00 0.  1.
<mgrwt>
<rscale>  1 0.61365159E+03</rscale>
<asrwt>0</asrwt>
<pdfrwt beam="2">  1       21 0.37412921E-01 0.10092728E+04</pdfrwt>
<pdfrwt beam="1">  1       -4 0.23105217E+00 0.10092728E+04</pdfrwt>
<totfact> 0.23046972E+01</totfact>
</mgrwt>
</event>
<event>
 6    2  0.2345636E-005  0.1017361E+04  0.7818608E-02  0.9868500E-01
         -4   -1    0    0    0  501 -0.00000000000E+00  0.00000000000E+00  0.10309720402E+04  0.10309720402E+04  0.00000000000E+00 0. -1.
         21   -1    0    0  501  502  0.00000000000E+00 -0.00000000000E+00 -0.34978985167E+03  0.34978985167E+03  0.00000000000E+00 0. -1.
   -9000010    2    1    2    0  502 -0.35951760390E+02  0.13389477400E+03  0.45275908797E+03  0.11135588537E+04  0.10078701252E+04 0.  0.
         13    1    3    3    0    0 -0.64094413785E+02 -0.70759967215E+01  0.76610389698E+03  0.76881295238E+03  0.10566000000E+00 0. -1.
         -4    1    3    3    0  502  0.28142653395E+02  0.14097077072E+03 -0.31334480901E+03  0.34474590131E+03  0.00000000000E+00 0. -1.
        -13    1    1    2    0    0  0.35951760390E+02 -0.13389477400E+03  0.22842310060E+03  0.26720303822E+03  0.10566000000E+00 0.  1.
<mgrwt>
<rscale>  1 0.61812504E+03</rscale>
<asrwt>0</asrwt>
<pdfrwt beam="2">  1       21 0.53813824E-01 0.10173606E+04</pdfrwt>
<pdfrwt beam="1">  1       -4 0.15861108E+00 0.10173606E+04</pdfrwt>
<totfact> 0.32835908E+01</totfact>
</mgrwt>
</event>
<event>
 6    2  0.2345636E-005  0.9112547E+03  0.7818608E-02  0.9822339E-01
         21   -1    0    0  501  502  0.00000000000E+00  0.00000000000E+00  0.25302593705E+03  0.25302593705E+03  0.00000000000E+00 0. -1.
         -4   -1    0    0    0  501 -0.00000000000E+00 -0.00000000000E+00 -0.13155125835E+04  0.13155125835E+04  0.00000000000E+00 0. -1.
   -9000010    2    1    2    0  502  0.13355514963E+03 -0.18006161999E+03 -0.73032590421E+03  0.11678017805E+04  0.88324736465E+03 0.  0.
         13    1    3    3    0    0  0.25070147429E+03 -0.48856419346E+03 -0.59904703405E+03  0.81265217683E+03  0.10566000000E+00 0. -1.
         -4    1    3    3    0  502 -0.11714632466E+03  0.30850257347E+03 -0.13127887016E+03  0.35514960365E+03  0.00000000000E+00 0. -1.
        -13    1    1    2    0    0 -0.13355514963E+03  0.18006161999E+03 -0.33216074226E+03  0.40073674008E+03  0.10566000000E+00 0.  1.
<mgrwt>
<rscale>  1 0.64177345E+03</rscale>
<asrwt>0</asrwt>
<pdfrwt beam="1">  1       21 0.38927068E-01 0.91125467E+03</pdfrwt>
<pdfrwt beam="2">  1       -4 0.20238655E+00 0.91125467E+03</pdfrwt>
<totfact> 0.32732790E+01</totfact>
</mgrwt>
</event>
<event>
 6    2  0.2345636E-005  0.1119613E+04  0.7818608E-02  0.9601204E-01
         21   -1    0    0  501  502  0.00000000000E+00  0.00000000000E+00  0.57011560494E+03  0.57011560494E+03  0.00000000000E+00 0. -1.
         -4   -1    0    0    0  501 -0.00000000000E+00 -0.00000000000E+00 -0.11004253956E+04  0.11004253956E+04  0.00000000000E+00 0. -1.
   -9000010    2    1    2    0  502  0.21423288719E+03  0.13515011537E+03 -0.41950376312E+02  0.11203990076E+04  0.10905837054E+04 0.  0.
         13    1    3    3    0    0  0.12788082608E+03  0.41709742215E+03  0.39815805703E+03  0.59063831130E+03  0.10566000000E+00 0. -1.
         -4    1    3    3    0  502  0.86352061108E+02 -0.28194730677E+03 -0.44010843334E+03  0.52976069631E+03  0.00000000000E+00 0. -1.
        -13    1    1    2    0    0 -0.21423288719E+03 -0.13515011537E+03 -0.48835941440E+03  0.55014199298E+03  0.10566000000E+00 0.  1.
<mgrwt>
<rscale>  1 0.77216515E+03</rscale>
<asrwt>0</asrwt>
<pdfrwt beam="1">  1       21 0.87710094E-01 0.11196134E+04</pdfrwt>
<pdfrwt beam="2">  1       -4 0.16929621E+00 0.11196134E+04</pdfrwt>
<totfact> 0.88608016E+00</totfact>
</mgrwt>
</event>
<event>
 6    2  0.2345636E-005  0.1046977E+04  0.7818608E-02  0.9672630E-01
         -4   -1    0    0    0  501 -0.00000000000E+00  0.00000000000E+00  0.98653520430E+03  0.98653520430E+03  0.00000000000E+00 0. -1.
         21   -1    0    0  501  502  0.00000000000E+00 -0.00000000000E+00 -0.42237689443E+03  0.42237689443E+03  0.00000000000E+00 0. -1.
   -9000010    2    1    2    0  502  0.23104678112E+03 -0.75281438009E+02  0.47983175473E+03  0.11516945079E+04  0.10183868698E+04 0.  0.
         13    1    3    3    0    0  0.91337403622E+02 -0.54214581578E+03  0.33284261890E+03  0.64268874814E+03  0.10566000000E+00 0. -1.
         -4    1    3    3    0  502  0.13970937750E+03  0.46686437777E+03  0.14698913584E+03  0.50900575974E+03  0.00000000000E+00 0. -1.
        -13    1    1    2    0    0 -0.23104678112E+03  0.75281438009E+02  0.84326555137E+02  0.25721759085E+03  0.10566000000E+00 0.  1.
<mgrwt>
<rscale>  1 0.72670050E+03</rscale>
<asrwt>0</asrwt>
<pdfrwt beam="2">  1       21 0.64981061E-01 0.10469774E+04</pdfrwt>
<pdfrwt beam="1">  1       -4 0.15177465E+00 0.10469774E+04</pdfrwt>
<totfact> 0.24270782E+01</totfact>
</mgrwt>
</event>
<event>
 6    2  0.2345636E-005  0.1014265E+04  0.7818608E-02  0.9745073E-01
         21   -1    0    0  501  502  0.00000000000E+00  0.00000000000E+00  0.49304935680E+03  0.49304935680E+03  0.00000000000E+00 0. -1.
         -4   -1    0    0    0  501 -0.00000000000E+00 -0.00000000000E+00 -0.79811107053E+03  0.79811107053E+03  0.00000000000E+00 0. -1.
   -9000010    2    1    2    0  502  0.86663235213E+02  0.19098372997E+03 -0.13919720057E+03  0.10237724146E+04  0.99234509866E+03 0.  0.
         13    1    3    3    0    0 -0.20689043132E+03  0.48296642726E+02  0.36548176537E+03  0.42274477910E+03  0.10566000000E+00 0. -1.
         -4    1    3    3    0  502  0.29355366654E+03  0.14268708724E+03 -0.50467896593E+03  0.60102763552E+03  0.00000000000E+00 0. -1.
        -13    1    1    2    0    0 -0.86663235213E+02 -0.19098372997E+03 -0.16586451317E+03  0.26738801271E+03  0.10566000000E+00 0.  1.
<mgrwt>
<rscale>  1 0.68395438E+03</rscale>
<asrwt>0</asrwt>
<pdfrwt beam="1">  1       21 0.75853748E-01 0.10142653E+04</pdfrwt>
<pdfrwt beam="2">  1       -4 0.12278632E+00 0.10142653E+04</pdfrwt>
<totfact> 0.29684109E+01</totfact>
</mgrwt>
</event>
<event>
 6    2  0.2345636E-005  0.1116930E+04  0.7818608E-02  0.9411026E-01
         -4   -1    0    0    0  501 -0.00000000000E+00  0.00000000000E+00  0.13598913981E+04  0.13598913981E+04  0.00000000000E+00 0. -1.
         21   -1    0    0  501  502  0.00000000000E+00 -0.00000000000E+00 -0.49902888537E+03  0.49902888537E+03  0.00000000000E+00 0.  1.
   -9000010    2    1    2    0  502 -0.48200089700E+03 -0.11662444478E+03  0.41340852902E+03  0.11909822590E+04  0.10008026797E+04 0.  0.
         13    1    3    3    0    0 -0.45872899792E+03 -0.27108405289E+03 -0.19151814104E+03  0.56621379953E+03  0.10566000000E+00 0. -1.
         -4    1    3    3    0  502 -0.23271899077E+02  0.15445960811E+03  0.60492667006E+03  0.62476845949E+03  0.00000000000E+00 0. -1.
        -13    1    1    2    0    0  0.48200089700E+03  0.11662444478E+03  0.44745398373E+03  0.66793802448E+03  0.10566000000E+00 0.  1.
<mgrwt>
<rscale>  1 0.91173786E+03</rscale>
<asrwt>0</asrwt>
<pdfrwt beam="2">  1       21 0.76773675E-01 0.11169298E+04</pdfrwt>
<pdfrwt beam="1">  1       -4 0.20921406E+00 0.11169298E+04</pdfrwt>
<totfact> 0.64856129E+00</totfact>
</mgrwt>
</event>
<event>
 6    2  0.2345636E-005  0.1005986E+04  0.7818608E-02  0.9855826E-01
         21   -1    0    0  501  502  0.00000000000E+00  0.00000000000E+00  0.11476621596E+03  0.11476621596E+03  0.00000000000E+00 0. -1.
         -4   -1    0    0    0  501 -0.00000000000E+00 -0.00000000000E+00 -0.29366270184E+04  0.29366270184E+04  0.00000000000E+00 0. -1.
   -9000010    2    1    2    0  502  0.14819072198E+03  0.19037409026E+02 -0.25485259548E+04  0.27398890400E+04  0.99482887778E+03 0.  0.
         13    1    3    3    0    0 -0.21557475696E+02 -0.34787538920E+03 -0.31412260886E+03  0.46920681551E+03  0.10566000000E+00 0. -1.
         -4    1    3    3    0  502  0.16974819768E+03  0.36691279822E+03 -0.22344033459E+04  0.22706822245E+04  0.00000000000E+00 0. -1.
        -13    1    1    2    0    0 -0.14819072198E+03 -0.19037409026E+02 -0.27333484763E+03  0.31150419438E+03  0.10566000000E+00 0.  1.
<mgrwt>
<rscale>  1 0.62450774E+03</rscale>
<asrwt>0</asrwt>
<pdfrwt beam="1">  1       21 0.17656341E-01 0.10059858E+04</pdfrwt>
<pdfrwt beam="2">  1       -4 0.45178876E+00 0.10059858E+04</pdfrwt>
<totfact> 0.36429840E+00</totfact>
</mgrwt>
</event>
<event>
 6    2  0.2345636E-005  0.1464287E+04  0.7818608E-02  0.8983776E-01
         -4   -1    0    0    0  501 -0.00000000000E+00  0.00000000000E+00  0.11102081657E+04  0.11102081657E+04  0.00000000000E+00 0. -1.
         21   -1    0    0  501  502  0.00000000000E+00 -0.00000000000E+00 -0.16868422236E+04  0.16868422236E+04  0.00000000000E+00 0.  1.
   -9000010    2    1    2    0  502 -0.78038064030E+02  0.10847558242E+04 -0.82610466234E+03  0.16812454193E+04  0.98048564969E+03 0.  0.
         13    1    3    3    0    0 -0.97275646302E+02  0.12533182099E+04 -0.58527323254E+03  0.13866556366E+04  0.10566000000E+00 0. -1.
         -4    1    3    3    0  502  0.19237582272E+02 -0.16856238577E+03 -0.24083142980E+03  0.29458978266E+03  0.00000000000E+00 0. -1.
        -13    1    1    2    0    0  0.78038064030E+02 -0.10847558242E+04  0.24947060442E+03  0.11158049700E+04  0.10566000000E+00 0.  1.
<mgrwt>
<rscale>  1 0.13593552E+04</rscale>
<asrwt>0</asrwt>
<pdfrwt beam="2">  1       21 0.25951419E+00 0.14642873E+04</pdfrwt>
<pdfrwt beam="1">  1       -4 0.17080126E+00 0.14642873E+04</pdfrwt>
<totfact> 0.35362042E-01</totfact>
</mgrwt>
</event>
<event>
 6    2  0.2345636E-005  0.1027130E+04  0.7818608E-02  0.9671076E-01
         -4   -1    0    0    0  501 -0.00000000000E+00  0.00000000000E+00  0.58975534580E+03  0.58975534580E+03  0.00000000000E+00 0. -1.
         21   -1    0    0  501  502  0.00000000000E+00 -0.00000000000E+00 -0.11232682181E+04  0.11232682181E+04  0.00000000000E+00 0. -1.
   -9000010    2    1    2    0  502 -0.16558380020E+03  0.19878540847E+03 -0.82924849192E+03  0.13200945609E+04  0.99401355873E+03 0.  0.
         13    1    3    3    0    0  0.20721045854E+02  0.96714350683E+02  0.22440683618E+03  0.24523757187E+03  0.10566000000E+00 0. -1.
         -4    1    3    3    0  502 -0.18630484605E+03  0.10207105779E+03 -0.10536553281E+04  0.10748569891E+04  0.00000000000E+00 0. -1.
        -13    1    1    2    0    0  0.16558380020E+03 -0.19878540847E+03  0.29573561961E+03  0.39292900298E+03  0.10566000000E+00 0.  1.
<mgrwt>
<rscale>  1 0.72765364E+03</rscale>
<asrwt>0</asrwt>
<pdfrwt beam="2">  1       21 0.17281049E+00 0.10271303E+04</pdfrwt>
<pdfrwt beam="1">  1       -4 0.90731592E-01 0.10271303E+04</pdfrwt>
<totfact> 0.73648093E+00</totfact>
</mgrwt>
</event>
<event>
 6    2  0.2345636E-005  0.1020647E+04  0.7818608E-02  0.9743517E-01
         -4   -1    0    0    0  501 -0.00000000000E+00  0.00000000000E+00  0.89117326840E+03  0.89117326840E+03  0.00000000000E+00 0. -1.
         21   -1    0    0  501  502  0.00000000000E+00 -0.00000000000E+00 -0.44201333745E+03  0.44201333745E+03  0.00000000000E+00 0. -1.
   -9000010    2    1    2    0  502  0.15738112406E+03  0.13428316335E+03  0.26089437958E+03  0.10534640376E+04  0.99945976164E+03 0.  0.
         13    1    3    3    0    0 -0.25257817613E+03  0.33803969340E+03 -0.14035353688E+03  0.44470855158E+03  0.10566000000E+00 0. -1.
         -4    1    3    3    0  502  0.40995930019E+03 -0.20375653005E+03  0.40124791645E+03  0.60875548606E+03  0.00000000000E+00 0. -1.
        -13    1    1    2    0    0 -0.15738112406E+03 -0.13428316335E+03  0.18826555137E+03  0.27972256821E+03  0.10566000000E+00 0.  1.
<mgrwt>
<rscale>  1 0.68483856E+03</rscale>
<asrwt>0</asrwt>
<pdfrwt beam="2">  1       21 0.68002052E-01 0.10206471E+04</pdfrwt>
<pdfrwt beam="1">  1       -4 0.13710358E+00 0.10206471E+04</pdfrwt>
<totfact> 0.28746207E+01</totfact>
</mgrwt>
</event>
<event>
 6    2  0.2345636E-005  0.1005162E+04  0.7818608E-02  0.9778489E-01
         21   -1    0    0  501  502  0.00000000000E+00  0.00000000000E+00  0.25484152172E+04  0.25484152172E+04  0.00000000000E+00 0. -1.
         -4   -1    0    0    0  501 -0.00000000000E+00 -0.00000000000E+00 -0.14107041502E+03  0.14107041502E+03  0.00000000000E+00 0. -1.
   -9000010    2    1    2    0  502 -0.18039754598E+03 -0.68349331518E+02  0.19757941267E+04  0.22167796958E+04  0.98647599190E+03 0.  0.
         13    1    3    3    0    0 -0.19674483193E+03  0.29857255572E+03  0.21315320970E+03  0.41627923547E+03  0.10566000000E+00 0. -1.
         -4    1    3    3    0  502  0.16347285945E+02 -0.36692188723E+03  0.17626409171E+04  0.18005004603E+04  0.00000000000E+00 0. -1.
        -13    1    1    2    0    0  0.18039754598E+03  0.68349331518E+02  0.43155067541E+03  0.47270593642E+03  0.10566000000E+00 0.  1.
<mgrwt>
<rscale>  1 0.66529858E+03</rscale>
<asrwt>0</asrwt>
<pdfrwt beam="1">  1       21 0.39206385E+00 0.10051616E+04</pdfrwt>
<pdfrwt beam="2">  1       -4 0.21703143E-01 0.10051616E+04</pdfrwt>
<totfact> 0.55834287E+00</totfact>
</mgrwt>
</event>
<event>
 6    2  0.2345636E-005  0.1032395E+04  0.7818608E-02  0.9706375E-01
         -4   -1    0    0    0  501 -0.00000000000E+00  0.00000000000E+00  0.80487277599E+03  0.80487277599E+03  0.00000000000E+00 0. -1.
         21   -1    0    0  501  502  0.00000000000E+00 -0.00000000000E+00 -0.52579578984E+03  0.52579578984E+03  0.00000000000E+00 0. -1.
   -9000010    2    1    2    0  502 -0.21972179625E+03 -0.54043757092E+02  0.90926913290E+02  0.10363917293E+04  0.10072942557E+04 0.  0.
         13    1    3    3    0    0 -0.52355952137E+03  0.22111500556E+03 -0.11157697120E+03  0.57918550549E+03  0.10566000000E+00 0. -1.
         -4    1    3    3    0  502  0.30383772511E+03 -0.27515876265E+03  0.20250388449E+03  0.45720622382E+03  0.00000000000E+00 0. -1.
        -13    1    1    2    0    0  0.21972179625E+03  0.54043757092E+02  0.18815007286E+03  0.29427683652E+03  0.10566000000E+00 0.  1.
<mgrwt>
<rscale>  1 0.70638518E+03</rscale>
<asrwt>0</asrwt>
<pdfrwt beam="2">  1       21 0.80891660E-01 0.10323953E+04</pdfrwt>
<pdfrwt beam="1">  1       -4 0.12382658E+00 0.10323953E+04</pdfrwt>
<totfact> 0.24949666E+01</totfact>
</mgrwt>
</event>
<event>
 6    2  0.2345636E-005  0.1157221E+04  0.7818608E-02  0.9352894E-01
         21   -1    0    0  501  502  0.00000000000E+00  0.00000000000E+00  0.16857494663E+04  0.16857494663E+04  0.00000000000E+00 0. -1.
         -4   -1    0    0    0  501 -0.00000000000E+00 -0.00000000000E+00 -0.45097374145E+03  0.45097374145E+03  0.00000000000E+00 0. -1.
   -9000010    2    1    2    0  502 -0.43770402886E+03 -0.33195822636E+03  0.62212694917E+03  0.13138504263E+04  0.10185184932E+04 0.  0.
         13    1    3    3    0    0  0.23934797645E+03 -0.37106408332E+03  0.41185119391E+03  0.60381903320E+03  0.10566000000E+00 0. -1.
         -4    1    3    3    0  502 -0.67705200531E+03  0.39105856965E+02  0.21027575525E+03  0.71003139310E+03  0.00000000000E+00 0. -1.
        -13    1    1    2    0    0  0.43770402886E+03  0.33195822636E+03  0.61264877568E+03  0.82287278144E+03  0.10566000000E+00 0.  1.
<mgrwt>
<rscale>  1 0.96055858E+03</rscale>
<asrwt>0</asrwt>
<pdfrwt beam="1">  1       21 0.25934607E+00 0.11572212E+04</pdfrwt>
<pdfrwt beam="2">  1       -4 0.69380576E-01 0.11572212E+04</pdfrwt>
<totfact> 0.34959519E+00</totfact>
</mgrwt>
</event>
<event>
 6    2  0.2345636E-005  0.1101263E+04  0.7818608E-02  0.9436469E-01
         21   -1    0    0  501  502  0.00000000000E+00  0.00000000000E+00  0.11296025999E+04  0.11296025999E+04  0.00000000000E+00 0. -1.
         -4   -1    0    0    0  501 -0.00000000000E+00 -0.00000000000E+00 -0.57689323228E+03  0.57689323228E+03  0.00000000000E+00 0. -1.
   -9000010    2    1    2    0  502 -0.45901545896E+03 -0.11254760106E+03  0.55646358857E+03  0.12338688552E+04  0.99469516554E+03 0.  0.
         13    1    3    3    0    0  0.22166562616E+03  0.16373799451E+02  0.48981601248E+03  0.53788798869E+03  0.10566000000E+00 0. -1.
         -4    1    3    3    0  502 -0.68068108512E+03 -0.12892140051E+03  0.66647576095E+02  0.69598086651E+03  0.00000000000E+00 0. -1.
        -13    1    1    2    0    0  0.45901545896E+03  0.11254760106E+03 -0.37542209268E+01  0.47262697702E+03  0.10566000000E+00 0.  1.
<mgrwt>
<rscale>  1 0.89134236E+03</rscale>
<asrwt>0</asrwt>
<pdfrwt beam="1">  1       21 0.17378502E+00 0.11012632E+04</pdfrwt>
<pdfrwt beam="2">  1       -4 0.88752805E-01 0.11012632E+04</pdfrwt>
<totfact> 0.75599100E+00</totfact>
</mgrwt>
</event>
<event>
 6    2  0.2345636E-005  0.1075407E+04  0.7818608E-02  0.9574093E-01
         -4   -1    0    0    0  501 -0.00000000000E+00  0.00000000000E+00  0.43083056445E+03  0.43083056445E+03  0.00000000000E+00 0. -1.
         21   -1    0    0  501  502  0.00000000000E+00 -0.00000000000E+00 -0.11367400522E+04  0.11367400522E+04  0.00000000000E+00 0. -1.
   -9000010    2    1    2    0  502 -0.26371366405E+03  0.16994719072E+03 -0.62396413979E+03  0.12433145520E+04  0.10286266977E+04 0.  0.
         13    1    3    3    0    0 -0.56321927618E+02  0.15382307751E+03  0.27527553252E+03  0.32032846997E+03  0.10566000000E+00 0. -1.
         -4    1    3    3    0  502 -0.20739173643E+03  0.16124113215E+02 -0.89923967231E+03  0.92298608203E+03  0.00000000000E+00 0. -1.
        -13    1    1    2    0    0  0.26371366405E+03 -0.16994719072E+03 -0.81945347946E+02  0.32425606464E+03  0.10566000000E+00 0.  1.
<mgrwt>
<rscale>  1 0.79034889E+03</rscale>
<asrwt>0</asrwt>
<pdfrwt beam="2">  1       21 0.17488308E+00 0.10754068E+04</pdfrwt>
<pdfrwt beam="1">  1       -4 0.66281626E-01 0.10754068E+04</pdfrwt>
<totfact> 0.14490457E+01</totfact>
</mgrwt>
</event>
<event>
 6    2  0.2345636E-005  0.1062215E+04  0.7818608E-02  0.9601002E-01
         21   -1    0    0  501  502  0.00000000000E+00  0.00000000000E+00  0.16224652385E+04  0.16224652385E+04  0.00000000000E+00 0. -1.
         -4   -1    0    0    0  501 -0.00000000000E+00 -0.00000000000E+00 -0.35044555159E+03  0.35044555159E+03  0.00000000000E+00 0. -1.
   -9000010    2    1    2    0  502 -0.17369553789E+03  0.24069943548E+03  0.12953342826E+04  0.16751693927E+04  0.10198996189E+04 0.  0.
         13    1    3    3    0    0  0.22417819257E+03  0.36253912492E+03  0.11627953288E+04  0.12384601192E+04  0.10566000000E+00 0. -1.
         -4    1    3    3    0  502 -0.39787373046E+03 -0.12183968944E+03  0.13253895378E+03  0.43670927352E+03  0.00000000000E+00 0. -1.
        -13    1    1    2    0    0  0.17369553789E+03 -0.24069943548E+03 -0.23314595693E+02  0.29774139729E+03  0.10566000000E+00 0.  1.
<mgrwt>
<rscale>  1 0.77229881E+03</rscale>
<asrwt>0</asrwt>
<pdfrwt beam="1">  1       21 0.24961003E+00 0.10622154E+04</pdfrwt>
<pdfrwt beam="2">  1       -4 0.53914701E-01 0.10622154E+04</pdfrwt>
<totfact> 0.70993907E+00</totfact>
</mgrwt>
</event>
<event>
 6    2  0.2345636E-005  0.1008875E+04  0.7818608E-02  0.9863003E-01
         21   -1    0    0  501  502  0.00000000000E+00  0.00000000000E+00  0.16769556529E+04  0.16769556529E+04  0.00000000000E+00 0. -1.
         -4   -1    0    0    0  501 -0.00000000000E+00 -0.00000000000E+00 -0.23085796922E+03  0.23085796922E+03  0.00000000000E+00 0. -1.
   -9000010    2    1    2    0  502 -0.68247945776E+02  0.12761675814E+03  0.93111002437E+03  0.13728780003E+04  0.99844093829E+03 0.  0.
         13    1    3    3    0    0  0.92530232996E+02 -0.27472075709E+03 -0.55656740389E+02  0.29517964413E+03  0.10566000000E+00 0. -1.
         -4    1    3    3    0  502 -0.16077817877E+03  0.40233751523E+03  0.98676676476E+03  0.10776983562E+04  0.00000000000E+00 0. -1.
        -13    1    1    2    0    0  0.68247945776E+02 -0.12761675814E+03  0.51498765927E+03  0.53493562176E+03  0.10566000000E+00 0.  1.
<mgrwt>
<rscale>  1 0.62088331E+03</rscale>
<asrwt>0</asrwt>
<pdfrwt beam="1">  1       21 0.25799317E+00 0.10088747E+04</pdfrwt>
<pdfrwt beam="2">  1       -4 0.35516612E-01 0.10088747E+04</pdfrwt>
<totfact> 0.15015751E+01</totfact>
</mgrwt>
</event>
<event>
 6    2  0.2345636E-005  0.1009622E+04  0.7818608E-02  0.9723469E-01
         -4   -1    0    0    0  501 -0.00000000000E+00  0.00000000000E+00  0.39097878097E+03  0.39097878097E+03  0.00000000000E+00 0. -1.
         21   -1    0    0  501  502  0.00000000000E+00 -0.00000000000E+00 -0.18168150613E+04  0.18168150613E+04  0.00000000000E+00 0. -1.
   -9000010    2    1    2    0  502 -0.22727074074E+03  0.23589763791E+02 -0.16193913390E+04  0.19083409436E+04  0.98342685628E+03 0.  0.
         13    1    3    3    0    0 -0.84420662753E+02  0.43662632049E+03 -0.12798237563E+04  0.13548868035E+04  0.10566000000E+00 0. -1.
         -4    1    3    3    0  502 -0.14285007798E+03 -0.41303655669E+03 -0.33956758274E+03  0.55345414010E+03  0.00000000000E+00 0. -1.
        -13    1    1    2    0    0  0.22727074074E+03 -0.23589763791E+02  0.19355505874E+03  0.29945289860E+03  0.10566000000E+00 0.  1.
<mgrwt>
<rscale>  1 0.69636474E+03</rscale>
<asrwt>0</asrwt>
<pdfrwt beam="2">  1       21 0.27951001E+00 0.10096221E+04</pdfrwt>
<pdfrwt beam="1">  1       -4 0.60150581E-01 0.10096221E+04</pdfrwt>
<totfact> 0.36646844E+00</totfact>
</mgrwt>
</event>
<event>
 6    2  0.2345636E-005  0.1060735E+04  0.7818608E-02  0.9519297E-01
         -4   -1    0    0    0  501 -0.00000000000E+00  0.00000000000E+00  0.52409645991E+03  0.52409645991E+03  0.00000000000E+00 0. -1.
         21   -1    0    0  501  502  0.00000000000E+00 -0.00000000000E+00 -0.10147434914E+04  0.10147434914E+04  0.00000000000E+00 0. -1.
   -9000010    2    1    2    0  502  0.10798599105E+03 -0.38023301013E+03 -0.39728690127E+03  0.11326943600E+04  0.98433811007E+03 0.  0.
         13    1    3    3    0    0 -0.41968657034E+02 -0.22076606764E+03  0.31533268758E+03  0.38721278364E+03  0.10566000000E+00 0. -1.
         -4    1    3    3    0  502  0.14995464809E+03 -0.15946694249E+03 -0.71261958885E+03  0.74548157633E+03  0.00000000000E+00 0. -1.
        -13    1    1    2    0    0 -0.10798599105E+03  0.38023301013E+03 -0.93360130195E+02  0.40614559130E+03  0.10566000000E+00 0.  1.
<mgrwt>
<rscale>  1 0.82875981E+03</rscale>
<asrwt>0</asrwt>
<pdfrwt beam="2">  1       21 0.15611438E+00 0.10607354E+04</pdfrwt>
<pdfrwt beam="1">  1       -4 0.80630226E-01 0.10607354E+04</pdfrwt>
<totfact> 0.12957902E+01</totfact>
</mgrwt>
</event>
<event>
 6    2  0.2345636E-005  0.9848010E+03  0.7818608E-02  0.1013169E+00
         -4   -1    0    0    0  501 -0.00000000000E+00  0.00000000000E+00  0.20841232428E+03  0.20841232428E+03  0.00000000000E+00 0. -1.
         21   -1    0    0  501  502  0.00000000000E+00 -0.00000000000E+00 -0.15582808429E+04  0.15582808429E+04  0.00000000000E+00 0. -1.
   -9000010    2    1    2    0  502  0.35725196714E+02 -0.56296139799E+02 -0.13784959348E+04  0.16941322606E+04  0.98254136259E+03 0.  0.
         13    1    3    3    0    0  0.20579851207E+03  0.24119242705E+03 -0.48557195005E+02  0.32075633554E+03  0.10566000000E+00 0. -1.
         -4    1    3    3    0  502 -0.17007331536E+03 -0.29748856685E+03 -0.13299387398E+04  0.13733759251E+04  0.00000000000E+00 0. -1.
        -13    1    1    2    0    0 -0.35725196714E+02  0.56296139799E+02  0.28627416191E+02  0.72560906543E+02  0.10566000000E+00 0.  1.
<mgrwt>
<rscale>  1 0.50234506E+03</rscale>
<asrwt>0</asrwt>
<pdfrwt beam="2">  1       21 0.23973552E+00 0.98480103E+03</pdfrwt>
<pdfrwt beam="1">  1       -4 0.32063434E-01 0.98480103E+03</pdfrwt>
<totfact> 0.24129955E+01</totfact>
</mgrwt>
</event>
<event>
 6    2  0.2345636E-005  0.1109277E+04  0.7818608E-02  0.9431422E-01
         21   -1    0    0  501  502  0.00000000000E+00  0.00000000000E+00  0.28296596044E+04  0.28296596044E+04  0.00000000000E+00 0. -1.
         -4   -1    0    0    0  501 -0.00000000000E+00 -0.00000000000E+00 -0.25490829637E+03  0.25490829637E+03  0.00000000000E+00 0. -1.
   -9000010    2    1    2    0  502 -0.45982726760E+03  0.10105781137E+03  0.22620016584E+04  0.25193545324E+04  0.10044112505E+04 0.  0.
         13    1    3    3    0    0 -0.38695140811E+03 -0.42446370457E+03  0.12869504228E+04  0.14093055846E+04  0.10566000000E+00 0. -1.
         -4    1    3    3    0  502 -0.72875859489E+02  0.52552151594E+03  0.97505123553E+03  0.11100489478E+04  0.00000000000E+00 0. -1.
        -13    1    1    2    0    0  0.45982726760E+03 -0.10105781137E+03  0.31274964966E+03  0.56521336837E+03  0.10566000000E+00 0.  1.
<mgrwt>
<rscale>  1 0.89534300E+03</rscale>
<asrwt>0</asrwt>
<pdfrwt beam="1">  1       21 0.43533223E+00 0.11092771E+04</pdfrwt>
<pdfrwt beam="2">  1       -4 0.39216663E-01 0.11092771E+04</pdfrwt>
<totfact> 0.88708933E-01</totfact>
</mgrwt>
</event>
<event>
 6    2  0.2345636E-005  0.9686098E+03  0.7818608E-02  0.9790331E-01
         21   -1    0    0  501  502  0.00000000000E+00  0.00000000000E+00  0.16011012293E+04  0.16011012293E+04  0.00000000000E+00 0. -1.
         -4   -1    0    0    0  501 -0.00000000000E+00 -0.00000000000E+00 -0.21592457268E+03  0.21592457268E+03  0.00000000000E+00 0. -1.
   -9000010    2    1    2    0  502  0.17186844976E+03 -0.11597063168E+03  0.11436613115E+04  0.14987215065E+04  0.94615908135E+03 0.  0.
         13    1    3    3    0    0  0.26421820349E+03  0.33023344627E+03  0.23899617014E+03  0.48578242928E+03  0.10566000000E+00 0. -1.
         -4    1    3    3    0  502 -0.92349753732E+02 -0.44620407794E+03  0.90466514137E+03  0.10129390772E+04  0.00000000000E+00 0. -1.
        -13    1    1    2    0    0 -0.17186844976E+03  0.11597063168E+03  0.24151534516E+03  0.31830429552E+03  0.10566000000E+00 0.  1.
<mgrwt>
<rscale>  1 0.65884007E+03</rscale>
<asrwt>0</asrwt>
<pdfrwt beam="1">  1       21 0.24632326E+00 0.96860981E+03</pdfrwt>
<pdfrwt beam="2">  1       -4 0.33219166E-01 0.96860981E+03</pdfrwt>
<totfact> 0.20465343E+01</totfact>
</mgrwt>
</event>
<event>
 6    2  0.2345636E-005  0.1013331E+04  0.7818608E-02  0.9777753E-01
         -4   -1    0    0    0  501 -0.00000000000E+00  0.00000000000E+00  0.11865764760E+04  0.11865764760E+04  0.00000000000E+00 0. -1.
         21   -1    0    0  501  502  0.00000000000E+00 -0.00000000000E+00 -0.32814033331E+03  0.32814033331E+03  0.00000000000E+00 0. -1.
   -9000010    2    1    2    0  502 -0.15962050213E+03  0.10071981054E+03  0.54961473061E+03  0.11527860692E+04  0.99559840510E+03 0.  0.
         13    1    3    3    0    0 -0.11662954028E+03  0.29931580897E+03 -0.19846655617E+03  0.37759950774E+03  0.10566000000E+00 0. -1.
         -4    1    3    3    0  502 -0.42990961850E+02 -0.19859599842E+03  0.74808128678E+03  0.77518656143E+03  0.00000000000E+00 0. -1.
        -13    1    1    2    0    0  0.15962050213E+03 -0.10071981054E+03  0.30882141212E+03  0.36193074017E+03  0.10566000000E+00 0.  1.
<mgrwt>
<rscale>  1 0.66570229E+03</rscale>
<asrwt>0</asrwt>
<pdfrwt beam="2">  1       21 0.50483129E-01 0.10133308E+04</pdfrwt>
<pdfrwt beam="1">  1       -4 0.18255023E+00 0.10133308E+04</pdfrwt>
<totfact> 0.25382615E+01</totfact>
</mgrwt>
</event>
<event>
 6    2  0.2345636E-005  0.1051495E+04  0.7818608E-02  0.9543854E-01
         21   -1    0    0  501  502  0.00000000000E+00  0.00000000000E+00  0.44360871487E+03  0.44360871487E+03  0.00000000000E+00 0. -1.
         -4   -1    0    0    0  501 -0.00000000000E+00 -0.00000000000E+00 -0.15284120088E+04  0.15284120088E+04  0.00000000000E+00 0. -1.
   -9000010    2    1    2    0  502  0.17702630287E+03 -0.32784663516E+03 -0.28460291044E+03  0.10893302949E+04  0.98327002736E+03 0.  0.
         13    1    3    3    0    0  0.21648426767E+03 -0.12292897945E+03 -0.63468822819E+03  0.68176691787E+03  0.10566000000E+00 0. -1.
         -4    1    3    3    0  502 -0.39457964807E+02 -0.20491765571E+03  0.35008531775E+03  0.40756337705E+03  0.00000000000E+00 0. -1.
        -13    1    1    2    0    0 -0.17702630287E+03  0.32784663516E+03 -0.80020038351E+03  0.88269042876E+03  0.10566000000E+00 0.  1.
<mgrwt>
<rscale>  1 0.81126471E+03</rscale>
<asrwt>0</asrwt>
<pdfrwt beam="1">  1       21 0.68247496E-01 0.10514950E+04</pdfrwt>
<pdfrwt beam="2">  1       -4 0.23514031E+00 0.10514950E+04</pdfrwt>
<totfact> 0.58610322E+00</totfact>
</mgrwt>
</event>
<event>
 6    2  0.2345636E-005  0.1001163E+04  0.7818608E-02  0.9837842E-01
         21   -1    0    0  501  502  0.00000000000E+00  0.00000000000E+00  0.11540587368E+04  0.11540587368E+04  0.00000000000E+00 0. -1.
         -4   -1    0    0    0  501 -0.00000000000E+00 -0.00000000000E+00 -0.33026192588E+03  0.33026192588E+03  0.00000000000E+00 0. -1.
   -9000010    2    1    2    0  502  0.11746142672E+03  0.10968172765E+03  0.49171760417E+03  0.11153980707E+04  0.98817983472E+03 0.  0.
         13    1    3    3    0    0 -0.34758984845E+03 -0.94145049084E+02 -0.60569430658E+02  0.36517209656E+03  0.10566000000E+00 0. -1.
         -4    1    3    3    0  502  0.46505127517E+03  0.20382677673E+03  0.55228703482E+03  0.75022597415E+03  0.00000000000E+00 0. -1.
        -13    1    1    2    0    0 -0.11746142672E+03 -0.10968172765E+03  0.33207920673E+03  0.36892259195E+03  0.10566000000E+00 0.  1.
<mgrwt>
<rscale>  1 0.63370680E+03</rscale>
<asrwt>0</asrwt>
<pdfrwt beam="1">  1       21 0.17754750E+00 0.10011627E+04</pdfrwt>
<pdfrwt beam="2">  1       -4 0.50809528E-01 0.10011627E+04</pdfrwt>
<totfact> 0.24847970E+01</totfact>
</mgrwt>
</event>
<event>
 6    2  0.2345636E-005  0.1206033E+04  0.7818608E-02  0.9277022E-01
         -4   -1    0    0    0  501 -0.00000000000E+00  0.00000000000E+00  0.59157783944E+03  0.59157783944E+03  0.00000000000E+00 0. -1.
         21   -1    0    0  501  502  0.00000000000E+00 -0.00000000000E+00 -0.17686090626E+04  0.17686090626E+04  0.00000000000E+00 0. -1.
   -9000010    2    1    2    0  502 -0.22110451913E+03 -0.60034679413E+03 -0.12244540477E+04  0.17186633896E+04  0.10223564204E+04 0.  0.
         13    1    3    3    0    0 -0.72964703000E+02 -0.47300952894E+03 -0.13852827936E+04  0.14656296571E+04  0.10566000000E+00 0. -1.
         -4    1    3    3    0  502 -0.14813981613E+03 -0.12733726519E+03  0.16082874599E+03  0.25303373247E+03  0.00000000000E+00 0. -1.
        -13    1    1    2    0    0  0.22110451913E+03  0.60034679413E+03  0.47422824463E+02  0.64152351247E+03  0.10566000000E+00 0.  1.
<mgrwt>
<rscale>  1 0.10292601E+04</rscale>
<asrwt>0</asrwt>
<pdfrwt beam="2">  1       21 0.27209370E+00 0.12060332E+04</pdfrwt>
<pdfrwt beam="1">  1       -4 0.91011976E-01 0.12060332E+04</pdfrwt>
<totfact> 0.15436863E+00</totfact>
</mgrwt>
</event>
<event>
 6    2  0.2345636E-005  0.1000492E+04  0.7818608E-02  0.1012567E+00
         -4   -1    0    0    0  501 -0.00000000000E+00  0.00000000000E+00  0.50879414215E+03  0.50879414215E+03  0.00000000000E+00 0. -1.
         21   -1    0    0  501  502  0.00000000000E+00 -0.00000000000E+00 -0.75908988957E+03  0.75908988957E+03  0.00000000000E+00 0. -1.
   -9000010    2    1    2    0  502  0.60958192523E+02 -0.21899724847E+02 -0.42088156397E+03  0.10854147709E+04  0.99839292602E+03 0.  0.
         13    1    3    3    0    0 -0.68182885621E+01  0.46501569675E+03 -0.36389491850E+03  0.59051300592E+03  0.10566000000E+00 0. -1.
         -4    1    3    3    0  502  0.67776481085E+02 -0.48691542160E+03 -0.56986645468E+02  0.49490176494E+03  0.00000000000E+00 0. -1.
        -13    1    1    2    0    0 -0.60958192523E+02  0.21899724847E+02  0.17058581656E+03  0.18246926086E+03  0.10566000000E+00 0.  1.
<mgrwt>
<rscale>  1 0.50467090E+03</rscale>
<asrwt>0</asrwt>
<pdfrwt beam="2">  1       21 0.11678306E+00 0.10004918E+04</pdfrwt>
<pdfrwt beam="1">  1       -4 0.78276022E-01 0.10004918E+04</pdfrwt>
<totfact> 0.30526837E+01</totfact>
</mgrwt>
</event>
<event>
 6    2  0.2345636E-005  0.1146329E+04  0.7818608E-02  0.9367577E-01
         -4   -1    0    0    0  501 -0.00000000000E+00  0.00000000000E+00  0.12908074046E+04  0.12908074046E+04  0.00000000000E+00 0. -1.
         21   -1    0    0  501  502  0.00000000000E+00 -0.00000000000E+00 -0.79233395008E+03  0.79233395008E+03  0.00000000000E+00 0. -1.
   -9000010    2    1    2    0  502  0.43448293185E+03 -0.31389422837E+03 -0.23946977761E+03  0.11710748935E+04  0.10132944424E+04 0.  0.
         13    1    3    3    0    0  0.24140253280E+03 -0.65610496113E+03  0.21408301588E+02  0.69943350606E+03  0.10566000000E+00 0. -1.
         -4    1    3    3    0  502  0.19308039905E+03  0.34221073276E+03 -0.26087807920E+03  0.47164138741E+03  0.00000000000E+00 0. -1.
        -13    1    1    2    0    0 -0.43448293185E+03  0.31389422837E+03  0.73794323216E+03  0.91206646124E+03  0.10566000000E+00 0.  1.
<mgrwt>
<rscale>  1 0.94792705E+03</rscale>
<asrwt>0</asrwt>
<pdfrwt beam="2">  1       21 0.12189753E+00 0.11463292E+04</pdfrwt>
<pdfrwt beam="1">  1       -4 0.19858575E+00 0.11463292E+04</pdfrwt>
<totfact> 0.24266078E+00</totfact>
</mgrwt>
</event>
<event>
 6    2  0.2345636E-005  0.1016680E+04  0.7818608E-02  0.9825340E-01
         -4   -1    0    0    0  501 -0.00000000000E+00  0.00000000000E+00  0.26525498336E+03  0.26525498336E+03  0.00000000000E+00 0. -1.
         21   -1    0    0  501  502  0.00000000000E+00 -0.00000000000E+00 -0.13270300562E+04  0.13270300562E+04  0.00000000000E+00 0. -1.
   -9000010    2    1    2    0  502  0.17177526048E+02  0.15892510498E+03 -0.83940917572E+03  0.13184258426E+04  0.10040351995E+04 0.  0.
         13    1    3    3    0    0 -0.74555843105E+02  0.39847755329E+03 -0.95469008181E+03  0.10371962677E+04  0.10566000000E+00 0. -1.
         -4    1    3    3    0  502  0.91733369153E+02 -0.23955244831E+03  0.11528090609E+03  0.28122957493E+03  0.00000000000E+00 0. -1.
        -13    1    1    2    0    0 -0.17177526048E+02 -0.15892510498E+03 -0.22236589713E+03  0.27385919697E+03  0.10566000000E+00 0.  1.
<mgrwt>
<rscale>  1 0.64020205E+03</rscale>
<asrwt>0</asrwt>
<pdfrwt beam="2">  1       21 0.20415847E+00 0.10166804E+04</pdfrwt>
<pdfrwt beam="1">  1       -4 0.40808459E-01 0.10166804E+04</pdfrwt>
<totfact> 0.25411763E+01</totfact>
</mgrwt>
</event>
<event>
 6    2  0.2345636E-005  0.1143085E+04  0.7818608E-02  0.9361569E-01
         21   -1    0    0  501  502  0.00000000000E+00  0.00000000000E+00  0.23746097732E+03  0.23746097732E+03  0.00000000000E+00 0.  1.
         -4   -1    0    0    0  501 -0.00000000000E+00 -0.00000000000E+00 -0.30437677496E+04  0.30437677496E+04  0.00000000000E+00 0. -1.
   -9000010    2    1    2    0  502  0.15961583508E+03  0.52885086523E+03 -0.20050370688E+04  0.23079900094E+04  0.10007416168E+04 0.  0.
         13    1    3    3    0    0  0.14257382582E+03  0.73495917120E+03 -0.84197103746E+03  0.11266798650E+04  0.10566000000E+00 0. -1.
         -4    1    3    3    0  502  0.17042009258E+02 -0.20610830597E+03 -0.11630660314E+04  0.11813101444E+04  0.00000000000E+00 0. -1.
        -13    1    1    2    0    0 -0.15961583508E+03 -0.52885086523E+03 -0.80126970346E+03  0.97323871754E+03  0.10566000000E+00 0.  1.
<mgrwt>
<rscale>  1 0.95307065E+03</rscale>
<asrwt>0</asrwt>
<pdfrwt beam="1">  1       21 0.36532460E-01 0.11430854E+04</pdfrwt>
<pdfrwt beam="2">  1       -4 0.46827193E+00 0.11430854E+04</pdfrwt>
<totfact> 0.63090712E-01</totfact>
</mgrwt>
</event>
<event>
 6    2  0.2345636E-005  0.9934844E+03  0.7818608E-02  0.9732433E-01
         21   -1    0    0  501  502  0.00000000000E+00  0.00000000000E+00  0.51077269503E+03  0.51077269503E+03  0.00000000000E+00 0. -1.
         -4   -1    0    0    0  501 -0.00000000000E+00 -0.00000000000E+00 -0.91805402496E+03  0.91805402496E+03  0.00000000000E+00 0. -1.
   -9000010    2    1    2    0  502  0.22284734054E+03 -0.67160426460E+02 -0.40349454805E+02  0.99430344995E+03  0.96583632775E+03 0.  0.
         13    1    3    3    0    0 -0.28274280104E+03  0.24434553973E+03  0.94235830158E+02  0.38539413226E+03  0.10566000000E+00 0. -1.
         -4    1    3    3    0  502  0.50559014158E+03 -0.31150596619E+03 -0.13458528496E+03  0.60890931769E+03  0.00000000000E+00 0. -1.
        -13    1    1    2    0    0 -0.22284734054E+03  0.67160426460E+02 -0.36693187512E+03  0.43452327005E+03  0.10566000000E+00 0.  1.
<mgrwt>
<rscale>  1 0.69118152E+03</rscale>
<asrwt>0</asrwt>
<pdfrwt beam="1">  1       21 0.78580415E-01 0.99348441E+03</pdfrwt>
<pdfrwt beam="2">  1       -4 0.14123908E+00 0.99348441E+03</pdfrwt>
<totfact> 0.19083072E+01</totfact>
</mgrwt>
</event>
<event>
 6    2  0.2345636E-005  0.1022962E+04  0.7818608E-02  0.9973393E-01
         21   -1    0    0  501  502  0.00000000000E+00  0.00000000000E+00  0.12676371212E+04  0.12676371212E+04  0.00000000000E+00 0. -1.
         -4   -1    0    0    0  501 -0.00000000000E+00 -0.00000000000E+00 -0.47648433236E+03  0.47648433236E+03  0.00000000000E+00 0. -1.
   -9000010    2    1    2    0  502 -0.81254027827E+02  0.53808670545E+02  0.10509718875E+04  0.14666262909E+04  0.10183089800E+04 0.  0.
         13    1    3    3    0    0 -0.19303319593E+03  0.33614667057E+02  0.12349558781E+04  0.12504030521E+04  0.10566000000E+00 0. -1.
         -4    1    3    3    0  502  0.11177916810E+03  0.20194003488E+02 -0.18398399061E+03  0.21622323880E+03  0.00000000000E+00 0. -1.
        -13    1    1    2    0    0  0.81254027827E+02 -0.53808670545E+02 -0.25981909872E+03  0.27749516264E+03  0.10566000000E+00 0.  1.
<mgrwt>
<rscale>  1 0.56832439E+03</rscale>
<asrwt>0</asrwt>
<pdfrwt beam="1">  1       21 0.19502109E+00 0.10229618E+04</pdfrwt>
<pdfrwt beam="2">  1       -4 0.73305282E-01 0.10229618E+04</pdfrwt>
<totfact> 0.83480809E+00</totfact>
</mgrwt>
</event>
<event>
 6    2  0.2345636E-005  0.1099462E+04  0.7818608E-02  0.9449918E-01
         -4   -1    0    0    0  501 -0.00000000000E+00  0.00000000000E+00  0.16718416985E+04  0.16718416985E+04  0.00000000000E+00 0. -1.
         21   -1    0    0  501  502  0.00000000000E+00 -0.00000000000E+00 -0.36289335203E+03  0.36289335203E+03  0.00000000000E+00 0.  1.
   -9000010    2    1    2    0  502 -0.44280752728E+03 -0.94818109455E+02  0.10029625208E+04  0.14882038833E+04  0.10018722473E+04 0.  0.
         13    1    3    3    0    0 -0.36510522933E+03 -0.52176770556E+03  0.75753482639E+03  0.98964760971E+03  0.10566000000E+00 0. -1.
         -4    1    3    3    0  502 -0.77702297957E+02  0.42694959610E+03  0.24542769441E+03  0.49855627356E+03  0.00000000000E+00 0. -1.
        -13    1    1    2    0    0  0.44280752728E+03  0.94818109455E+02  0.30598582565E+03  0.54653116724E+03  0.10566000000E+00 0.  1.
<mgrwt>
<rscale>  1 0.88079078E+03</rscale>
<asrwt>0</asrwt>
<pdfrwt beam="2">  1       21 0.55829747E-01 0.10994621E+04</pdfrwt>
<pdfrwt beam="1">  1       -4 0.25720641E+00 0.10994621E+04</pdfrwt>
<totfact> 0.66660090E+00</totfact>
</mgrwt>
</event>
<event>
 6    2  0.2345636E-005  0.1022509E+04  0.7818608E-02  0.9741574E-01
         21   -1    0    0  501  502  0.00000000000E+00  0.00000000000E+00  0.18455418390E+04  0.18455418390E+04  0.00000000000E+00 0. -1.
         -4   -1    0    0    0  501 -0.00000000000E+00 -0.00000000000E+00 -0.24370137181E+03  0.24370137181E+03  0.00000000000E+00 0. -1.
   -9000010    2    1    2    0  502  0.17777029123E+03 -0.10622449320E+03  0.15786399890E+04  0.18808584879E+04  0.10013183894E+04 0.  0.
         13    1    3    3    0    0  0.35203001559E+03  0.63959904092E+01  0.71211013816E+02  0.35921728831E+03  0.10566000000E+00 0. -1.
         -4    1    3    3    0  502 -0.17425972436E+03 -0.11262048361E+03  0.15074289752E+04  0.15216411996E+04  0.00000000000E+00 0. -1.
        -13    1    1    2    0    0 -0.17777029123E+03  0.10622449320E+03  0.23200478138E+02  0.20838472292E+03  0.10566000000E+00 0.  1.
<mgrwt>
<rscale>  1 0.68594560E+03</rscale>
<asrwt>0</asrwt>
<pdfrwt beam="1">  1       21 0.28392950E+00 0.10225089E+04</pdfrwt>
<pdfrwt beam="2">  1       -4 0.37492520E-01 0.10225089E+04</pdfrwt>
<totfact> 0.92426857E+00</totfact>
</mgrwt>
</event>
<event>
 6    2  0.2345636E-005  0.1021690E+04  0.7818608E-02  0.9837583E-01
         -4   -1    0    0    0  501 -0.00000000000E+00  0.00000000000E+00  0.12541902208E+04  0.12541902208E+04  0.00000000000E+00 0. -1.
         21   -1    0    0  501  502  0.00000000000E+00 -0.00000000000E+00 -0.30463113261E+03  0.30463113261E+03  0.00000000000E+00 0. -1.
   -9000010    2    1    2    0  502 -0.14914156662E+03 -0.25721165607E+02  0.61724410276E+03  0.11936665288E+04  0.10104180888E+04 0.  0.
         13    1    3    3    0    0  0.38186957421E+03 -0.66041822545E+02  0.52603119577E+03  0.65337181155E+03  0.10566000000E+00 0. -1.
         -4    1    3    3    0  502 -0.53101114083E+03  0.40320656938E+02  0.91212906989E+02  0.54029471723E+03  0.00000000000E+00 0. -1.
        -13    1    1    2    0    0  0.14914156662E+03  0.25721165607E+02  0.33231498541E+03  0.36515482462E+03  0.10566000000E+00 0.  1.
<mgrwt>
<rscale>  1 0.63384054E+03</rscale>
<asrwt>0</asrwt>
<pdfrwt beam="2">  1       21 0.46866329E-01 0.10216895E+04</pdfrwt>
<pdfrwt beam="1">  1       -4 0.19295234E+00 0.10216895E+04</pdfrwt>
<totfact> 0.25279744E+01</totfact>
</mgrwt>
</event>
<event>
 6    2  0.2345636E-005  0.1028480E+04  0.7818608E-02  0.9712243E-01
         -4   -1    0    0    0  501 -0.00000000000E+00  0.00000000000E+00  0.18727318112E+04  0.18727318112E+04  0.00000000000E+00 0. -1.
         21   -1    0    0  501  502  0.00000000000E+00 -0.00000000000E+00 -0.24101246083E+03  0.24101246083E+03  0.00000000000E+00 0. -1.
   -9000010    2    1    2    0  502  0.90286652414E+02  0.20545036662E+03  0.96518076139E+03  0.14104411834E+04  0.10036976123E+04 0.  0.
         13    1    3    3    0    0 -0.23913181181E+02  0.55282792130E+03  0.24999765859E+03  0.60719798358E+03  0.10566000000E+00 0. -1.
         -4    1    3    3    0  502  0.11419983359E+03 -0.34737755468E+03  0.71518310279E+03  0.80324319979E+03  0.00000000000E+00 0. -1.
        -13    1    1    2    0    0 -0.90286652414E+02 -0.20545036662E+03  0.66653858895E+03  0.70330308863E+03  0.10566000000E+00 0.  1.
<mgrwt>
<rscale>  1 0.70292528E+03</rscale>
<asrwt>0</asrwt>
<pdfrwt beam="2">  1       21 0.37078841E-01 0.10284797E+04</pdfrwt>
<pdfrwt beam="1">  1       -4 0.28811258E+00 0.10284797E+04</pdfrwt>
<totfact> 0.10390679E+01</totfact>
</mgrwt>
</event>
<event>
 6    2  0.2345636E-005  0.1386521E+04  0.7818608E-02  0.9056331E-01
         -4   -1    0    0    0  501 -0.00000000000E+00  0.00000000000E+00  0.18730515013E+04  0.18730515013E+04  0.00000000000E+00 0. -1.
         21   -1    0    0  501  502  0.00000000000E+00 -0.00000000000E+00 -0.73997311115E+03  0.73997311115E+03  0.00000000000E+00 0. -1.
   -9000010    2    1    2    0  502  0.46894287329E+03 -0.84466686715E+03  0.61537527668E+03  0.15169470332E+04  0.99452100810E+03 0.  0.
         13    1    3    3    0    0  0.39626808703E+03 -0.73983115363E+03  0.88438357424E+03  0.12192263327E+04  0.10566000000E+00 0. -1.
         -4    1    3    3    0  502  0.72674786261E+02 -0.10483571352E+03 -0.26900829756E+03  0.29772070056E+03  0.00000000000E+00 0. -1.
        -13    1    1    2    0    0 -0.46894287329E+03  0.84466686715E+03  0.51770311350E+03  0.10960775793E+04  0.10566000000E+00 0.  1.
<mgrwt>
<rscale>  1 0.12667813E+04</rscale>
<asrwt>0</asrwt>
<pdfrwt beam="2">  1       21 0.11384202E+00 0.13865214E+04</pdfrwt>
<pdfrwt beam="1">  1       -4 0.28816177E+00 0.13865214E+04</pdfrwt>
<totfact> 0.76317379E-01</totfact>
</mgrwt>
</event>
<event>
 6    2  0.2345636E-005  0.1043512E+04  0.7818608E-02  0.9773502E-01
         21   -1    0    0  501  502  0.00000000000E+00  0.00000000000E+00  0.44889061790E+03  0.44889061790E+03  0.00000000000E+00 0. -1.
         -4   -1    0    0    0  501 -0.00000000000E+00 -0.00000000000E+00 -0.89912145003E+03  0.89912145003E+03  0.00000000000E+00 0. -1.
   -9000010    2    1    2    0  502 -0.14099997441E+03 -0.10411762900E+03 -0.51176553487E+03  0.11622487662E+04  0.10286869098E+04 0.  0.
         13    1    3    3    0    0 -0.53762265950E+03 -0.27871651847E+03 -0.24425817797E+03  0.65298016076E+03  0.10566000000E+00 0. -1.
         -4    1    3    3    0  502  0.39662268509E+03  0.17459888947E+03 -0.26750735690E+03  0.50926860548E+03  0.00000000000E+00 0. -1.
        -13    1    1    2    0    0  0.14099997441E+03  0.10411762900E+03  0.61534702746E+02  0.18576330170E+03  0.10566000000E+00 0.  1.
<mgrwt>
<rscale>  1 0.66804167E+03</rscale>
<asrwt>0</asrwt>
<pdfrwt beam="1">  1       21 0.69060096E-01 0.10435124E+04</pdfrwt>
<pdfrwt beam="2">  1       -4 0.13832638E+00 0.10435124E+04</pdfrwt>
<totfact> 0.27056607E+01</totfact>
</mgrwt>
</event>
<event>
 6    2  0.2345636E-005  0.9785900E+03  0.7818608E-02  0.9854494E-01
         -4   -1    0    0    0  501 -0.00000000000E+00  0.00000000000E+00  0.25800341548E+03  0.25800341548E+03  0.00000000000E+00 0. -1.
         21   -1    0    0  501  502  0.00000000000E+00 -0.00000000000E+00 -0.17247716773E+04  0.17247716773E+04  0.00000000000E+00 0. -1.
   -9000010    2    1    2    0  502 -0.11504519365E+02  0.16260788936E+03 -0.15230341377E+04  0.18103235355E+04  0.96491690781E+03 0.  0.
         13    1    3    3    0    0 -0.21820229006E+03 -0.35738082671E+03 -0.62987160589E+03  0.75635411399E+03  0.10566000000E+00 0. -1.
         -4    1    3    3    0  502  0.20669777069E+03  0.51998871607E+03 -0.89316253180E+03  0.10539694215E+04  0.00000000000E+00 0. -1.
        -13    1    1    2    0    0  0.11504519365E+02 -0.16260788936E+03  0.56265875885E+02  0.17245155726E+03  0.10566000000E+00 0.  1.
<mgrwt>
<rscale>  1 0.62518285E+03</rscale>
<asrwt>0</asrwt>
<pdfrwt beam="2">  1       21 0.26534948E+00 0.97858996E+03</pdfrwt>
<pdfrwt beam="1">  1       -4 0.39692835E-01 0.97858996E+03</pdfrwt>
<totfact> 0.10834820E+01</totfact>
</mgrwt>
</event>
<event>
 6    2  0.2345636E-005  0.1636762E+04  0.7818608E-02  0.8855435E-01
         21   -1    0    0  501  502  0.00000000000E+00  0.00000000000E+00  0.37319278487E+04  0.37319278487E+04  0.00000000000E+00 0.  1.
         -4   -1    0    0    0  501 -0.00000000000E+00 -0.00000000000E+00 -0.59796588649E+03  0.59796588649E+03  0.00000000000E+00 0. -1.
   -9000010    2    1    2    0  502  0.12973001329E+04  0.23802338670E+02  0.21465988448E+04  0.26994213733E+04  0.99771487090E+03 0.  0.
         13    1    3    3    0    0  0.14303940958E+04 -0.10581435977E+03  0.20079464164E+04  0.24676046625E+04  0.10566000000E+00 0. -1.
         -4    1    3    3    0  502 -0.13309396290E+03  0.12961669844E+03  0.13865242839E+03  0.23181671073E+03  0.00000000000E+00 0. -1.
        -13    1    1    2    0    0 -0.12973001329E+04 -0.23802338670E+02  0.98736311735E+03  0.16304723619E+04  0.10566000000E+00 0.  1.
<mgrwt>
<rscale>  1 0.15444274E+04</rscale>
<asrwt>0</asrwt>
<pdfrwt beam="1">  1       21 0.57414273E+00 0.16367618E+04</pdfrwt>
<pdfrwt beam="2">  1       -4 0.91994754E-01 0.16367618E+04</pdfrwt>
<totfact> 0.12254675E-02</totfact>
</mgrwt>
</event>
<event>
 6    2  0.2345636E-005  0.1082119E+04  0.7818608E-02  0.9500729E-01
         -4   -1    0    0    0  501 -0.00000000000E+00  0.00000000000E+00  0.10115901606E+04  0.10115901606E+04  0.00000000000E+00 0. -1.
         21   -1    0    0  501  502  0.00000000000E+00 -0.00000000000E+00 -0.55804872620E+03  0.55804872620E+03  0.00000000000E+00 0.  1.
   -9000010    2    1    2    0  502  0.36226058486E+03  0.16297434273E+03  0.20589129638E+03  0.11015320937E+04  0.10065725804E+04 0.  0.
         13    1    3    3    0    0 -0.19742899982E+03  0.76481014870E+02  0.44033357602E+03  0.48859106105E+03  0.10566000000E+00 0. -1.
         -4    1    3    3    0  502  0.55968958469E+03  0.86493327856E+02 -0.23444227964E+03  0.61294103261E+03  0.00000000000E+00 0. -1.
        -13    1    1    2    0    0 -0.36226058486E+03 -0.16297434273E+03  0.24765013797E+03  0.46810679309E+03  0.10566000000E+00 0.  1.
<mgrwt>
<rscale>  1 0.84230115E+03</rscale>
<asrwt>0</asrwt>
<pdfrwt beam="2">  1       21 0.85853650E-01 0.10821191E+04</pdfrwt>
<pdfrwt beam="1">  1       -4 0.15562926E+00 0.10821191E+04</pdfrwt>
<totfact> 0.11827352E+01</totfact>
</mgrwt>
</event>
<event>
 6    2  0.2345636E-005  0.1010896E+04  0.7818608E-02  0.9877319E-01
         21   -1    0    0  501  502  0.00000000000E+00  0.00000000000E+00  0.12534919715E+04  0.12534919715E+04  0.00000000000E+00 0. -1.
         -4   -1    0    0    0  501 -0.00000000000E+00 -0.00000000000E+00 -0.26477931936E+03  0.26477931936E+03  0.00000000000E+00 0. -1.
   -9000010    2    1    2    0  502 -0.13455711677E+03  0.27503623414E+02  0.82676450373E+03  0.13059289237E+04  0.10015232109E+04 0.  0.
         13    1    3    3    0    0  0.14858292285E+03 -0.43921523626E+03  0.34630298010E+03  0.57871640198E+03  0.10566000000E+00 0. -1.
         -4    1    3    3    0  502 -0.28314003962E+03  0.46671885968E+03  0.48046152363E+03  0.72721252169E+03  0.00000000000E+00 0. -1.
        -13    1    1    2    0    0  0.13455711677E+03 -0.27503623414E+02  0.16194814844E+03  0.21234236724E+03  0.10566000000E+00 0.  1.
<mgrwt>
<rscale>  1 0.61373179E+03</rscale>
<asrwt>0</asrwt>
<pdfrwt beam="1">  1       21 0.19284491E+00 0.10108960E+04</pdfrwt>
<pdfrwt beam="2">  1       -4 0.40735281E-01 0.10108960E+04</pdfrwt>
<totfact> 0.30556636E+01</totfact>
</mgrwt>
</event>
<event>
 6    2  0.2345636E-005  0.1149188E+04  0.7818608E-02  0.9344846E-01
         21   -1    0    0  501  502  0.00000000000E+00  0.00000000000E+00  0.12645482719E+04  0.12645482719E+04  0.00000000000E+00 0.  1.
         -4   -1    0    0    0  501 -0.00000000000E+00 -0.00000000000E+00 -0.61409399986E+03  0.61409399986E+03  0.00000000000E+00 0. -1.
   -9000010    2    1    2    0  502 -0.23121404191E+03 -0.52920202704E+03  0.25053016709E+03  0.11761794475E+04  0.99353812685E+03 0.  0.
         13    1    3    3    0    0 -0.40258757346E+03 -0.72623140159E+03  0.34404612164E+03  0.89880840447E+03  0.10566000000E+00 0. -1.
         -4    1    3    3    0  502  0.17137353155E+03  0.19702937456E+03 -0.93515954555E+02  0.27737104303E+03  0.00000000000E+00 0. -1.
        -13    1    1    2    0    0  0.23121404191E+03  0.52920202704E+03  0.39992410499E+03  0.70246282429E+03  0.10566000000E+00 0.  1.
<mgrwt>
<rscale>  1 0.96757069E+03</rscale>
<asrwt>0</asrwt>
<pdfrwt beam="1">  1       21 0.19454589E+00 0.11491879E+04</pdfrwt>
<pdfrwt beam="2">  1       -4 0.94476001E-01 0.11491879E+04</pdfrwt>
<totfact> 0.45949548E+00</totfact>
</mgrwt>
</event>
<event>
 6    2  0.2345636E-005  0.1005986E+04  0.7818608E-02  0.9843033E-01
         21   -1    0    0  501  502  0.00000000000E+00  0.00000000000E+00  0.15293097896E+04  0.15293097896E+04  0.00000000000E+00 0. -1.
         -4   -1    0    0    0  501 -0.00000000000E+00 -0.00000000000E+00 -0.29007559648E+03  0.29007559648E+03  0.00000000000E+00 0. -1.
   -9000010    2    1    2    0  502 -0.11631046123E+03  0.10358944653E+03  0.13071756255E+04  0.16494590896E+04  0.99385525883E+03 0.  0.
         13    1    3    3    0    0 -0.42883276152E+03 -0.51191518684E+02  0.12139179688E+04  0.12884544831E+04  0.10566000000E+00 0. -1.
         -4    1    3    3    0  502  0.31252230029E+03  0.15478096522E+03  0.93257656735E+02  0.36100460650E+03  0.00000000000E+00 0. -1.
        -13    1    1    2    0    0  0.11631046123E+03 -0.10358944653E+03 -0.67941432412E+02  0.16992629646E+03  0.10566000000E+00 0.  1.
<mgrwt>
<rscale>  1 0.63103399E+03</rscale>
<asrwt>0</asrwt>
<pdfrwt beam="1">  1       21 0.23527842E+00 0.10059857E+04</pdfrwt>
<pdfrwt beam="2">  1       -4 0.44627016E-01 0.10059857E+04</pdfrwt>
<totfact> 0.13169927E+01</totfact>
</mgrwt>
</event>
<event>
 6    2  0.2345636E-005  0.1080245E+04  0.7818608E-02  0.9321518E-01
         21   -1    0    0  501  502  0.00000000000E+00  0.00000000000E+00  0.99614968601E+03  0.99614968601E+03  0.00000000000E+00 0. -1.
         -4   -1    0    0    0  501 -0.00000000000E+00 -0.00000000000E+00 -0.94184569658E+03  0.94184569658E+03  0.00000000000E+00 0. -1.
   -9000010    2    1    2    0  502  0.18086430196E+03  0.73474827951E+03  0.33489278492E+03  0.11309656351E+04  0.77094951876E+03 0.  0.
         13    1    3    3    0    0  0.24906793102E+03  0.83920338732E+03  0.12148941678E+03  0.88377420708E+03  0.10566000000E+00 0. -1.
         -4    1    3    3    0  502 -0.68203629063E+02 -0.10445510781E+03  0.21340336814E+03  0.24719142804E+03  0.00000000000E+00 0. -1.
        -13    1    1    2    0    0 -0.18086430196E+03 -0.73474827951E+03 -0.28058879549E+03  0.80702974746E+03  0.10566000000E+00 0.  1.
<mgrwt>
<rscale>  1 0.98825745E+03</rscale>
<asrwt>0</asrwt>
<pdfrwt beam="1">  1       21 0.15325380E+00 0.10802454E+04</pdfrwt>
<pdfrwt beam="2">  1       -4 0.14489934E+00 0.10802454E+04</pdfrwt>
<totfact> 0.32139340E+00</totfact>
</mgrwt>
</event>
<event>
 6    2  0.2345636E-005  0.1013621E+04  0.7818608E-02  0.9731868E-01
         -4   -1    0    0    0  501 -0.00000000000E+00  0.00000000000E+00  0.17402084620E+04  0.17402084620E+04  0.00000000000E+00 0. -1.
         21   -1    0    0  501  502  0.00000000000E+00 -0.00000000000E+00 -0.22309084587E+03  0.22309084587E+03  0.00000000000E+00 0. -1.
   -9000010    2    1    2    0  502  0.18798210074E+03 -0.11344929593E+03  0.11280196934E+04  0.15165273105E+04  0.98955476959E+03 0.  0.
         13    1    3    3    0    0  0.28024747706E+03 -0.52107111012E+03  0.72686748059E+03  0.93722467728E+03  0.10566000000E+00 0. -1.
         -4    1    3    3    0  502 -0.92265376321E+02  0.40762181419E+03  0.40115221276E+03  0.57930263324E+03  0.00000000000E+00 0. -1.
        -13    1    1    2    0    0 -0.18798210074E+03  0.11344929593E+03  0.38909792280E+03  0.44677199737E+03  0.10566000000E+00 0.  1.
<mgrwt>
<rscale>  1 0.69150684E+03</rscale>
<asrwt>0</asrwt>
<pdfrwt beam="2">  1       21 0.34321670E-01 0.10136206E+04</pdfrwt>
<pdfrwt beam="1">  1       -4 0.26772437E+00 0.10136206E+04</pdfrwt>
<totfact> 0.16298341E+01</totfact>
</mgrwt>
</event>
<event>
 6    2  0.2345636E-005  0.1035998E+04  0.7818608E-02  0.9623158E-01
         -4   -1    0    0    0  501 -0.00000000000E+00  0.00000000000E+00  0.10903921582E+04  0.10903921582E+04  0.00000000000E+00 0. -1.
         21   -1    0    0  501  502  0.00000000000E+00 -0.00000000000E+00 -0.41787004609E+03  0.41787004609E+03  0.00000000000E+00 0. -1.
   -9000010    2    1    2    0  502  0.24335309480E+03  0.16958703611E+03  0.41703548332E+03  0.11167856147E+04  0.99262834094E+03 0.  0.
         13    1    3    3    0    0  0.14104141087E+03 -0.40339215252E+03  0.53827203654E+02  0.43071485616E+03  0.10566000000E+00 0. -1.
         -4    1    3    3    0  502  0.10231168393E+03  0.57297918863E+03  0.36320827967E+03  0.68607075852E+03  0.00000000000E+00 0. -1.
        -13    1    1    2    0    0 -0.24335309480E+03 -0.16958703611E+03  0.25548662879E+03  0.39147658962E+03  0.10566000000E+00 0.  1.
<mgrwt>
<rscale>  1 0.75782240E+03</rscale>
<asrwt>0</asrwt>
<pdfrwt beam="2">  1       21 0.64287700E-01 0.10359978E+04</pdfrwt>
<pdfrwt beam="1">  1       -4 0.16775264E+00 0.10359978E+04</pdfrwt>
<totfact> 0.18898051E+01</totfact>
</mgrwt>
</event>
<event>
 6    2  0.2345636E-005  0.1066315E+04  0.7818608E-02  0.9516981E-01
         -4   -1    0    0    0  501 -0.00000000000E+00  0.00000000000E+00  0.19199887425E+04  0.19199887425E+04  0.00000000000E+00 0. -1.
         21   -1    0    0  501  502  0.00000000000E+00 -0.00000000000E+00 -0.28259218225E+03  0.28259218225E+03  0.00000000000E+00 0. -1.
   -9000010    2    1    2    0  502 -0.37112450258E+03 -0.12699079376E+03  0.13272286291E+04  0.17025167141E+04  0.99154791597E+03 0.  0.
         13    1    3    3    0    0 -0.24873907419E+03 -0.47341644286E+03  0.11998840741E+04  0.13136651240E+04  0.10566000000E+00 0. -1.
         -4    1    3    3    0  502 -0.12238542839E+03  0.34642564910E+03  0.12734455495E+03  0.38885159009E+03  0.00000000000E+00 0. -1.
        -13    1    1    2    0    0  0.37112450258E+03  0.12699079376E+03  0.31016793110E+03  0.50006421064E+03  0.10566000000E+00 0.  1.
<mgrwt>
<rscale>  1 0.83043354E+03</rscale>
<asrwt>0</asrwt>
<pdfrwt beam="2">  1       21 0.43475722E-01 0.10663148E+04</pdfrwt>
<pdfrwt beam="1">  1       -4 0.29538288E+00 0.10663148E+04</pdfrwt>
<totfact> 0.66795397E+00</totfact>
</mgrwt>
</event>
<event>
 6    2  0.2345636E-005  0.1012459E+04  0.7818608E-02  0.9926380E-01
         21   -1    0    0  501  502  0.00000000000E+00  0.00000000000E+00  0.93576649370E+03  0.93576649370E+03  0.00000000000E+00 0. -1.
         -4   -1    0    0    0  501 -0.00000000000E+00 -0.00000000000E+00 -0.41131595629E+03  0.41131595629E+03  0.00000000000E+00 0. -1.
   -9000010    2    1    2    0  502 -0.76610647851E+02 -0.88101623875E+02  0.62767722373E+03  0.11912400699E+04  0.10057052846E+04 0.  0.
         13    1    3    3    0    0 -0.45297491632E+02 -0.86845051847E+02 -0.27298880296E+03  0.29002900456E+03  0.10566000000E+00 0. -1.
         -4    1    3    3    0  502 -0.31313156218E+02 -0.12565720284E+01  0.90066602669E+03  0.90121106537E+03  0.00000000000E+00 0. -1.
        -13    1    1    2    0    0  0.76610647851E+02  0.88101623875E+02 -0.10322668632E+03  0.15584238007E+03  0.10566000000E+00 0.  1.
<mgrwt>
<rscale>  1 0.58999672E+03</rscale>
<asrwt>0</asrwt>
<pdfrwt beam="1">  1       21 0.14396408E+00 0.10124595E+04</pdfrwt>
<pdfrwt beam="2">  1       -4 0.63279378E-01 0.10124595E+04</pdfrwt>
<totfact> 0.28162936E+01</totfact>
</mgrwt>
</event>
<event>
 6    2  0.2345636E-005  0.1082644E+04  0.7818608E-02  0.9489496E-01
         -4   -1    0    0    0  501 -0.00000000000E+00  0.00000000000E+00  0.10670651426E+04  0.10670651426E+04  0.00000000000E+00 0. -1.
         21   -1    0    0  501  502  0.00000000000E+00 -0.00000000000E+00 -0.52446619485E+03  0.52446619485E+03  0.00000000000E+00 0. -1.
   -9000010    2    1    2    0  502  0.93253933636E+02 -0.40189487336E+03  0.36717311101E+03  0.11432122316E+04  0.10009507119E+04 0.  0.
         13    1    3    3    0    0 -0.65450355716E+02 -0.56002326574E+03  0.59775364581E+03  0.82171725032E+03  0.10566000000E+00 0. -1.
         -4    1    3    3    0  502  0.15870428935E+03  0.15812839239E+03 -0.23058053479E+03  0.32149498124E+03  0.00000000000E+00 0. -1.
        -13    1    1    2    0    0 -0.93253933636E+02  0.40189487336E+03  0.17542583677E+03  0.44831910593E+03  0.10566000000E+00 0.  1.
<mgrwt>
<rscale>  1 0.85062717E+03</rscale>
<asrwt>0</asrwt>
<pdfrwt beam="2">  1       21 0.80687107E-01 0.10826440E+04</pdfrwt>
<pdfrwt beam="1">  1       -4 0.16416387E+00 0.10826440E+04</pdfrwt>
<totfact> 0.11829383E+01</totfact>
</mgrwt>
</event>
<event>
 6    2  0.2345636E-005  0.1004961E+04  0.7818608E-02  0.9850512E-01
         21   -1    0    0  501  502  0.00000000000E+00  0.00000000000E+00  0.31236570311E+03  0.31236570311E+03  0.00000000000E+00 0. -1.
         -4   -1    0    0    0  501 -0.00000000000E+00 -0.00000000000E+00 -0.11418439172E+04  0.11418439172E+04  0.00000000000E+00 0. -1.
   -9000010    2    1    2    0  502  0.80526030565E+01  0.15226228542E+03 -0.57578281954E+03  0.11582197347E+04  0.99332696061E+03 0.  0.
         13    1    3    3    0    0  0.84154944063E+02 -0.40435727960E+03 -0.38576662675E+03  0.56515729284E+03  0.10566000000E+00 0. -1.
         -4    1    3    3    0  502 -0.76102341006E+02  0.55661956502E+03 -0.19001619280E+03  0.59306244190E+03  0.00000000000E+00 0. -1.
        -13    1    1    2    0    0 -0.80526030565E+01 -0.15226228542E+03 -0.25369539453E+03  0.29598988555E+03  0.10566000000E+00 0.  1.
<mgrwt>
<rscale>  1 0.62720819E+03</rscale>
<asrwt>0</asrwt>
<pdfrwt beam="1">  1       21 0.48056262E-01 0.10049612E+04</pdfrwt>
<pdfrwt beam="2">  1       -4 0.17566830E+00 0.10049612E+04</pdfrwt>
<totfact> 0.31566190E+01</totfact>
</mgrwt>
</event>
<event>
 6    2  0.2345636E-005  0.1125729E+04  0.7818608E-02  0.9391157E-01
         -4   -1    0    0    0  501 -0.00000000000E+00  0.00000000000E+00  0.34503824261E+03  0.34503824261E+03  0.00000000000E+00 0. -1.
         21   -1    0    0  501  502  0.00000000000E+00 -0.00000000000E+00 -0.19651323045E+04  0.19651323045E+04  0.00000000000E+00 0. -1.
   -9000010    2    1    2    0  502 -0.47221726463E+02 -0.51787282165E+03 -0.10681619291E+04  0.15518492160E+04  0.99842071870E+03 0.  0.
         13    1    3    3    0    0 -0.60225839231E+02 -0.57477661069E+03 -0.12412436174E+04  0.13691899185E+04  0.10566000000E+00 0. -1.
         -4    1    3    3    0  502  0.13004112768E+02  0.56903789036E+02  0.17308168829E+03  0.18265929754E+03  0.00000000000E+00 0. -1.
        -13    1    1    2    0    0  0.47221726463E+02  0.51787282165E+03 -0.55193213277E+03  0.75832133110E+03  0.10566000000E+00 0.  1.
<mgrwt>
<rscale>  1 0.92807007E+03</rscale>
<asrwt>0</asrwt>
<pdfrwt beam="2">  1       21 0.30232805E+00 0.11257291E+04</pdfrwt>
<pdfrwt beam="1">  1       -4 0.53082806E-01 0.11257291E+04</pdfrwt>
<totfact> 0.33910629E+00</totfact>
</mgrwt>
</event>
<event>
 6    2  0.2345636E-005  0.1066850E+04  0.7818608E-02  0.9766414E-01
         21   -1    0    0  501  502  0.00000000000E+00  0.00000000000E+00  0.32097023134E+03  0.32097023134E+03  0.00000000000E+00 0. -1.
         -4   -1    0    0    0  501 -0.00000000000E+00 -0.00000000000E+00 -0.17709914086E+04  0.17709914086E+04  0.00000000000E+00 0. -1.
   -9000010    2    1    2    0  502  0.12052417432E+03  0.11690897737E+03 -0.59691382627E+03  0.12224871153E+04  0.10535534374E+04 0.  0.
         13    1    3    3    0    0 -0.32622788419E+03 -0.27373883431E+03 -0.43183359683E+03  0.60649637126E+03  0.10566000000E+00 0. -1.
         -4    1    3    3    0  502  0.44675205851E+03  0.39064781168E+03 -0.16508022944E+03  0.61599074401E+03  0.00000000000E+00 0. -1.
        -13    1    1    2    0    0 -0.12052417432E+03 -0.11690897737E+03 -0.85310735100E+03  0.86947452468E+03  0.10566000000E+00 0.  1.
<mgrwt>
<rscale>  1 0.67196503E+03</rscale>
<asrwt>0</asrwt>
<pdfrwt beam="1">  1       21 0.49380036E-01 0.10668499E+04</pdfrwt>
<pdfrwt beam="2">  1       -4 0.27246021E+00 0.10668499E+04</pdfrwt>
<totfact> 0.70433251E+00</totfact>
</mgrwt>
</event>
<event>
 6    2  0.2345636E-005  0.1030836E+04  0.7818608E-02  0.9695377E-01
         21   -1    0    0  501  502  0.00000000000E+00  0.00000000000E+00  0.59821165660E+03  0.59821165660E+03  0.00000000000E+00 0. -1.
         -4   -1    0    0    0  501 -0.00000000000E+00 -0.00000000000E+00 -0.69807174137E+03  0.69807174137E+03  0.00000000000E+00 0. -1.
   -9000010    2    1    2    0  502 -0.23541590851E+03 -0.14081554885E+02 -0.18154647975E+03  0.10467005090E+04  0.10034958351E+04 0.  0.
         13    1    3    3    0    0  0.24740460413E+03 -0.20479874004E+03  0.22093814079E+03  0.38982718644E+03  0.10566000000E+00 0. -1.
         -4    1    3    3    0  502 -0.48282051264E+03  0.19071718515E+03 -0.40248462054E+03  0.65687332258E+03  0.00000000000E+00 0. -1.
        -13    1    1    2    0    0  0.23541590851E+03  0.14081554885E+02  0.81686394987E+02  0.24958288895E+03  0.10566000000E+00 0.  1.
<mgrwt>
<rscale>  1 0.71292703E+03</rscale>
<asrwt>0</asrwt>
<pdfrwt beam="1">  1       21 0.92032563E-01 0.10308360E+04</pdfrwt>
<pdfrwt beam="2">  1       -4 0.10739565E+00 0.10308360E+04</pdfrwt>
<totfact> 0.26121232E+01</totfact>
</mgrwt>
</event>
<event>
 6    2  0.2345636E-005  0.1060414E+04  0.7818608E-02  0.9526274E-01
         -4   -1    0    0    0  501 -0.00000000000E+00  0.00000000000E+00  0.78764627785E+03  0.78764627785E+03  0.00000000000E+00 0. -1.
         21   -1    0    0  501  502  0.00000000000E+00 -0.00000000000E+00 -0.75252020287E+03  0.75252020287E+03  0.00000000000E+00 0.  1.
   -9000010    2    1    2    0  502 -0.37826551545E+03  0.77550534445E+02 -0.21244176759E+03  0.10814849644E+04  0.98761294951E+03 0.  0.
         13    1    3    3    0    0  0.91256689940E+02 -0.27135215775E+03 -0.37740663875E+03  0.47370408391E+03  0.10566000000E+00 0. -1.
         -4    1    3    3    0  502 -0.46952220539E+03  0.34890269220E+03  0.16496487116E+03  0.60778088050E+03  0.00000000000E+00 0. -1.
        -13    1    1    2    0    0  0.37826551545E+03 -0.77550534445E+02  0.24756784257E+03  0.45868151632E+03  0.10566000000E+00 0.  1.
<mgrwt>
<rscale>  1 0.82374150E+03</rscale>
<asrwt>0</asrwt>
<pdfrwt beam="2">  1       21 0.11577234E+00 0.10604142E+04</pdfrwt>
<pdfrwt beam="1">  1       -4 0.12117635E+00 0.10604142E+04</pdfrwt>
<totfact> 0.10875361E+01</totfact>
</mgrwt>
</event>
<event>
 6    2  0.2345636E-005  0.1080500E+04  0.7818608E-02  0.9454556E-01
         -4   -1    0    0    0  501 -0.00000000000E+00  0.00000000000E+00  0.43895487529E+03  0.43895487529E+03  0.00000000000E+00 0. -1.
         21   -1    0    0  501  502  0.00000000000E+00 -0.00000000000E+00 -0.13741788296E+04  0.13741788296E+04  0.00000000000E+00 0. -1.
   -9000010    2    1    2    0  502 -0.40045874454E+03  0.24478695057E+03 -0.70688923413E+03  0.12911905922E+04  0.97323835666E+03 0.  0.
         13    1    3    3    0    0 -0.49665405676E+03  0.21850871882E+02 -0.86765697992E+03  0.99998567923E+03  0.10566000000E+00 0. -1.
         -4    1    3    3    0  502  0.96195312211E+02  0.22293607869E+03  0.16076774578E+03  0.29120491301E+03  0.00000000000E+00 0. -1.
        -13    1    1    2    0    0  0.40045874454E+03 -0.24478695057E+03 -0.22833472017E+03  0.52194311266E+03  0.10566000000E+00 0.  1.
<mgrwt>
<rscale>  1 0.87718758E+03</rscale>
<asrwt>0</asrwt>
<pdfrwt beam="2">  1       21 0.21141213E+00 0.10805002E+04</pdfrwt>
<pdfrwt beam="1">  1       -4 0.67531520E-01 0.10805002E+04</pdfrwt>
<totfact> 0.76924882E+00</totfact>
</mgrwt>
</event>
<event>
 6    2  0.2345636E-005  0.9685805E+03  0.7818608E-02  0.9708631E-01
         -4   -1    0    0    0  501 -0.00000000000E+00  0.00000000000E+00  0.66699925795E+03  0.66699925795E+03  0.00000000000E+00 0. -1.
         21   -1    0    0  501  502  0.00000000000E+00 -0.00000000000E+00 -0.75778438769E+03  0.75778438769E+03  0.00000000000E+00 0. -1.
   -9000010    2    1    2    0  502 -0.11132423857E+02 -0.27171532740E+03 -0.36829828643E+03  0.10362392938E+04  0.92962094228E+03 0.  0.
         13    1    3    3    0    0 -0.76153981415E+02 -0.21744194914E+03  0.29120315797E+03  0.37132158637E+03  0.10566000000E+00 0. -1.
         -4    1    3    3    0  502  0.65021557559E+02 -0.54273378259E+02 -0.65950144441E+03  0.66491770747E+03  0.00000000000E+00 0. -1.
        -13    1    1    2    0    0  0.11132423857E+02  0.27171532740E+03  0.27751315669E+03  0.38854435179E+03  0.10566000000E+00 0.  1.
<mgrwt>
<rscale>  1 0.70505240E+03</rscale>
<asrwt>0</asrwt>
<pdfrwt beam="2">  1       21 0.11658221E+00 0.96858053E+03</pdfrwt>
<pdfrwt beam="1">  1       -4 0.10261527E+00 0.96858053E+03</pdfrwt>
<totfact> 0.16271316E+01</totfact>
</mgrwt>
</event>
<event>
 6    2  0.2345636E-005  0.9928885E+03  0.7818608E-02  0.9867375E-01
         21   -1    0    0  501  502  0.00000000000E+00  0.00000000000E+00  0.25193000473E+03  0.25193000473E+03  0.00000000000E+00 0. -1.
         -4   -1    0    0    0  501 -0.00000000000E+00 -0.00000000000E+00 -0.13745024966E+04  0.13745024966E+04  0.00000000000E+00 0. -1.
   -9000010    2    1    2    0  502  0.55124491117E+02 -0.13916754420E+03 -0.81565937598E+03  0.12849621706E+04  0.98154024239E+03 0.  0.
         13    1    3    3    0    0  0.39696702257E+03 -0.44072221376E+02 -0.43217115543E+01  0.39942942563E+03  0.10566000000E+00 0. -1.
         -4    1    3    3    0  502 -0.34184253146E+03 -0.95095322825E+02 -0.81133766442E+03  0.88553274499E+03  0.00000000000E+00 0. -1.
        -13    1    1    2    0    0 -0.55124491117E+02  0.13916754420E+03 -0.30691311585E+03  0.34147033067E+03  0.10566000000E+00 0.  1.
<mgrwt>
<rscale>  1 0.61868800E+03</rscale>
<asrwt>0</asrwt>
<pdfrwt beam="1">  1       21 0.38758462E-01 0.99288849E+03</pdfrwt>
<pdfrwt beam="2">  1       -4 0.21146192E+00 0.99288849E+03</pdfrwt>
<totfact> 0.28592877E+01</totfact>
</mgrwt>
</event>
<event>
 6    2  0.2345636E-005  0.1058333E+04  0.7818608E-02  0.9599759E-01
         -4   -1    0    0    0  501 -0.00000000000E+00  0.00000000000E+00  0.25064094708E+04  0.25064094708E+04  0.00000000000E+00 0. -1.
         21   -1    0    0  501  502  0.00000000000E+00 -0.00000000000E+00 -0.19357756789E+03  0.19357756789E+03  0.00000000000E+00 0. -1.
   -9000010    2    1    2    0  502  0.24571155679E+03 -0.17452697083E+03  0.15230769921E+04  0.18546784187E+04  0.10145120405E+04 0.  0.
         13    1    3    3    0    0  0.25118002297E+03 -0.63739465554E+02  0.16590692399E+04  0.16791857781E+04  0.10566000000E+00 0. -1.
         -4    1    3    3    0  502 -0.54684661742E+01 -0.11078750528E+03 -0.13599224781E+03  0.17549264062E+03  0.00000000000E+00 0. -1.
        -13    1    1    2    0    0 -0.24571155679E+03  0.17452697083E+03  0.78975491087E+03  0.84530862003E+03  0.10566000000E+00 0.  1.
<mgrwt>
<rscale>  1 0.77312138E+03</rscale>
<asrwt>0</asrwt>
<pdfrwt beam="2">  1       21 0.29781166E-01 0.10583329E+04</pdfrwt>
<pdfrwt beam="1">  1       -4 0.38560143E+00 0.10583329E+04</pdfrwt>
<totfact> 0.38376349E+00</totfact>
</mgrwt>
</event>
<event>
 6    2  0.2345636E-005  0.1044379E+04  0.7818608E-02  0.9605835E-01
         21   -1    0    0  501  502  0.00000000000E+00  0.00000000000E+00  0.79266932079E+03  0.79266932079E+03  0.00000000000E+00 0. -1.
         -4   -1    0    0    0  501 -0.00000000000E+00 -0.00000000000E+00 -0.62204324285E+03  0.62204324285E+03  0.00000000000E+00 0. -1.
   -9000010    2    1    2    0  502 -0.29986804936E+03 -0.66592914757E+02  0.29199705852E+03  0.10844302762E+04  0.99818399024E+03 0.  0.
         13    1    3    3    0    0  0.27551783934E+03  0.11407520340E+03 -0.15279259301E+03  0.33506539581E+03  0.10566000000E+00 0. -1.
         -4    1    3    3    0  502 -0.57538588870E+03 -0.18066811816E+03  0.44478965152E+03  0.74936488037E+03  0.00000000000E+00 0. -1.
        -13    1    1    2    0    0  0.29986804936E+03  0.66592914757E+02 -0.12137098058E+03  0.33028228746E+03  0.10566000000E+00 0.  1.
<mgrwt>
<rscale>  1 0.76911162E+03</rscale>
<asrwt>0</asrwt>
<pdfrwt beam="1">  1       21 0.12194913E+00 0.10443786E+04</pdfrwt>
<pdfrwt beam="2">  1       -4 0.95698961E-01 0.10443786E+04</pdfrwt>
<totfact> 0.16990918E+01</totfact>
</mgrwt>
</event>
<event>
 6    2  0.2345636E-005  0.1018735E+04  0.7818608E-02  0.9812564E-01
         -4   -1    0    0    0  501 -0.00000000000E+00  0.00000000000E+00  0.62186690517E+03  0.62186690517E+03  0.00000000000E+00 0. -1.
         21   -1    0    0  501  502  0.00000000000E+00 -0.00000000000E+00 -0.70161542521E+03  0.70161542521E+03  0.00000000000E+00 0. -1.
   -9000010    2    1    2    0  502 -0.24329243847E+02  0.16387029097E+03 -0.28677611124E+03  0.10583298855E+04  0.10051747232E+04 0.  0.
         13    1    3    3    0    0  0.42672255477E+03  0.15191918122E+03  0.10019518604E+03  0.46390803275E+03  0.10566000000E+00 0. -1.
         -4    1    3    3    0  502 -0.45105179862E+03  0.11951109745E+02 -0.38697129728E+03  0.59442185271E+03  0.00000000000E+00 0. -1.
        -13    1    1    2    0    0  0.24329243847E+02 -0.16387029097E+03  0.20702759120E+03  0.26515244493E+03  0.10566000000E+00 0.  1.
<mgrwt>
<rscale>  1 0.64692614E+03</rscale>
<asrwt>0</asrwt>
<pdfrwt beam="2">  1       21 0.10794083E+00 0.10187353E+04</pdfrwt>
<pdfrwt beam="1">  1       -4 0.95671831E-01 0.10187353E+04</pdfrwt>
<totfact> 0.23303460E+01</totfact>
</mgrwt>
</event>
<event>
 6    2  0.2345636E-005  0.1046267E+04  0.7818608E-02  0.9587617E-01
         -4   -1    0    0    0  501 -0.00000000000E+00  0.00000000000E+00  0.10740053046E+04  0.10740053046E+04  0.00000000000E+00 0. -1.
         21   -1    0    0  501  502  0.00000000000E+00 -0.00000000000E+00 -0.52149802480E+03  0.52149802480E+03  0.00000000000E+00 0. -1.
   -9000010    2    1    2    0  502 -0.30862974482E+03 -0.10247603257E+03  0.11817719418E+03  0.10529203486E+04  0.99444545079E+03 0.  0.
         13    1    3    3    0    0 -0.38190009542E+03 -0.39035668009E+03 -0.23232824189E+03  0.59346646385E+03  0.10566000000E+00 0. -1.
         -4    1    3    3    0  502  0.73270350594E+02  0.28788064751E+03  0.35050543606E+03  0.45945388474E+03  0.00000000000E+00 0. -1.
        -13    1    1    2    0    0  0.30862974482E+03  0.10247603257E+03  0.43433008563E+03  0.54258298083E+03  0.10566000000E+00 0.  1.
<mgrwt>
<rscale>  1 0.78121206E+03</rscale>
<asrwt>0</asrwt>
<pdfrwt beam="2">  1       21 0.80230465E-01 0.10462674E+04</pdfrwt>
<pdfrwt beam="1">  1       -4 0.16523159E+00 0.10462674E+04</pdfrwt>
<totfact> 0.11818227E+01</totfact>
</mgrwt>
</event>
<event>
 6    2  0.2345636E-005  0.8995662E+03  0.7818608E-02  0.9852042E-01
         21   -1    0    0  501  502  0.00000000000E+00  0.00000000000E+00  0.30916028497E+03  0.30916028497E+03  0.00000000000E+00 0. -1.
         -4   -1    0    0    0  501 -0.00000000000E+00 -0.00000000000E+00 -0.10760597665E+04  0.10760597665E+04  0.00000000000E+00 0. -1.
   -9000010    2    1    2    0  502  0.20923475660E+03  0.31132746893E+02 -0.45430407643E+03  0.10077755791E+04  0.87434031852E+03 0.  0.
         13    1    3    3    0    0  0.29524068652E+03  0.35426377021E+03 -0.22596083131E+02  0.46171471277E+03  0.10566000000E+00 0. -1.
         -4    1    3    3    0  502 -0.86005929912E+02 -0.32313102331E+03 -0.43170799330E+03  0.54606086629E+03  0.00000000000E+00 0. -1.
        -13    1    1    2    0    0 -0.20923475660E+03 -0.31132746893E+02 -0.31259540508E+03  0.37744447240E+03  0.10566000000E+00 0.  1.
<mgrwt>
<rscale>  1 0.62642936E+03</rscale>
<asrwt>0</asrwt>
<pdfrwt beam="1">  1       21 0.47563120E-01 0.89956624E+03</pdfrwt>
<pdfrwt beam="2">  1       -4 0.16554766E+00 0.89956624E+03</pdfrwt>
<totfact> 0.38522344E+01</totfact>
</mgrwt>
</event>
<event>
 6    2  0.2345636E-005  0.9807540E+03  0.7818608E-02  0.1046908E+00
         -4   -1    0    0    0  501 -0.00000000000E+00  0.00000000000E+00  0.16721006327E+04  0.16721006327E+04  0.00000000000E+00 0. -1.
         21   -1    0    0  501  502  0.00000000000E+00 -0.00000000000E+00 -0.15784215609E+03  0.15784215609E+03  0.00000000000E+00 0. -1.
   -9000010    2    1    2    0  502  0.23840767575E+02 -0.68290255324E+01  0.13776041298E+04  0.16910563623E+04  0.98044044407E+03 0.  0.
         13    1    3    3    0    0 -0.21049117602E+03 -0.43554089548E+03  0.57473996051E+03  0.75121797115E+03  0.10566000000E+00 0. -1.
         -4    1    3    3    0  502  0.23433194359E+03  0.42871186994E+03  0.80286416929E+03  0.93983839119E+03  0.00000000000E+00 0. -1.
        -13    1    1    2    0    0 -0.23840767575E+02  0.68290255324E+01  0.13665434679E+03  0.13888642644E+03  0.10566000000E+00 0.  1.
<mgrwt>
<rscale>  1 0.39109478E+03</rscale>
<asrwt>0</asrwt>
<pdfrwt beam="2">  1       21 0.24283410E-01 0.98075404E+03</pdfrwt>
<pdfrwt beam="1">  1       -4 0.25724624E+00 0.98075404E+03</pdfrwt>
<totfact> 0.38031073E+01</totfact>
</mgrwt>
</event>
<event>
 6    2  0.2345636E-005  0.1062648E+04  0.7818608E-02  0.9538726E-01
         21   -1    0    0  501  502  0.00000000000E+00  0.00000000000E+00  0.13156854054E+04  0.13156854054E+04  0.00000000000E+00 0. -1.
         -4   -1    0    0    0  501 -0.00000000000E+00 -0.00000000000E+00 -0.63698657186E+03  0.63698657186E+03  0.00000000000E+00 0. -1.
   -9000010    2    1    2    0  502  0.35618146652E+03 -0.90325962239E+02  0.10039878414E+04  0.14619205470E+04  0.99709381874E+03 0.  0.
         13    1    3    3    0    0 -0.34401073672E+02 -0.82107487478E+02 -0.18774814173E+03  0.20778462228E+03  0.10566000000E+00 0. -1.
         -4    1    3    3    0  502  0.39058254020E+03 -0.82184747602E+01  0.11917359831E+04  0.12541359247E+04  0.00000000000E+00 0. -1.
        -13    1    1    2    0    0 -0.35618146652E+03  0.90325962239E+02 -0.32528900787E+03  0.49075143031E+03  0.10566000000E+00 0.  1.
<mgrwt>
<rscale>  1 0.81487943E+03</rscale>
<asrwt>0</asrwt>
<pdfrwt beam="1">  1       21 0.20241314E+00 0.10626477E+04</pdfrwt>
<pdfrwt beam="2">  1       -4 0.97997935E-01 0.10626477E+04</pdfrwt>
<totfact> 0.37561641E+00</totfact>
</mgrwt>
</event>
<event>
 6    2  0.2345636E-005  0.1007790E+04  0.7818608E-02  0.9996810E-01
         21   -1    0    0  501  502  0.00000000000E+00  0.00000000000E+00  0.10645105705E+04  0.10645105705E+04  0.00000000000E+00 0. -1.
         -4   -1    0    0    0  501 -0.00000000000E+00 -0.00000000000E+00 -0.28823162676E+03  0.28823162676E+03  0.00000000000E+00 0. -1.
   -9000010    2    1    2    0  502 -0.82072286501E+02 -0.47148041520E+02  0.74425954697E+03  0.12528219743E+04  0.10033353517E+04 0.  0.
         13    1    3    3    0    0 -0.42384917738E+03  0.25399843465E+03  0.59509357999E+03  0.77349835816E+03  0.10566000000E+00 0. -1.
         -4    1    3    3    0  502  0.34177689088E+03 -0.30114647617E+03  0.14916596698E+03  0.47932361610E+03  0.00000000000E+00 0. -1.
        -13    1    1    2    0    0  0.82072286501E+02  0.47148041520E+02  0.32019396784E+02  0.99920223004E+02  0.10566000000E+00 0.  1.
<mgrwt>
<rscale>  1 0.55790315E+03</rscale>
<asrwt>0</asrwt>
<pdfrwt beam="1">  1       21 0.16377086E+00 0.10077900E+04</pdfrwt>
<pdfrwt beam="2">  1       -4 0.44343328E-01 0.10077900E+04</pdfrwt>
<totfact> 0.41849344E+01</totfact>
</mgrwt>
</event>
<event>
 6    2  0.2345636E-005  0.1011508E+04  0.7818608E-02  0.9680570E-01
         21   -1    0    0  501  502  0.00000000000E+00  0.00000000000E+00  0.10388168137E+04  0.10388168137E+04  0.00000000000E+00 0. -1.
         -4   -1    0    0    0  501 -0.00000000000E+00 -0.00000000000E+00 -0.41122873319E+03  0.41122873319E+03  0.00000000000E+00 0. -1.
   -9000010    2    1    2    0  502 -0.24085387417E+03 -0.10402237531E+03  0.62236031336E+03  0.11876363550E+04  0.97689124721E+03 0.  0.
         13    1    3    3    0    0 -0.21814094851E+03 -0.43465290069E+03  0.43123797037E+01  0.48634064736E+03  0.10566000000E+00 0. -1.
         -4    1    3    3    0  502 -0.22712925657E+02  0.33063052537E+03  0.61804793366E+03  0.70129570767E+03  0.00000000000E+00 0. -1.
        -13    1    1    2    0    0  0.24085387417E+03  0.10402237531E+03  0.52277671627E+01  0.26240919188E+03  0.10566000000E+00 0.  1.
<mgrwt>
<rscale>  1 0.72185521E+03</rscale>
<asrwt>0</asrwt>
<pdfrwt beam="1">  1       21 0.15981797E+00 0.10115077E+04</pdfrwt>
<pdfrwt beam="2">  1       -4 0.63265959E-01 0.10115077E+04</pdfrwt>
<totfact> 0.21029731E+01</totfact>
</mgrwt>
</event>
<event>
 6    2  0.2345636E-005  0.1169613E+04  0.7818608E-02  0.9662309E-01
         -4   -1    0    0    0  501 -0.00000000000E+00  0.00000000000E+00  0.48980639625E+03  0.48980639625E+03  0.00000000000E+00 0. -1.
         21   -1    0    0  501  502  0.00000000000E+00 -0.00000000000E+00 -0.93052418982E+03  0.93052418982E+03  0.00000000000E+00 0.  1.
   -9000010    2    1    2    0  502 -0.17181076483E+03  0.55265879428E+02 -0.38851139307E+03  0.12324509018E+04  0.11556041132E+04 0.  0.
         13    1    3    3    0    0  0.16838440898E+03 -0.36838766881E+03 -0.53374843942E+03  0.67003745527E+03  0.10566000000E+00 0. -1.
         -4    1    3    3    0  502 -0.34019517381E+03  0.42365354824E+03  0.14523704635E+03  0.56241344654E+03  0.00000000000E+00 0. -1.
        -13    1    1    2    0    0  0.17181076483E+03 -0.55265879428E+02 -0.52206400496E+02  0.18787968426E+03  0.10566000000E+00 0.  1.
<mgrwt>
<rscale>  1 0.73305954E+03</rscale>
<asrwt>0</asrwt>
<pdfrwt beam="2">  1       21 0.14315757E+00 0.11696128E+04</pdfrwt>
<pdfrwt beam="1">  1       -4 0.75354831E-01 0.11696128E+04</pdfrwt>
<totfact> 0.19060533E+01</totfact>
</mgrwt>
</event>
<event>
 6    2  0.2345636E-005  0.1058671E+04  0.7818608E-02  0.9543900E-01
         -4   -1    0    0    0  501 -0.00000000000E+00  0.00000000000E+00  0.20286493025E+03  0.20286493025E+03  0.00000000000E+00 0. -1.
         21   -1    0    0  501  502  0.00000000000E+00 -0.00000000000E+00 -0.25471070620E+04  0.25471070620E+04  0.00000000000E+00 0. -1.
   -9000010    2    1    2    0  502 -0.36119206915E+03  0.52608533993E+02 -0.18997596860E+04  0.21748267720E+04  0.99375915333E+03 0.  0.
         13    1    3    3    0    0 -0.50255727649E+03 -0.29944588652E+03 -0.67788079129E+03  0.89540718864E+03  0.10566000000E+00 0. -1.
         -4    1    3    3    0  502  0.14136520733E+03  0.35205442051E+03 -0.12218788948E+04  0.12794195834E+04  0.00000000000E+00 0. -1.
        -13    1    1    2    0    0  0.36119206915E+03 -0.52608533993E+02 -0.44448244575E+03  0.57514522029E+03  0.10566000000E+00 0.  1.
<mgrwt>
<rscale>  1 0.81123186E+03</rscale>
<asrwt>0</asrwt>
<pdfrwt beam="2">  1       21 0.39186261E+00 0.10586712E+04</pdfrwt>
<pdfrwt beam="1">  1       -4 0.31209990E-01 0.10586712E+04</pdfrwt>
<totfact> 0.27545079E+00</totfact>
</mgrwt>
</event>
<event>
 6    2  0.2345636E-005  0.1027520E+04  0.7818608E-02  0.9716509E-01
         21   -1    0    0  501  502  0.00000000000E+00  0.00000000000E+00  0.58743712667E+03  0.58743712667E+03  0.00000000000E+00 0. -1.
         -4   -1    0    0    0  501 -0.00000000000E+00 -0.00000000000E+00 -0.68829217146E+03  0.68829217146E+03  0.00000000000E+00 0. -1.
   -9000010    2    1    2    0  502  0.17357465078E+03  0.13817312983E+03  0.10329446452E+02  0.10275721393E+04  0.10032835247E+04 0.  0.
         13    1    3    3    0    0  0.36261760169E+03  0.46467658771E+03  0.17655505058E+03  0.61529468815E+03  0.10566000000E+00 0. -1.
         -4    1    3    3    0  502 -0.18904295091E+03 -0.32650345788E+03 -0.16622560413E+03  0.41227745119E+03  0.00000000000E+00 0. -1.
        -13    1    1    2    0    0 -0.17357465078E+03 -0.13817312983E+03 -0.11118449125E+03  0.24815715879E+03  0.10566000000E+00 0.  1.
<mgrwt>
<rscale>  1 0.70042311E+03</rscale>
<asrwt>0</asrwt>
<pdfrwt beam="1">  1       21 0.90374942E-01 0.10275202E+04</pdfrwt>
<pdfrwt beam="2">  1       -4 0.10589110E+00 0.10275202E+04</pdfrwt>
<totfact> 0.28265719E+01</totfact>
</mgrwt>
</event>
<event>
 6    2  0.2345636E-005  0.1059998E+04  0.7818608E-02  0.9550446E-01
         21   -1    0    0  501  502  0.00000000000E+00  0.00000000000E+00  0.79220464157E+03  0.79220464157E+03  0.00000000000E+00 0.  1.
         -4   -1    0    0    0  501 -0.00000000000E+00 -0.00000000000E+00 -0.64403110156E+03  0.64403110156E+03  0.00000000000E+00 0. -1.
   -9000010    2    1    2    0  502  0.15898816737E+03 -0.31794625127E+03  0.19467194285E+03  0.10777260938E+04  0.99861369498E+03 0.  0.
         13    1    3    3    0    0  0.20424852752E+03  0.23882343693E+03  0.37636763037E+03  0.49031285867E+03  0.10566000000E+00 0. -1.
         -4    1    3    3    0  502 -0.45260360157E+02 -0.55676968820E+03 -0.18169568753E+03  0.58741323510E+03  0.00000000000E+00 0. -1.
        -13    1    1    2    0    0 -0.15898816737E+03  0.31794625127E+03 -0.46498402834E+02  0.35850964937E+03  0.10566000000E+00 0.  1.
<mgrwt>
<rscale>  1 0.80664623E+03</rscale>
<asrwt>0</asrwt>
<pdfrwt beam="1">  1       21 0.12187764E+00 0.10599983E+04</pdfrwt>
<pdfrwt beam="2">  1       -4 0.99081709E-01 0.10599983E+04</pdfrwt>
<totfact> 0.15633850E+01</totfact>
</mgrwt>
</event>
<event>
 6    2  0.2345636E-005  0.1035586E+04  0.7818608E-02  0.9536841E-01
         21   -1    0    0  501  502  0.00000000000E+00  0.00000000000E+00  0.31718137730E+03  0.31718137730E+03  0.00000000000E+00 0. -1.
         -4   -1    0    0    0  501 -0.00000000000E+00 -0.00000000000E+00 -0.16304926653E+04  0.16304926653E+04  0.00000000000E+00 0. -1.
   -9000010    2    1    2    0  502 -0.39826794455E+03 -0.32948375588E+02 -0.10033794306E+04  0.14419461330E+04  0.95537187402E+03 0.  0.
         13    1    3    3    0    0 -0.33856765076E+03  0.33528718631E+03 -0.13256115049E+03  0.49458873948E+03  0.10566000000E+00 0. -1.
         -4    1    3    3    0  502 -0.59700293798E+02 -0.36823556190E+03 -0.87081828009E+03  0.94735739353E+03  0.00000000000E+00 0. -1.
        -13    1    1    2    0    0  0.39826794455E+03  0.32948375588E+02 -0.30993185738E+03  0.50572790955E+03  0.10566000000E+00 0.  1.
<mgrwt>
<rscale>  1 0.81621356E+03</rscale>
<asrwt>0</asrwt>
<pdfrwt beam="1">  1       21 0.48797137E-01 0.10355860E+04</pdfrwt>
<pdfrwt beam="2">  1       -4 0.25084502E+00 0.10355860E+04</pdfrwt>
<totfact> 0.98620659E+00</totfact>
</mgrwt>
</event>
<event>
 6    2  0.2345636E-005  0.1011996E+04  0.7818608E-02  0.9927412E-01
         21   -1    0    0  501  502  0.00000000000E+00  0.00000000000E+00  0.67657339205E+03  0.67657339205E+03  0.00000000000E+00 0. -1.
         -4   -1    0    0    0  501 -0.00000000000E+00 -0.00000000000E+00 -0.58522061271E+03  0.58522061271E+03  0.00000000000E+00 0. -1.
   -9000010    2    1    2    0  502 -0.57418320766E+02 -0.10139920702E+03  0.27101001415E+03  0.10476552742E+04  0.10052643846E+04 0.  0.
         13    1    3    3    0    0  0.10036652560E+03 -0.41001691076E+03 -0.19654313288E+03  0.46563560948E+03  0.10566000000E+00 0. -1.
         -4    1    3    3    0  502 -0.15778484637E+03  0.30861770375E+03  0.46755314703E+03  0.58201966471E+03  0.00000000000E+00 0. -1.
        -13    1    1    2    0    0  0.57418320766E+02  0.10139920702E+03 -0.17965723482E+03  0.21413873057E+03  0.10566000000E+00 0.  1.
<mgrwt>
<rscale>  1 0.58950996E+03</rscale>
<asrwt>0</asrwt>
<pdfrwt beam="1">  1       21 0.10408821E+00 0.10119956E+04</pdfrwt>
<pdfrwt beam="2">  1       -4 0.90033940E-01 0.10119956E+04</pdfrwt>
<totfact> 0.29506325E+01</totfact>
</mgrwt>
</event>
<event>
 6    2  0.2345636E-005  0.1186649E+04  0.7818608E-02  0.9276949E-01
         21   -1    0    0  501  502  0.00000000000E+00  0.00000000000E+00  0.28479152271E+04  0.28479152271E+04  0.00000000000E+00 0. -1.
         -4   -1    0    0    0  501 -0.00000000000E+00 -0.00000000000E+00 -0.38403976767E+03  0.38403976767E+03  0.00000000000E+00 0. -1.
   -9000010    2    1    2    0  502 -0.61953868639E+03 -0.25982812548E+03  0.22199903356E+04  0.25172391047E+04  0.97815989565E+03 0.  0.
         13    1    3    3    0    0 -0.14687794887E+03  0.23222900887E+03  0.15013726875E+04  0.15263103886E+04  0.10566000000E+00 0. -1.
         -4    1    3    3    0  502 -0.47266073752E+03 -0.49205713435E+03  0.71861764806E+03  0.99092871608E+03  0.00000000000E+00 0. -1.
        -13    1    1    2    0    0  0.61953868639E+03  0.25982812548E+03  0.24388512387E+03  0.71471589008E+03  0.10566000000E+00 0.  1.
<mgrwt>
<rscale>  1 0.10293297E+04</rscale>
<asrwt>0</asrwt>
<pdfrwt beam="1">  1       21 0.43814079E+00 0.11866489E+04</pdfrwt>
<pdfrwt beam="2">  1       -4 0.59083043E-01 0.11866489E+04</pdfrwt>
<totfact> 0.35277487E-01</totfact>
</mgrwt>
</event>
<event>
 6    2  0.2345636E-005  0.1261447E+04  0.7818608E-02  0.9202083E-01
         21   -1    0    0  501  502  0.00000000000E+00  0.00000000000E+00  0.67501625670E+03  0.67501625670E+03  0.00000000000E+00 0. -1.
         -4   -1    0    0    0  501 -0.00000000000E+00 -0.00000000000E+00 -0.16762077072E+04  0.16762077072E+04  0.00000000000E+00 0. -1.
   -9000010    2    1    2    0  502  0.28078965353E+03  0.68239860306E+03 -0.22701671854E+03  0.12817113601E+04  0.10231015282E+04 0.  0.
         13    1    3    3    0    0  0.23303016873E+03  0.71466273740E+03 -0.56404941620E+03  0.93978595587E+03  0.10566000000E+00 0. -1.
         -4    1    3    3    0  502  0.47759484801E+02 -0.32264134342E+02  0.33703269766E+03  0.34192540421E+03  0.00000000000E+00 0. -1.
        -13    1    1    2    0    0 -0.28078965353E+03 -0.68239860306E+03 -0.77417473200E+03  0.10695126039E+04  0.10566000000E+00 0.  1.
<mgrwt>
<rscale>  1 0.11031954E+04</rscale>
<asrwt>0</asrwt>
<pdfrwt beam="1">  1       21 0.10384866E+00 0.12614466E+04</pdfrwt>
<pdfrwt beam="2">  1       -4 0.25787811E+00 0.12614466E+04</pdfrwt>
<totfact> 0.15098909E+00</totfact>
</mgrwt>
</event>
<event>
 6    2  0.2345636E-005  0.1024595E+04  0.7818608E-02  0.9915873E-01
         -4   -1    0    0    0  501 -0.00000000000E+00  0.00000000000E+00  0.13968833495E+04  0.13968833495E+04  0.00000000000E+00 0. -1.
         21   -1    0    0  501  502  0.00000000000E+00 -0.00000000000E+00 -0.26811851789E+03  0.26811851789E+03  0.00000000000E+00 0. -1.
   -9000010    2    1    2    0  502 -0.12785588455E+02 -0.11580450662E+03  0.75285411102E+03  0.12714500461E+04  0.10179497788E+04 0.  0.
         13    1    3    3    0    0 -0.46552451287E+03  0.14341827127E+03  0.25283265003E+03  0.54882258764E+03  0.10566000000E+00 0. -1.
         -4    1    3    3    0  502  0.45273892441E+03 -0.25922277789E+03  0.50002146099E+03  0.72262745845E+03  0.00000000000E+00 0. -1.
        -13    1    1    2    0    0  0.12785588455E+02  0.11580450662E+03  0.37591072058E+03  0.39355182129E+03  0.10566000000E+00 0.  1.
<mgrwt>
<rscale>  1 0.59498152E+03</rscale>
<asrwt>0</asrwt>
<pdfrwt beam="2">  1       21 0.41249004E-01 0.10245955E+04</pdfrwt>
<pdfrwt beam="1">  1       -4 0.21490513E+00 0.10245955E+04</pdfrwt>
<totfact> 0.23770780E+01</totfact>
</mgrwt>
</event>
<event>
 6    2  0.2345636E-005  0.1108430E+04  0.7818608E-02  0.9423914E-01
         21   -1    0    0  501  502  0.00000000000E+00  0.00000000000E+00  0.92231917078E+03  0.92231917078E+03  0.00000000000E+00 0.  1.
         -4   -1    0    0    0  501 -0.00000000000E+00 -0.00000000000E+00 -0.69783430097E+03  0.69783430097E+03  0.00000000000E+00 0. -1.
   -9000010    2    1    2    0  502 -0.43251135991E+03 -0.21865579084E+03  0.66543081447E+02  0.11104260436E+04  0.99686588130E+03 0.  0.
         13    1    3    3    0    0 -0.21304457756E+03  0.32559352297E+03  0.28705682135E+03  0.48352948625E+03  0.10566000000E+00 0. -1.
         -4    1    3    3    0  502 -0.21946678235E+03 -0.54424931381E+03 -0.22051373990E+03  0.62689655735E+03  0.00000000000E+00 0. -1.
        -13    1    1    2    0    0  0.43251135991E+03  0.21865579084E+03  0.15794178837E+03  0.50972742814E+03  0.10566000000E+00 0.  1.
<mgrwt>
<rscale>  1 0.90133517E+03</rscale>
<asrwt>0</asrwt>
<pdfrwt beam="1">  1       21 0.14189526E+00 0.11084304E+04</pdfrwt>
<pdfrwt beam="2">  1       -4 0.10735912E+00 0.11084304E+04</pdfrwt>
<totfact> 0.85184652E+00</totfact>
</mgrwt>
</event>
<event>
 6    2  0.2345636E-005  0.1094117E+04  0.7818608E-02  0.9456592E-01
         21   -1    0    0  501  502  0.00000000000E+00  0.00000000000E+00  0.32169611458E+04  0.32169611458E+04  0.00000000000E+00 0. -1.
         -4   -1    0    0    0  501 -0.00000000000E+00 -0.00000000000E+00 -0.37079992163E+03  0.37079992163E+03  0.00000000000E+00 0. -1.
   -9000010    2    1    2    0  502  0.21471355624E+03  0.39410835555E+03  0.29331834276E+04  0.31306000650E+04  0.99783186934E+03 0.  0.
         13    1    3    3    0    0  0.49446246890E+03  0.36811081378E+02  0.73861607274E+03  0.88960772419E+03  0.10566000000E+00 0. -1.
         -4    1    3    3    0  502 -0.27974891266E+03  0.35729727418E+03  0.21945673549E+04  0.22409923408E+04  0.00000000000E+00 0. -1.
        -13    1    1    2    0    0 -0.21471355624E+03 -0.39410835555E+03 -0.87022203426E+02  0.45716100250E+03  0.10566000000E+00 0.  1.
<mgrwt>
<rscale>  1 0.87561160E+03</rscale>
<asrwt>0</asrwt>
<pdfrwt beam="1">  1       21 0.49491708E+00 0.10941169E+04</pdfrwt>
<pdfrwt beam="2">  1       -4 0.57046144E-01 0.10941169E+04</pdfrwt>
<totfact> 0.15578720E-01</totfact>
</mgrwt>
</event>
<event>
 6    2  0.2345636E-005  0.1033464E+04  0.7818608E-02  0.9746816E-01
         -4   -1    0    0    0  501 -0.00000000000E+00  0.00000000000E+00  0.12338715677E+04  0.12338715677E+04  0.00000000000E+00 0. -1.
         21   -1    0    0  501  502  0.00000000000E+00 -0.00000000000E+00 -0.48433443266E+03  0.48433443266E+03  0.00000000000E+00 0. -1.
   -9000010    2    1    2    0  502  0.17299082875E+03 -0.94480005968E+02  0.98688869661E+02  0.10381649913E+04  0.10144923645E+04 0.  0.
         13    1    3    3    0    0  0.44196865677E+03 -0.23713126422E+03 -0.26222898377E+03  0.56597842815E+03  0.10566000000E+00 0. -1.
         -4    1    3    3    0  502 -0.26897782802E+03  0.14265125825E+03  0.36091785344E+03  0.47218656310E+03  0.00000000000E+00 0. -1.
        -13    1    1    2    0    0 -0.17299082875E+03  0.94480005968E+02  0.65084826538E+03  0.68004100911E+03  0.10566000000E+00 0.  1.
<mgrwt>
<rscale>  1 0.68296508E+03</rscale>
<asrwt>0</asrwt>
<pdfrwt beam="2">  1       21 0.74512990E-01 0.10334636E+04</pdfrwt>
<pdfrwt beam="1">  1       -4 0.18982639E+00 0.10334636E+04</pdfrwt>
<totfact> 0.94417562E+00</totfact>
</mgrwt>
</event>
<event>
 6    2  0.2345636E-005  0.1039277E+04  0.7818608E-02  0.9632620E-01
         21   -1    0    0  501  502  0.00000000000E+00  0.00000000000E+00  0.81395583969E+03  0.81395583969E+03  0.00000000000E+00 0. -1.
         -4   -1    0    0    0  501 -0.00000000000E+00 -0.00000000000E+00 -0.54369831911E+03  0.54369831911E+03  0.00000000000E+00 0. -1.
   -9000010    2    1    2    0  502  0.23277040091E+03  0.16358068133E+03  0.26745344919E+03  0.10731395321E+04  0.99957811549E+03 0.  0.
         13    1    3    3    0    0  0.42583361048E+03  0.14262138472E+03 -0.25453260590E+03  0.51619955620E+03  0.10566000000E+00 0. -1.
         -4    1    3    3    0  502 -0.19306320957E+03  0.20959296610E+02  0.52198605510E+03  0.55693997587E+03  0.00000000000E+00 0. -1.
        -13    1    1    2    0    0 -0.23277040091E+03 -0.16358068133E+03  0.28040713890E+01  0.28451462673E+03  0.10566000000E+00 0.  1.
<mgrwt>
<rscale>  1 0.75174306E+03</rscale>
<asrwt>0</asrwt>
<pdfrwt beam="1">  1       21 0.12522398E+00 0.10392772E+04</pdfrwt>
<pdfrwt beam="2">  1       -4 0.83645895E-01 0.10392772E+04</pdfrwt>
<totfact> 0.21761961E+01</totfact>
</mgrwt>
</event>
<event>
 6    2  0.2345636E-005  0.9978535E+03  0.7818608E-02  0.9964814E-01
         21   -1    0    0  501  502  0.00000000000E+00  0.00000000000E+00  0.37697177139E+03  0.37697177139E+03  0.00000000000E+00 0. -1.
         -4   -1    0    0    0  501 -0.00000000000E+00 -0.00000000000E+00 -0.92906195971E+03  0.92906195971E+03  0.00000000000E+00 0. -1.
   -9000010    2    1    2    0  502 -0.82652463420E+02  0.69353881975E+02 -0.31638933547E+03  0.10468112517E+04  0.99200312214E+03 0.  0.
         13    1    3    3    0    0 -0.52348829304E+03  0.81314524433E+02 -0.51235638628E+02  0.53223786662E+03  0.10566000000E+00 0. -1.
         -4    1    3    3    0  502  0.44083582962E+03 -0.11960642458E+02 -0.26515369684E+03  0.51457338504E+03  0.00000000000E+00 0. -1.
        -13    1    1    2    0    0  0.82652463420E+02 -0.69353881975E+02 -0.23570085284E+03  0.25922247945E+03  0.10566000000E+00 0.  1.
<mgrwt>
<rscale>  1 0.57220381E+03</rscale>
<asrwt>0</asrwt>
<pdfrwt beam="1">  1       21 0.57995658E-01 0.99785349E+03</pdfrwt>
<pdfrwt beam="2">  1       -4 0.14293261E+00 0.99785349E+03</pdfrwt>
<totfact> 0.36915164E+01</totfact>
</mgrwt>
</event>
<event>
 6    2  0.2345636E-005  0.1049890E+04  0.7818608E-02  0.9594476E-01
         21   -1    0    0  501  502  0.00000000000E+00  0.00000000000E+00  0.14286494354E+04  0.14286494354E+04  0.00000000000E+00 0. -1.
         -4   -1    0    0    0  501 -0.00000000000E+00 -0.00000000000E+00 -0.34024007116E+03  0.34024007116E+03  0.00000000000E+00 0. -1.
   -9000010    2    1    2    0  502 -0.27743708598E+03 -0.14781151536E+03  0.98046408164E+03  0.14365165594E+04  0.10017237291E+04 0.  0.
         13    1    3    3    0    0 -0.19828289486E+03 -0.36226846179E+03 -0.16862577635E+02  0.41332662930E+03  0.10566000000E+00 0. -1.
         -4    1    3    3    0  502 -0.79154191125E+02  0.21445694643E+03  0.99732665928E+03  0.10231899301E+04  0.00000000000E+00 0. -1.
        -13    1    1    2    0    0  0.27743708598E+03  0.14781151536E+03  0.10794528256E+03  0.33237294707E+03  0.10566000000E+00 0.  1.
<mgrwt>
<rscale>  1 0.77662860E+03</rscale>
<asrwt>0</asrwt>
<pdfrwt beam="1">  1       21 0.21979222E+00 0.10498905E+04</pdfrwt>
<pdfrwt beam="2">  1       -4 0.52344627E-01 0.10498905E+04</pdfrwt>
<totfact> 0.11820923E+01</totfact>
</mgrwt>
</event>
<event>
 6    2  0.2345636E-005  0.1002793E+04  0.7818608E-02  0.9916288E-01
         21   -1    0    0  501  502  0.00000000000E+00  0.00000000000E+00  0.21592496757E+04  0.21592496757E+04  0.00000000000E+00 0. -1.
         -4   -1    0    0    0  501 -0.00000000000E+00 -0.00000000000E+00 -0.16394570383E+03  0.16394570383E+03  0.00000000000E+00 0. -1.
   -9000010    2    1    2    0  502  0.49153787873E+01  0.12401096843E+03  0.19469027107E+04  0.21899828633E+04  0.99508386344E+03 0.  0.
         13    1    3    3    0    0  0.34062890260E+03 -0.14077715357E+03  0.26336492928E+03  0.45299818255E+03  0.10566000000E+00 0. -1.
         -4    1    3    3    0  502 -0.33571352381E+03  0.26478812200E+03  0.16835377814E+04  0.17369846807E+04  0.00000000000E+00 0. -1.
        -13    1    1    2    0    0 -0.49153787873E+01 -0.12401096843E+03  0.48401261163E+02  0.13321251625E+03  0.10566000000E+00 0.  1.
<mgrwt>
<rscale>  1 0.59478350E+03</rscale>
<asrwt>0</asrwt>
<pdfrwt beam="1">  1       21 0.33219224E+00 0.10027935E+04</pdfrwt>
<pdfrwt beam="2">  1       -4 0.25222418E-01 0.10027935E+04</pdfrwt>
<totfact> 0.10113592E+01</totfact>
</mgrwt>
</event>
<event>
 6    2  0.2345636E-005  0.1000517E+04  0.7818608E-02  0.1014604E+00
         21   -1    0    0  501  502  0.00000000000E+00  0.00000000000E+00  0.23897055034E+03  0.23897055034E+03  0.00000000000E+00 0. -1.
         -4   -1    0    0    0  501 -0.00000000000E+00 -0.00000000000E+00 -0.12269080966E+04  0.12269080966E+04  0.00000000000E+00 0. -1.
   -9000010    2    1    2    0  502 -0.41945577233E+02 -0.44077139437E+02 -0.84165850682E+03  0.13074495012E+04  0.99866557490E+03 0.  0.
         13    1    3    3    0    0  0.36895848967E+03 -0.22266736135E+03 -0.10227502014E+03  0.44291230715E+03  0.10566000000E+00 0. -1.
         -4    1    3    3    0  502 -0.41090406691E+03  0.17859022192E+03 -0.73938348668E+03  0.86453719408E+03  0.00000000000E+00 0. -1.
        -13    1    1    2    0    0  0.41945577233E+02  0.44077139437E+02 -0.14627903939E+03  0.15842914568E+03  0.10566000000E+00 0.  1.
<mgrwt>
<rscale>  1 0.49685141E+03</rscale>
<asrwt>0</asrwt>
<pdfrwt beam="1">  1       21 0.36764700E-01 0.10005174E+04</pdfrwt>
<pdfrwt beam="2">  1       -4 0.18875509E+00 0.10005174E+04</pdfrwt>
<totfact> 0.45075597E+01</totfact>
</mgrwt>
</event>
<event>
 6    2  0.2345636E-005  0.1024969E+04  0.7818608E-02  0.9828783E-01
         -4   -1    0    0    0  501 -0.00000000000E+00  0.00000000000E+00  0.24029399046E+03  0.24029399046E+03  0.00000000000E+00 0. -1.
         21   -1    0    0  501  502  0.00000000000E+00 -0.00000000000E+00 -0.15802561115E+04  0.15802561115E+04  0.00000000000E+00 0. -1.
   -9000010    2    1    2    0  502 -0.10038524478E+03  0.11712792055E+03 -0.13101322994E+04  0.16634323864E+04  0.10132938937E+04 0.  0.
         13    1    3    3    0    0 -0.49341427268E+03 -0.14922329162E+03 -0.89462724872E+03  0.10325130317E+04  0.10566000000E+00 0. -1.
         -4    1    3    3    0  502  0.39302902790E+03  0.26635121216E+03 -0.41550505068E+03  0.63091935470E+03  0.00000000000E+00 0. -1.
        -13    1    1    2    0    0  0.10038524478E+03 -0.11712792055E+03 -0.29829821669E+02  0.15711771563E+03  0.10566000000E+00 0.  1.
<mgrwt>
<rscale>  1 0.63840500E+03</rscale>
<asrwt>0</asrwt>
<pdfrwt beam="2">  1       21 0.24311631E+00 0.10249686E+04</pdfrwt>
<pdfrwt beam="1">  1       -4 0.36968308E-01 0.10249686E+04</pdfrwt>
<totfact> 0.17184940E+01</totfact>
</mgrwt>
</event>
<event>
 6    2  0.2345636E-005  0.9686332E+03  0.7818608E-02  0.9770846E-01
         -4   -1    0    0    0  501 -0.00000000000E+00  0.00000000000E+00  0.29704010325E+03  0.29704010325E+03  0.00000000000E+00 0. -1.
         21   -1    0    0  501  502  0.00000000000E+00 -0.00000000000E+00 -0.12041388301E+04  0.12041388301E+04  0.00000000000E+00 0. -1.
   -9000010    2    1    2    0  502 -0.10103361617E+02 -0.22084733280E+03 -0.79607601493E+03  0.12537892083E+04  0.94306666525E+03 0.  0.
         13    1    3    3    0    0 -0.19491845281E+03  0.44241225436E+02  0.15267342687E+03  0.25151476242E+03  0.10566000000E+00 0. -1.
         -4    1    3    3    0  502  0.18481509120E+03 -0.26508855824E+03 -0.94874944180E+03  0.10022744459E+04  0.00000000000E+00 0. -1.
        -13    1    1    2    0    0  0.10103361617E+02  0.22084733280E+03 -0.11102271197E+03  0.24738972505E+03  0.10566000000E+00 0.  1.
<mgrwt>
<rscale>  1 0.66950847E+03</rscale>
<asrwt>0</asrwt>
<pdfrwt beam="2">  1       21 0.18525213E+00 0.96863324E+03</pdfrwt>
<pdfrwt beam="1">  1       -4 0.45698478E-01 0.96863324E+03</pdfrwt>
<totfact> 0.27409278E+01</totfact>
</mgrwt>
</event>
<event>
 6    2  0.2345636E-005  0.1201167E+04  0.7818608E-02  0.9264426E-01
         -4   -1    0    0    0  501 -0.00000000000E+00  0.00000000000E+00  0.11077489755E+04  0.11077489755E+04  0.00000000000E+00 0. -1.
         21   -1    0    0  501  502  0.00000000000E+00 -0.00000000000E+00 -0.13771003173E+04  0.13771003173E+04  0.00000000000E+00 0. -1.
   -9000010    2    1    2    0  502  0.15205762732E+03 -0.66101576572E+03 -0.94434607044E+03  0.15279369356E+04  0.99133163661E+03 0.  0.
         13    1    3    3    0    0 -0.38679215896E+03 -0.48043838648E+03 -0.61544561755E+03  0.87132229213E+03  0.10566000000E+00 0. -1.
         -4    1    3    3    0  502  0.53884978628E+03 -0.18057737924E+03 -0.32890045290E+03  0.65661464344E+03  0.00000000000E+00 0. -1.
        -13    1    1    2    0    0 -0.15205762732E+03  0.66101576572E+03  0.67499472866E+03  0.95691235724E+03  0.10566000000E+00 0.  1.
<mgrwt>
<rscale>  1 0.10412493E+04</rscale>
<asrwt>0</asrwt>
<pdfrwt beam="2">  1       21 0.21186159E+00 0.12011668E+04</pdfrwt>
<pdfrwt beam="1">  1       -4 0.17042292E+00 0.12011668E+04</pdfrwt>
<totfact> 0.75837161E-01</totfact>
</mgrwt>
</event>
<event>
 6    2  0.2345636E-005  0.1099707E+04  0.7818608E-02  0.9451304E-01
         21   -1    0    0  501  502  0.00000000000E+00  0.00000000000E+00  0.12680894951E+04  0.12680894951E+04  0.00000000000E+00 0. -1.
         -4   -1    0    0    0  501 -0.00000000000E+00 -0.00000000000E+00 -0.47367201384E+03  0.47367201384E+03  0.00000000000E+00 0. -1.
   -9000010    2    1    2    0  502  0.76735115261E+02 -0.44374488064E+03  0.56142363514E+03  0.12347270520E+04  0.10032729429E+04 0.  0.
         13    1    3    3    0    0 -0.34116907280E+02  0.50830804785E+01 -0.27600899465E+03  0.27815603061E+03  0.10566000000E+00 0. -1.
         -4    1    3    3    0  502  0.11085202254E+03 -0.44882796112E+03  0.83743262980E+03  0.95657102142E+03  0.00000000000E+00 0. -1.
        -13    1    1    2    0    0 -0.76735115261E+02  0.44374488064E+03  0.23299384611E+03  0.50703445691E+03  0.10566000000E+00 0.  1.
<mgrwt>
<rscale>  1 0.87971208E+03</rscale>
<asrwt>0</asrwt>
<pdfrwt beam="1">  1       21 0.19509069E+00 0.10997065E+04</pdfrwt>
<pdfrwt beam="2">  1       -4 0.72872618E-01 0.10997065E+04</pdfrwt>
<totfact> 0.83688167E+00</totfact>
</mgrwt>
</event>
<event>
 6    2  0.2345636E-005  0.1024288E+04  0.7818608E-02  0.9724725E-01
         -4   -1    0    0    0  501 -0.00000000000E+00  0.00000000000E+00  0.84737102332E+03  0.84737102332E+03  0.00000000000E+00 0. -1.
         21   -1    0    0  501  502  0.00000000000E+00 -0.00000000000E+00 -0.92358349448E+03  0.92358349448E+03  0.00000000000E+00 0. -1.
   -9000010    2    1    2    0  502 -0.21586077777E+03 -0.29754447194E+02 -0.61155425371E+03  0.11929648658E+04  0.10008423269E+04 0.  0.
         13    1    3    3    0    0 -0.19607391170E+03  0.36214520834E+03  0.59012030300E+02  0.41602471280E+03  0.10566000000E+00 0. -1.
         -4    1    3    3    0  502 -0.19786866069E+02 -0.39189965554E+03 -0.67056628401E+03  0.77694015299E+03  0.00000000000E+00 0. -1.
        -13    1    1    2    0    0  0.21586077777E+03  0.29754447194E+02  0.53534178255E+03  0.57798965200E+03  0.10566000000E+00 0.  1.
<mgrwt>
<rscale>  1 0.69563575E+03</rscale>
<asrwt>0</asrwt>
<pdfrwt beam="2">  1       21 0.14208977E+00 0.10242883E+04</pdfrwt>
<pdfrwt beam="1">  1       -4 0.13036477E+00 0.10242883E+04</pdfrwt>
<totfact> 0.52653520E+00</totfact>
</mgrwt>
</event>
<event>
 6    2  0.2345636E-005  0.1015992E+04  0.7818608E-02  0.9712829E-01
         21   -1    0    0  501  502  0.00000000000E+00  0.00000000000E+00  0.78172369395E+03  0.78172369395E+03  0.00000000000E+00 0. -1.
         -4   -1    0    0    0  501 -0.00000000000E+00 -0.00000000000E+00 -0.50567795348E+03  0.50567795348E+03  0.00000000000E+00 0. -1.
   -9000010    2    1    2    0  502  0.16983830301E+03 -0.15853779942E+03  0.16285681754E+03  0.10289620482E+04  0.98907091283E+03 0.  0.
         13    1    3    3    0    0  0.57063020231E+03  0.25899823448E+02  0.49006429311E+02  0.57331602971E+03  0.10566000000E+00 0. -1.
         -4    1    3    3    0  502 -0.40079189930E+03 -0.18443762287E+03  0.11385038822E+03  0.45564601850E+03  0.00000000000E+00 0. -1.
        -13    1    1    2    0    0 -0.16983830301E+03  0.15853779942E+03  0.11318892293E+03  0.25843959923E+03  0.10566000000E+00 0.  1.
<mgrwt>
<rscale>  1 0.70258083E+03</rscale>
<asrwt>0</asrwt>
<pdfrwt beam="1">  1       21 0.12026518E+00 0.10159924E+04</pdfrwt>
<pdfrwt beam="2">  1       -4 0.77796608E-01 0.10159924E+04</pdfrwt>
<totfact> 0.28652101E+01</totfact>
</mgrwt>
</event>
<event>
 6    2  0.2345636E-005  0.1005278E+04  0.7818608E-02  0.9769860E-01
         21   -1    0    0  501  502  0.00000000000E+00  0.00000000000E+00  0.33235627188E+03  0.33235627188E+03  0.00000000000E+00 0. -1.
         -4   -1    0    0    0  501 -0.00000000000E+00 -0.00000000000E+00 -0.10942077335E+04  0.10942077335E+04  0.00000000000E+00 0. -1.
   -9000010    2    1    2    0  502 -0.40524154144E+02 -0.19423528575E+03 -0.66868146375E+03  0.12073604174E+04  0.98550227007E+03 0.  0.
         13    1    3    3    0    0 -0.14689693137E+03 -0.49108664252E+03 -0.52613199439E+02  0.51527949583E+03  0.10566000000E+00 0. -1.
         -4    1    3    3    0  502  0.10637277722E+03  0.29685135677E+03 -0.61606826431E+03  0.69208092160E+03  0.00000000000E+00 0. -1.
        -13    1    1    2    0    0  0.40524154144E+02  0.19423528575E+03 -0.93169997865E+02  0.21920358794E+03  0.10566000000E+00 0.  1.
<mgrwt>
<rscale>  1 0.67005404E+03</rscale>
<asrwt>0</asrwt>
<pdfrwt beam="1">  1       21 0.51131734E-01 0.10052782E+04</pdfrwt>
<pdfrwt beam="2">  1       -4 0.16833965E+00 0.10052782E+04</pdfrwt>
<totfact> 0.31147494E+01</totfact>
</mgrwt>
</event>
<event>
 6    2  0.2345636E-005  0.1144469E+04  0.7818608E-02  0.9370102E-01
         21   -1    0    0  501  502  0.00000000000E+00  0.00000000000E+00  0.10964477977E+04  0.10964477977E+04  0.00000000000E+00 0. -1.
         -4   -1    0    0    0  501 -0.00000000000E+00 -0.00000000000E+00 -0.67386417337E+03  0.67386417337E+03  0.00000000000E+00 0. -1.
   -9000010    2    1    2    0  502  0.50368407333E+03  0.17661635641E+03  0.46400859735E+03  0.12349550597E+04  0.10123828514E+04 0.  0.
         13    1    3    3    0    0  0.75291833360E+02  0.35527616178E+03 -0.20778706401E+03  0.41840827720E+03  0.10566000000E+00 0. -1.
         -4    1    3    3    0  502  0.42839223997E+03 -0.17865980537E+03  0.67179566136E+03  0.81654678246E+03  0.00000000000E+00 0. -1.
        -13    1    1    2    0    0 -0.50368407333E+03 -0.17661635641E+03 -0.41424972986E+02  0.53535691144E+03  0.10566000000E+00 0.  1.
<mgrwt>
<rscale>  1 0.94577527E+03</rscale>
<asrwt>0</asrwt>
<pdfrwt beam="1">  1       21 0.16868428E+00 0.11444693E+04</pdfrwt>
<pdfrwt beam="2">  1       -4 0.10367141E+00 0.11444693E+04</pdfrwt>
<totfact> 0.56618952E+00</totfact>
</mgrwt>
</event>
<event>
 6    2  0.2345636E-005  0.9966211E+03  0.7818608E-02  0.9928814E-01
         21   -1    0    0  501  502  0.00000000000E+00  0.00000000000E+00  0.97974228808E+03  0.97974228808E+03  0.00000000000E+00 0. -1.
         -4   -1    0    0    0  501 -0.00000000000E+00 -0.00000000000E+00 -0.33838929147E+03  0.33838929147E+03  0.00000000000E+00 0. -1.
   -9000010    2    1    2    0  502 -0.89399879656E+02  0.82217640231E+02  0.65986304009E+03  0.11952710419E+04  0.98919237410E+03 0.  0.
         13    1    3    3    0    0  0.43856243744E+02  0.52085345324E+03  0.45562955386E+03  0.69340463755E+03  0.10566000000E+00 0. -1.
         -4    1    3    3    0  502 -0.13325612340E+03 -0.43863581300E+03  0.20423348622E+03  0.50186640430E+03  0.00000000000E+00 0. -1.
        -13    1    1    2    0    0  0.89399879656E+02 -0.82217640231E+02 -0.18510043480E+02  0.12286053769E+03  0.10566000000E+00 0.  1.
<mgrwt>
<rscale>  1 0.58884942E+03</rscale>
<asrwt>0</asrwt>
<pdfrwt beam="1">  1       21 0.15072958E+00 0.99662111E+03</pdfrwt>
<pdfrwt beam="2">  1       -4 0.52059891E-01 0.99662111E+03</pdfrwt>
<totfact> 0.37871811E+01</totfact>
</mgrwt>
</event>
<event>
 6    2  0.2345636E-005  0.1038144E+04  0.7818608E-02  0.9625583E-01
         21   -1    0    0  501  502  0.00000000000E+00  0.00000000000E+00  0.16719798330E+03  0.16719798330E+03  0.00000000000E+00 0. -1.
         -4   -1    0    0    0  501 -0.00000000000E+00 -0.00000000000E+00 -0.26710268671E+04  0.26710268671E+04  0.00000000000E+00 0. -1.
   -9000010    2    1    2    0  502 -0.28924564324E+03  0.42511423146E+02 -0.18353868520E+04  0.21086461883E+04  0.99612930258E+03 0.  0.
         13    1    3    3    0    0 -0.46767640879E+03  0.41491543764E+03 -0.11059156498E+04  0.12704036679E+04  0.10566000000E+00 0. -1.
         -4    1    3    3    0  502  0.17843076555E+03 -0.37240401449E+03 -0.72947120222E+03  0.83824252038E+03  0.00000000000E+00 0. -1.
        -13    1    1    2    0    0  0.28924564324E+03 -0.42511423146E+02 -0.66844203172E+03  0.72957866208E+03  0.10566000000E+00 0.  1.
<mgrwt>
<rscale>  1 0.75625841E+03</rscale>
<asrwt>0</asrwt>
<pdfrwt beam="1">  1       21 0.25722768E-01 0.10381444E+04</pdfrwt>
<pdfrwt beam="2">  1       -4 0.41092719E+00 0.10381444E+04</pdfrwt>
<totfact> 0.34490305E+00</totfact>
</mgrwt>
</event>
<event>
 6    2  0.2345636E-005  0.1241118E+04  0.7818608E-02  0.9213555E-01
         21   -1    0    0  501  502  0.00000000000E+00  0.00000000000E+00  0.12875221271E+04  0.12875221271E+04  0.00000000000E+00 0.  1.
         -4   -1    0    0    0  501 -0.00000000000E+00 -0.00000000000E+00 -0.76501398005E+03  0.76501398005E+03  0.00000000000E+00 0. -1.
   -9000010    2    1    2    0  502 -0.74016429166E+03  0.56578756690E+02  0.36513152603E+03  0.12937135018E+04  0.99465032005E+03 0.  0.
         13    1    3    3    0    0 -0.29852663605E+03  0.41918426758E+03 -0.13751327693E+03  0.53267580677E+03  0.10566000000E+00 0. -1.
         -4    1    3    3    0  502 -0.44163765561E+03 -0.36260551089E+03  0.50264480297E+03  0.76103769507E+03  0.00000000000E+00 0. -1.
        -13    1    1    2    0    0  0.74016429166E+03 -0.56578756690E+02  0.15737662104E+03  0.75882260534E+03  0.10566000000E+00 0.  1.
<mgrwt>
<rscale>  1 0.10914607E+04</rscale>
<asrwt>0</asrwt>
<pdfrwt beam="1">  1       21 0.19808033E+00 0.12411179E+04</pdfrwt>
<pdfrwt beam="2">  1       -4 0.11769446E+00 0.12411179E+04</pdfrwt>
<totfact> 0.25063185E+00</totfact>
</mgrwt>
</event>
<event>
 6    2  0.2345636E-005  0.9952167E+03  0.7818608E-02  0.9843504E-01
         21   -1    0    0  501  502  0.00000000000E+00  0.00000000000E+00  0.62710113691E+03  0.62710113691E+03  0.00000000000E+00 0. -1.
         -4   -1    0    0    0  501 -0.00000000000E+00 -0.00000000000E+00 -0.61589486058E+03  0.61589486058E+03  0.00000000000E+00 0. -1.
   -9000010    2    1    2    0  502 -0.49979596056E+02  0.15264310437E+03  0.17848014252E+03  0.10110942191E+04  0.98217029142E+03 0.  0.
         13    1    3    3    0    0 -0.17498821847E+03  0.39508437030E+03 -0.25292801293E+03  0.50068465839E+03  0.10566000000E+00 0. -1.
         -4    1    3    3    0  502  0.12500862241E+03 -0.24244126593E+03  0.43140815545E+03  0.51040956074E+03  0.00000000000E+00 0. -1.
        -13    1    1    2    0    0  0.49979596056E+02 -0.15264310437E+03 -0.16727386619E+03  0.23190177836E+03  0.10566000000E+00 0.  1.
<mgrwt>
<rscale>  1 0.63079214E+03</rscale>
<asrwt>0</asrwt>
<pdfrwt beam="1">  1       21 0.96477098E-01 0.99521674E+03</pdfrwt>
<pdfrwt beam="2">  1       -4 0.94753055E-01 0.99521674E+03</pdfrwt>
<totfact> 0.31617731E+01</totfact>
</mgrwt>
</event>
<event>
 6    2  0.2345636E-005  0.1101885E+04  0.7818608E-02  0.9444830E-01
         -4   -1    0    0    0  501 -0.00000000000E+00  0.00000000000E+00  0.83657998462E+03  0.83657998462E+03  0.00000000000E+00 0. -1.
         21   -1    0    0  501  502  0.00000000000E+00 -0.00000000000E+00 -0.74893066096E+03  0.74893066096E+03  0.00000000000E+00 0.  1.
   -9000010    2    1    2    0  502  0.32225440230E+03  0.32550010474E+03 -0.62050318493E+02  0.11036307726E+04  0.10021738483E+04 0.  0.
         13    1    3    3    0    0  0.39373750536E+03  0.11145014493E+03  0.41071043453E+03  0.57977015284E+03  0.10566000000E+00 0. -1.
         -4    1    3    3    0  502 -0.71483103062E+02  0.21404995980E+03 -0.47276075302E+03  0.52386061974E+03  0.00000000000E+00 0. -1.
        -13    1    1    2    0    0 -0.32225440230E+03 -0.32550010474E+03  0.14969964215E+03  0.48187987301E+03  0.10566000000E+00 0.  1.
<mgrwt>
<rscale>  1 0.88476400E+03</rscale>
<asrwt>0</asrwt>
<pdfrwt beam="2">  1       21 0.11522010E+00 0.11018850E+04</pdfrwt>
<pdfrwt beam="1">  1       -4 0.12870461E+00 0.11018850E+04</pdfrwt>
<totfact> 0.93999766E+00</totfact>
</mgrwt>
</event>
<event>
 6    2  0.2345636E-005  0.1231969E+04  0.7818608E-02  0.9232108E-01
         -4   -1    0    0    0  501 -0.00000000000E+00  0.00000000000E+00  0.86400344731E+03  0.86400344731E+03  0.00000000000E+00 0. -1.
         21   -1    0    0  501  502  0.00000000000E+00 -0.00000000000E+00 -0.11306539147E+04  0.11306539147E+04  0.00000000000E+00 0. -1.
   -9000010    2    1    2    0  502 -0.59554547116E+03 -0.38363975022E+03 -0.35161599051E+03  0.12811638319E+04  0.10079152213E+04 0.  0.
         13    1    3    3    0    0 -0.26430310301E+03  0.18140598705E+03 -0.51453475507E+03  0.60622626777E+03  0.10566000000E+00 0. -1.
         -4    1    3    3    0  502 -0.33124236815E+03 -0.56504573727E+03  0.16291876455E+03  0.67493756416E+03  0.00000000000E+00 0. -1.
        -13    1    1    2    0    0  0.59554547116E+03  0.38363975022E+03  0.84965523130E+02  0.71349353008E+03  0.10566000000E+00 0.  1.
<mgrwt>
<rscale>  1 0.10728078E+04</rscale>
<asrwt>0</asrwt>
<pdfrwt beam="2">  1       21 0.17394676E+00 0.12319687E+04</pdfrwt>
<pdfrwt beam="1">  1       -4 0.13292361E+00 0.12319687E+04</pdfrwt>
<totfact> 0.27411015E+00</totfact>
</mgrwt>
</event>
<event>
 6    2  0.2345636E-005  0.1012755E+04  0.7818608E-02  0.9786109E-01
         21   -1    0    0  501  502  0.00000000000E+00  0.00000000000E+00  0.24375432479E+04  0.24375432479E+04  0.00000000000E+00 0. -1.
         -4   -1    0    0    0  501 -0.00000000000E+00 -0.00000000000E+00 -0.22659499134E+03  0.22659499134E+03  0.00000000000E+00 0. -1.
   -9000010    2    1    2    0  502  0.10362333586E+03 -0.15195774480E+03  0.22576285160E+04  0.24743804734E+04  0.99591327886E+03 0.  0.
         13    1    3    3    0    0 -0.10881803214E+03 -0.12605942208E+02 -0.71902707872E+02  0.13103543209E+03  0.10566000000E+00 0. -1.
         -4    1    3    3    0  502  0.21244136801E+03 -0.13935180259E+03  0.23295312238E+04  0.23433450413E+04  0.00000000000E+00 0. -1.
        -13    1    1    2    0    0 -0.10362333586E+03  0.15195774480E+03 -0.46680259376E+02  0.18975776590E+03  0.10566000000E+00 0.  1.
<mgrwt>
<rscale>  1 0.66113372E+03</rscale>
<asrwt>0</asrwt>
<pdfrwt beam="1">  1       21 0.37500664E+00 0.10127548E+04</pdfrwt>
<pdfrwt beam="2">  1       -4 0.34860770E-01 0.10127548E+04</pdfrwt>
<totfact> 0.28706066E+00</totfact>
</mgrwt>
</event>
<event>
 6    2  0.2345636E-005  0.1088727E+04  0.7818608E-02  0.9538683E-01
         -4   -1    0    0    0  501 -0.00000000000E+00  0.00000000000E+00  0.70451644411E+03  0.70451644411E+03  0.00000000000E+00 0. -1.
         21   -1    0    0  501  502  0.00000000000E+00 -0.00000000000E+00 -0.75307645328E+03  0.75307645328E+03  0.00000000000E+00 0. -1.
   -9000010    2    1    2    0  502  0.34154936304E+03  0.11065149672E+02  0.81911489606E+02  0.10918043955E+04  0.10337064095E+04 0.  0.
         13    1    3    3    0    0 -0.11628726998E+03  0.19910089536E+03  0.42917134445E+03  0.48718779721E+03  0.10566000000E+00 0. -1.
         -4    1    3    3    0  502  0.45783663302E+03 -0.18803574568E+03 -0.34725985484E+03  0.60461659833E+03  0.00000000000E+00 0. -1.
        -13    1    1    2    0    0 -0.34154936304E+03 -0.11065149672E+02 -0.13047149878E+03  0.36578850185E+03  0.10566000000E+00 0.  1.
<mgrwt>
<rscale>  1 0.81491018E+03</rscale>
<asrwt>0</asrwt>
<pdfrwt beam="2">  1       21 0.11585792E+00 0.10887274E+04</pdfrwt>
<pdfrwt beam="1">  1       -4 0.10838715E+00 0.10887274E+04</pdfrwt>
<totfact> 0.14283270E+01</totfact>
</mgrwt>
</event>
<event>
 6    2  0.2345636E-005  0.1017139E+04  0.7818608E-02  0.1025836E+00
         21   -1    0    0  501  502  0.00000000000E+00  0.00000000000E+00  0.10237684087E+04  0.10237684087E+04  0.00000000000E+00 0. -1.
         -4   -1    0    0    0  501 -0.00000000000E+00 -0.00000000000E+00 -0.27605931220E+03  0.27605931220E+03  0.00000000000E+00 0. -1.
   -9000010    2    1    2    0  502  0.15539948534E+02 -0.38184324613E+02  0.74010626007E+03  0.12579069989E+04  0.10163036992E+04 0.  0.
         13    1    3    3    0    0 -0.36834252915E+03 -0.17165991878E+03  0.74815904551E+03  0.85140197030E+03  0.10566000000E+00 0. -1.
         -4    1    3    3    0  502  0.38388247769E+03  0.13347559416E+03 -0.80527854341E+01  0.40650502858E+03  0.00000000000E+00 0. -1.
        -13    1    1    2    0    0 -0.15539948534E+02  0.38184324613E+02  0.76028364090E+01  0.41920721989E+02  0.10566000000E+00 0.  1.
<mgrwt>
<rscale>  1 0.45638035E+03</rscale>
<asrwt>0</asrwt>
<pdfrwt beam="1">  1       21 0.15750283E+00 0.10171395E+04</pdfrwt>
<pdfrwt beam="2">  1       -4 0.42470664E-01 0.10171395E+04</pdfrwt>
<totfact> 0.51117217E+01</totfact>
</mgrwt>
</event>
<event>
 6    2  0.2345636E-005  0.1003760E+04  0.7818608E-02  0.1002794E+00
         21   -1    0    0  501  502  0.00000000000E+00  0.00000000000E+00  0.89524589124E+03  0.89524589124E+03  0.00000000000E+00 0. -1.
         -4   -1    0    0    0  501 -0.00000000000E+00 -0.00000000000E+00 -0.50838887242E+03  0.50838887242E+03  0.00000000000E+00 0. -1.
   -9000010    2    1    2    0  502  0.27847071089E+02 -0.82280313092E+02  0.60281398347E+03  0.11708624907E+04  0.99999438213E+03 0.  0.
         13    1    3    3    0    0 -0.29930436344E+03  0.13761496028E+02  0.74381987462E+03  0.80189805947E+03  0.10566000000E+00 0. -1.
         -4    1    3    3    0  502  0.32715143452E+03 -0.96041809120E+02 -0.14100589115E+03  0.36896443128E+03  0.00000000000E+00 0. -1.
        -13    1    1    2    0    0 -0.27847071089E+02  0.82280313092E+02 -0.21595696466E+03  0.23277227291E+03  0.10566000000E+00 0.  1.
<mgrwt>
<rscale>  1 0.54441939E+03</rscale>
<asrwt>0</asrwt>
<pdfrwt beam="1">  1       21 0.13773014E+00 0.10037601E+04</pdfrwt>
<pdfrwt beam="2">  1       -4 0.78213673E-01 0.10037601E+04</pdfrwt>
<totfact> 0.19782499E+01</totfact>
</mgrwt>
</event>
<event>
 6    2  0.2345636E-005  0.1026238E+04  0.7818608E-02  0.9844997E-01
         -4   -1    0    0    0  501 -0.00000000000E+00  0.00000000000E+00  0.52730198886E+03  0.52730198886E+03  0.00000000000E+00 0. -1.
         21   -1    0    0  501  502  0.00000000000E+00 -0.00000000000E+00 -0.68022371892E+03  0.68022371892E+03  0.00000000000E+00 0. -1.
   -9000010    2    1    2    0  502 -0.98336492890E+02 -0.10761528928E+03 -0.21593893586E+03  0.10487104198E+04  0.10158310904E+04 0.  0.
         13    1    3    3    0    0 -0.20236275368E+03 -0.46849928427E+03 -0.38258720049E+03  0.63782069626E+03  0.10566000000E+00 0. -1.
         -4    1    3    3    0  502  0.10402626079E+03  0.36088399499E+03  0.16664826463E+03  0.41088972350E+03  0.00000000000E+00 0. -1.
        -13    1    1    2    0    0  0.98336492890E+02  0.10761528928E+03  0.63017205804E+02  0.15881528803E+03  0.10566000000E+00 0.  1.
<mgrwt>
<rscale>  1 0.63002638E+03</rscale>
<asrwt>0</asrwt>
<pdfrwt beam="2">  1       21 0.10464980E+00 0.10262378E+04</pdfrwt>
<pdfrwt beam="1">  1       -4 0.81123383E-01 0.10262378E+04</pdfrwt>
<totfact> 0.37058031E+01</totfact>
</mgrwt>
</event>
<event>
 6    2  0.2345636E-005  0.1064579E+04  0.7818608E-02  0.9525531E-01
         21   -1    0    0  501  502  0.00000000000E+00  0.00000000000E+00  0.66803756559E+03  0.66803756559E+03  0.00000000000E+00 0. -1.
         -4   -1    0    0    0  501 -0.00000000000E+00 -0.00000000000E+00 -0.91855960037E+03  0.91855960037E+03  0.00000000000E+00 0. -1.
   -9000010    2    1    2    0  502  0.14923982196E+03 -0.35230005545E+03  0.97959726949E+02  0.10690767287E+04  0.99344908792E+03 0.  0.
         13    1    3    3    0    0 -0.37227567915E+03 -0.15863475072E+03  0.27034977487E+03  0.48666536486E+03  0.10566000000E+00 0. -1.
         -4    1    3    3    0  502  0.52151550110E+03 -0.19366530473E+03 -0.17239004793E+03  0.58241136387E+03  0.00000000000E+00 0. -1.
        -13    1    1    2    0    0 -0.14923982196E+03  0.35230005545E+03 -0.34848176173E+03  0.51752043723E+03  0.10566000000E+00 0.  1.
<mgrwt>
<rscale>  1 0.82427405E+03</rscale>
<asrwt>0</asrwt>
<pdfrwt beam="1">  1       21 0.10277501E+00 0.10645792E+04</pdfrwt>
<pdfrwt beam="2">  1       -4 0.14131686E+00 0.10645792E+04</pdfrwt>
<totfact> 0.98858068E+00</totfact>
</mgrwt>
</event>
<event>
 6    2  0.2345636E-005  0.1008771E+04  0.7818608E-02  0.9961869E-01
         -4   -1    0    0    0  501 -0.00000000000E+00  0.00000000000E+00  0.49780472302E+03  0.49780472302E+03  0.00000000000E+00 0. -1.
         21   -1    0    0  501  502  0.00000000000E+00 -0.00000000000E+00 -0.65725709833E+03  0.65725709833E+03  0.00000000000E+00 0. -1.
   -9000010    2    1    2    0  502 -0.31998618825E+02 -0.10043673575E+03 -0.22141975515E+03  0.10327858351E+04  0.10032489340E+04 0.  0.
         13    1    3    3    0    0 -0.49756043902E+02 -0.33391703572E+03  0.30605010725E+03  0.45567853797E+03  0.10566000000E+00 0. -1.
         -4    1    3    3    0  502  0.17757425078E+02  0.23348029997E+03 -0.52746986240E+03  0.57710729709E+03  0.00000000000E+00 0. -1.
        -13    1    1    2    0    0  0.31998618825E+02  0.10043673575E+03  0.61967379839E+02  0.12227598629E+03  0.10566000000E+00 0.  1.
<mgrwt>
<rscale>  1 0.57354300E+03</rscale>
<asrwt>0</asrwt>
<pdfrwt beam="2">  1       21 0.10111648E+00 0.10087715E+04</pdfrwt>
<pdfrwt beam="1">  1       -4 0.76585343E-01 0.10087715E+04</pdfrwt>
<totfact> 0.46148414E+01</totfact>
</mgrwt>
</event>
<event>
 6    2  0.2345636E-005  0.1104970E+04  0.7818608E-02  0.9425066E-01
         -4   -1    0    0    0  501 -0.00000000000E+00  0.00000000000E+00  0.13912150485E+04  0.13912150485E+04  0.00000000000E+00 0. -1.
         21   -1    0    0  501  502  0.00000000000E+00 -0.00000000000E+00 -0.50131283797E+03  0.50131283797E+03  0.00000000000E+00 0. -1.
   -9000010    2    1    2    0  502  0.19390029405E+03  0.44696034278E+03  0.86747763757E+03  0.14048048660E+04  0.99176024717E+03 0.  0.
         13    1    3    3    0    0 -0.59340881742E+02  0.57679190365E+03  0.10278687382E+03  0.58887638173E+03  0.10566000000E+00 0. -1.
         -4    1    3    3    0  502  0.25324117579E+03 -0.12983156088E+03  0.76469076375E+03  0.81592848429E+03  0.00000000000E+00 0. -1.
        -13    1    1    2    0    0 -0.19390029405E+03 -0.44696034278E+03  0.22424572967E+02  0.48772302046E+03  0.10566000000E+00 0.  1.
<mgrwt>
<rscale>  1 0.90041231E+03</rscale>
<asrwt>0</asrwt>
<pdfrwt beam="2">  1       21 0.77125053E-01 0.11049703E+04</pdfrwt>
<pdfrwt beam="1">  1       -4 0.21403308E+00 0.11049703E+04</pdfrwt>
<totfact> 0.59790663E+00</totfact>
</mgrwt>
</event>
<event>
 6    2  0.2345636E-005  0.8040290E+03  0.7818608E-02  0.9865993E-01
         -4   -1    0    0    0  501 -0.00000000000E+00  0.00000000000E+00  0.13741495166E+04  0.13741495166E+04  0.00000000000E+00 0. -1.
         21   -1    0    0  501  502  0.00000000000E+00 -0.00000000000E+00 -0.84527904511E+03  0.84527904511E+03  0.00000000000E+00 0. -1.
   -9000010    2    1    2    0  502  0.15197972121E+03  0.23890533800E+03 -0.63315686048E+03  0.10234013348E+04  0.75252181753E+03 0.  0.
         13    1    3    3    0    0 -0.28657809343E+02 -0.26612583186E+03 -0.21134948509E+03  0.34104668951E+03  0.10566000000E+00 0. -1.
         -4    1    3    3    0  502  0.18063753055E+03  0.50503116986E+03 -0.42180737539E+03  0.68235464526E+03  0.00000000000E+00 0. -1.
        -13    1    1    2    0    0 -0.15197972121E+03 -0.23890533800E+03  0.11620273319E+04  0.11960272269E+04  0.10566000000E+00 0.  1.
<mgrwt>
<rscale>  1 0.61938078E+03</rscale>
<asrwt>0</asrwt>
<pdfrwt beam="2">  1       21 0.13004293E+00 0.80402903E+03</pdfrwt>
<pdfrwt beam="1">  1       -4 0.21140762E+00 0.80402903E+03</pdfrwt>
<totfact> 0.17813079E+00</totfact>
</mgrwt>
</event>
<event>
 6    2  0.2345636E-005  0.1009972E+04  0.7818608E-02  0.9802084E-01
         21   -1    0    0  501  502  0.00000000000E+00  0.00000000000E+00  0.42299164799E+03  0.42299164799E+03  0.00000000000E+00 0. -1.
         -4   -1    0    0    0  501 -0.00000000000E+00 -0.00000000000E+00 -0.10541332574E+04  0.10541332574E+04  0.00000000000E+00 0. -1.
   -9000010    2    1    2    0  502  0.16298437606E+03  0.66319081047E+02 -0.22532412442E+03  0.10348015286E+04  0.99452557295E+03 0.  0.
         13    1    3    3    0    0  0.27882173628E+02 -0.40094756059E+03  0.14094629826E+03  0.42591340916E+03  0.10566000000E+00 0. -1.
         -4    1    3    3    0  502  0.13510220243E+03  0.46726664164E+03 -0.36627042268E+03  0.60888811946E+03  0.00000000000E+00 0. -1.
        -13    1    1    2    0    0 -0.16298437606E+03 -0.66319081047E+02 -0.40581748496E+03  0.44232337675E+03  0.10566000000E+00 0.  1.
<mgrwt>
<rscale>  1 0.65250800E+03</rscale>
<asrwt>0</asrwt>
<pdfrwt beam="1">  1       21 0.65075638E-01 0.10099719E+04</pdfrwt>
<pdfrwt beam="2">  1       -4 0.16217435E+00 0.10099719E+04</pdfrwt>
<totfact> 0.20252663E+01</totfact>
</mgrwt>
</event>
<event>
 6    2  0.2345636E-005  0.1002877E+04  0.7818608E-02  0.9536499E-01
         -4   -1    0    0    0  501 -0.00000000000E+00  0.00000000000E+00  0.37467617461E+03  0.37467617461E+03  0.00000000000E+00 0. -1.
         21   -1    0    0  501  502  0.00000000000E+00 -0.00000000000E+00 -0.17984153617E+04  0.17984153617E+04  0.00000000000E+00 0. -1.
   -9000010    2    1    2    0  502 -0.37784456550E+03 -0.22651824159E+03 -0.14126145932E+04  0.17324093410E+04  0.90093568390E+03 0.  0.
         13    1    3    3    0    0  0.21737950992E+03 -0.33145389445E+03 -0.61485750959E+03  0.73154993250E+03  0.10566000000E+00 0. -1.
         -4    1    3    3    0  502 -0.59522407542E+03  0.10493565285E+03 -0.79775708359E+03  0.10008594085E+04  0.00000000000E+00 0. -1.
        -13    1    1    2    0    0  0.37784456550E+03  0.22651824159E+03 -0.11124593858E+02  0.44068219525E+03  0.10566000000E+00 0.  1.
<mgrwt>
<rscale>  1 0.81645547E+03</rscale>
<asrwt>0</asrwt>
<pdfrwt beam="2">  1       21 0.27667929E+00 0.10028769E+04</pdfrwt>
<pdfrwt beam="1">  1       -4 0.57642487E-01 0.10028769E+04</pdfrwt>
<totfact> 0.41915419E+00</totfact>
</mgrwt>
</event>
<event>
 6    2  0.2345636E-005  0.9519230E+03  0.7818608E-02  0.1007585E+00
         -4   -1    0    0    0  501 -0.00000000000E+00  0.00000000000E+00  0.25641238205E+03  0.25641238205E+03  0.00000000000E+00 0. -1.
         21   -1    0    0  501  502  0.00000000000E+00 -0.00000000000E+00 -0.10548251658E+04  0.10548251658E+04  0.00000000000E+00 0. -1.
   -9000010    2    1    2    0  502  0.77281488362E+02 -0.41478097762E+02 -0.71938854534E+03  0.11931795009E+04  0.94787371579E+03 0.  0.
         13    1    3    3    0    0  0.42759650389E+03  0.12926095842E+03 -0.66294974356E+03  0.79940574126E+03  0.10566000000E+00 0. -1.
         -4    1    3    3    0  502 -0.35031501553E+03 -0.17073905618E+03 -0.56438801783E+02  0.39377375961E+03  0.00000000000E+00 0. -1.
        -13    1    1    2    0    0 -0.77281488362E+02  0.41478097762E+02 -0.79024238412E+02  0.11805804699E+03  0.10566000000E+00 0.  1.
<mgrwt>
<rscale>  1 0.52446015E+03</rscale>
<asrwt>0</asrwt>
<pdfrwt beam="2">  1       21 0.16228079E+00 0.95192302E+03</pdfrwt>
<pdfrwt beam="1">  1       -4 0.39448059E-01 0.95192302E+03</pdfrwt>
<totfact> 0.54933582E+01</totfact>
</mgrwt>
</event>
<event>
 6    2  0.2345636E-005  0.1016441E+04  0.7818608E-02  0.9603408E-01
         -4   -1    0    0    0  501 -0.00000000000E+00  0.00000000000E+00  0.67547484401E+03  0.67547484401E+03  0.00000000000E+00 0. -1.
         21   -1    0    0  501  502  0.00000000000E+00 -0.00000000000E+00 -0.73779357676E+03  0.73779357676E+03  0.00000000000E+00 0.  1.
   -9000010    2    1    2    0  502 -0.15825194369E+03  0.29638097402E+03  0.13225745126E+03  0.10250091492E+04  0.95930514593E+03 0.  0.
         13    1    3    3    0    0  0.15078716143E+03  0.49165311203E+03 -0.17937648765E+03  0.54464253057E+03  0.10566000000E+00 0. -1.
         -4    1    3    3    0  502 -0.30903910512E+03 -0.19527213801E+03  0.31163393891E+03  0.48036661859E+03  0.00000000000E+00 0. -1.
        -13    1    1    2    0    0  0.15825194369E+03 -0.29638097402E+03 -0.19457618402E+03  0.38825927161E+03  0.10566000000E+00 0.  1.
<mgrwt>
<rscale>  1 0.77071055E+03</rscale>
<asrwt>0</asrwt>
<pdfrwt beam="2">  1       21 0.11350670E+00 0.10164407E+04</pdfrwt>
<pdfrwt beam="1">  1       -4 0.10391921E+00 0.10164407E+04</pdfrwt>
<totfact> 0.16808049E+01</totfact>
</mgrwt>
</event>
<event>
 6    2  0.2345636E-005  0.9769137E+03  0.7818608E-02  0.9952518E-01
         -4   -1    0    0    0  501 -0.00000000000E+00  0.00000000000E+00  0.88278103847E+03  0.88278103847E+03  0.00000000000E+00 0. -1.
         21   -1    0    0  501  502  0.00000000000E+00 -0.00000000000E+00 -0.34169669382E+03  0.34169669382E+03  0.00000000000E+00 0. -1.
   -9000010    2    1    2    0  502  0.11612697423E+03  0.28469507512E+02  0.45846255420E+03  0.10791424013E+04  0.96956919391E+03 0.  0.
         13    1    3    3    0    0 -0.18316196561E+03  0.33921030091E+03  0.51577278245E+03  0.64392042068E+03  0.10566000000E+00 0. -1.
         -4    1    3    3    0  502  0.29928893984E+03 -0.31074079340E+03 -0.57310228250E+02  0.43522198066E+03  0.00000000000E+00 0. -1.
        -13    1    1    2    0    0 -0.11612697423E+03 -0.28469507512E+02  0.82621790448E+02  0.14533533095E+03  0.10566000000E+00 0.  1.
<mgrwt>
<rscale>  1 0.57782186E+03</rscale>
<asrwt>0</asrwt>
<pdfrwt beam="2">  1       21 0.52568722E-01 0.97691372E+03</pdfrwt>
<pdfrwt beam="1">  1       -4 0.13581247E+00 0.97691372E+03</pdfrwt>
<totfact> 0.52473206E+01</totfact>
</mgrwt>
</event>
<event>
 6    2  0.2345636E-005  0.1065361E+04  0.7818608E-02  0.9595279E-01
         21   -1    0    0  501  502  0.00000000000E+00  0.00000000000E+00  0.26747856473E+04  0.26747856473E+04  0.00000000000E+00 0. -1.
         -4   -1    0    0    0  501 -0.00000000000E+00 -0.00000000000E+00 -0.26400201985E+03  0.26400201985E+03  0.00000000000E+00 0. -1.
   -9000010    2    1    2    0  502  0.13422558781E+03 -0.26833239710E+03  0.24141132413E+04  0.26387378692E+04  0.10222406843E+04 0.  0.
         13    1    3    3    0    0 -0.42249188175E+03 -0.27054326674E+03  0.12953619290E+04  0.13891204367E+04  0.10566000000E+00 0. -1.
         -4    1    3    3    0  502  0.55671746957E+03  0.22108696398E+01  0.11187513123E+04  0.12496174325E+04  0.00000000000E+00 0. -1.
        -13    1    1    2    0    0 -0.13422558781E+03  0.26833239710E+03 -0.33296138656E+01  0.30004979795E+03  0.10566000000E+00 0.  1.
<mgrwt>
<rscale>  1 0.77609405E+03</rscale>
<asrwt>0</asrwt>
<pdfrwt beam="1">  1       21 0.41150547E+00 0.10653613E+04</pdfrwt>
<pdfrwt beam="2">  1       -4 0.40615697E-01 0.10653613E+04</pdfrwt>
<totfact> 0.12042559E+00</totfact>
</mgrwt>
</event>
<event>
 6    2  0.2345636E-005  0.1005845E+04  0.7818608E-02  0.1016939E+00
         -4   -1    0    0    0  501 -0.00000000000E+00  0.00000000000E+00  0.38365784926E+03  0.38365784926E+03  0.00000000000E+00 0. -1.
         21   -1    0    0  501  502  0.00000000000E+00 -0.00000000000E+00 -0.97141278655E+03  0.97141278655E+03  0.00000000000E+00 0. -1.
   -9000010    2    1    2    0  502  0.52647528109E+02  0.18380619554E+02 -0.70291745903E+03  0.12271174140E+04  0.10042980554E+04 0.  0.
         13    1    3    3    0    0 -0.10022604819E+03  0.25214446638E+03 -0.86336680814E+03  0.90499964046E+03  0.10566000000E+00 0. -1.
         -4    1    3    3    0  502  0.15287357630E+03 -0.23376384682E+03  0.16044934911E+03  0.32211777356E+03  0.00000000000E+00 0. -1.
        -13    1    1    2    0    0 -0.52647528109E+02 -0.18380619554E+02  0.11516252174E+03  0.12795322180E+03  0.10566000000E+00 0.  1.
<mgrwt>
<rscale>  1 0.48807518E+03</rscale>
<asrwt>0</asrwt>
<pdfrwt beam="2">  1       21 0.14944812E+00 0.10058450E+04</pdfrwt>
<pdfrwt beam="1">  1       -4 0.59024285E-01 0.10058450E+04</pdfrwt>
<totfact> 0.29587819E+01</totfact>
</mgrwt>
</event>
<event>
 6    2  0.2345636E-005  0.1046866E+04  0.7818608E-02  0.9754140E-01
         21   -1    0    0  501  502  0.00000000000E+00  0.00000000000E+00  0.19323166927E+03  0.19323166927E+03  0.00000000000E+00 0. -1.
         -4   -1    0    0    0  501 -0.00000000000E+00 -0.00000000000E+00 -0.22176050709E+04  0.22176050709E+04  0.00000000000E+00 0. -1.
   -9000010    2    1    2    0  502 -0.10833676166E+02 -0.18476583121E+03 -0.13319999152E+04  0.16941521255E+04  0.10303746258E+04 0.  0.
         13    1    3    3    0    0 -0.84585085685E+02  0.13891963885E+03  0.12163061027E+03  0.20309436058E+03  0.10566000000E+00 0. -1.
         -4    1    3    3    0  502  0.73751409519E+02 -0.32368547007E+03 -0.14536305254E+04  0.14910577649E+04  0.00000000000E+00 0. -1.
        -13    1    1    2    0    0  0.10833676166E+02  0.18476583121E+03 -0.69237348644E+03  0.71668461461E+03  0.10566000000E+00 0.  1.
<mgrwt>
<rscale>  1 0.67882833E+03</rscale>
<asrwt>0</asrwt>
<pdfrwt beam="1">  1       21 0.29727951E-01 0.10468656E+04</pdfrwt>
<pdfrwt beam="2">  1       -4 0.34116999E+00 0.10468656E+04</pdfrwt>
<totfact> 0.75720794E+00</totfact>
</mgrwt>
</event>
<event>
 6    2  0.2345636E-005  0.1279119E+04  0.7818608E-02  0.9166903E-01
         21   -1    0    0  501  502  0.00000000000E+00  0.00000000000E+00  0.82051918960E+03  0.82051918960E+03  0.00000000000E+00 0.  1.
         -4   -1    0    0    0  501 -0.00000000000E+00 -0.00000000000E+00 -0.13327913087E+04  0.13327913087E+04  0.00000000000E+00 0. -1.
   -9000010    2    1    2    0  502 -0.31839170259E+03 -0.74207663301E+03 -0.24219941539E+03  0.13018468867E+04  0.99201499684E+03 0.  0.
         13    1    3    3    0    0  0.49227304152E+02  0.15567995312E+03  0.18072376765E+03  0.24355834339E+03  0.10566000000E+00 0. -1.
         -4    1    3    3    0  502 -0.36761900674E+03 -0.89775658613E+03 -0.42292318304E+03  0.10582885433E+04  0.00000000000E+00 0. -1.
        -13    1    1    2    0    0  0.31839170259E+03  0.74207663301E+03 -0.27007270375E+03  0.85146361168E+03  0.10566000000E+00 0.  1.
<mgrwt>
<rscale>  1 0.11401667E+04</rscale>
<asrwt>0</asrwt>
<pdfrwt beam="1">  1       21 0.12623372E+00 0.12791187E+04</pdfrwt>
<pdfrwt beam="2">  1       -4 0.20504481E+00 0.12791187E+04</pdfrwt>
<totfact> 0.19723993E+00</totfact>
</mgrwt>
</event>
<event>
 6    2  0.2345636E-005  0.1029452E+04  0.7818608E-02  0.9666298E-01
         -4   -1    0    0    0  501 -0.00000000000E+00  0.00000000000E+00  0.18260592203E+04  0.18260592203E+04  0.00000000000E+00 0. -1.
         21   -1    0    0  501  502  0.00000000000E+00 -0.00000000000E+00 -0.25236158522E+03  0.25236158522E+03  0.00000000000E+00 0. -1.
   -9000010    2    1    2    0  502  0.26030152079E+03 -0.20997832814E+02  0.94411932941E+03  0.13968295461E+04  0.99577792812E+03 0.  0.
         13    1    3    3    0    0  0.24420593501E+03 -0.49635110234E+03  0.53239454319E+03  0.76775316103E+03  0.10566000000E+00 0. -1.
         -4    1    3    3    0  502  0.16095585783E+02  0.47535326953E+03  0.41172478621E+03  0.62907638512E+03  0.00000000000E+00 0. -1.
        -13    1    1    2    0    0 -0.26030152079E+03  0.20997832814E+02  0.62957830564E+03  0.68159125934E+03  0.10566000000E+00 0.  1.
<mgrwt>
<rscale>  1 0.73059363E+03</rscale>
<asrwt>0</asrwt>
<pdfrwt beam="2">  1       21 0.38824860E-01 0.10294520E+04</pdfrwt>
<pdfrwt beam="1">  1       -4 0.28093218E+00 0.10294520E+04</pdfrwt>
<totfact> 0.10454833E+01</totfact>
</mgrwt>
</event>
<event>
 6    2  0.2345636E-005  0.9234865E+03  0.7818608E-02  0.9982605E-01
         21   -1    0    0  501  502  0.00000000000E+00  0.00000000000E+00  0.14557098564E+04  0.14557098564E+04  0.00000000000E+00 0. -1.
         -4   -1    0    0    0  501 -0.00000000000E+00 -0.00000000000E+00 -0.19102435435E+03  0.19102435435E+03  0.00000000000E+00 0. -1.
   -9000010    2    1    2    0  502  0.10534355833E+03  0.73857794349E+02  0.11451250679E+04  0.14711012194E+04  0.91448080217E+03 0.  0.
         13    1    3    3    0    0 -0.23292318540E+03  0.13665978719E+03 -0.55313037308E+01  0.27011055925E+03  0.10566000000E+00 0. -1.
         -4    1    3    3    0  502  0.33826674374E+03 -0.62801992839E+02  0.11506563716E+04  0.12009906601E+04  0.00000000000E+00 0. -1.
        -13    1    1    2    0    0 -0.10534355833E+03 -0.73857794349E+02  0.11956043413E+03  0.17563299133E+03  0.10566000000E+00 0.  1.
<mgrwt>
<rscale>  1 0.56419607E+03</rscale>
<asrwt>0</asrwt>
<pdfrwt beam="1">  1       21 0.22395536E+00 0.92348653E+03</pdfrwt>
<pdfrwt beam="2">  1       -4 0.29388363E-01 0.92348653E+03</pdfrwt>
<totfact> 0.36528024E+01</totfact>
</mgrwt>
</event>
<event>
 6    2  0.2345636E-005  0.1451619E+04  0.7818608E-02  0.9000898E-01
         -4   -1    0    0    0  501 -0.00000000000E+00  0.00000000000E+00  0.18850892713E+04  0.18850892713E+04  0.00000000000E+00 0. -1.
         21   -1    0    0  501  502  0.00000000000E+00 -0.00000000000E+00 -0.92777217277E+03  0.92777217277E+03  0.00000000000E+00 0.  1.
   -9000010    2    1    2    0  502  0.82517192561E+03 -0.63946466030E+03  0.10086623494E+04  0.17676532808E+04  0.10086499033E+04 0.  0.
         13    1    3    3    0    0  0.63009907052E+03 -0.54652584320E+02  0.95951454172E+03  0.11492083843E+04  0.10566000000E+00 0. -1.
         -4    1    3    3    0  502  0.19507285509E+03 -0.58481207598E+03  0.49147807662E+02  0.61844489650E+03  0.00000000000E+00 0. -1.
        -13    1    1    2    0    0 -0.82517192561E+03  0.63946466030E+03 -0.51345250845E+02  0.10452081633E+04  0.10566000000E+00 0.  1.
<mgrwt>
<rscale>  1 0.13367775E+04</rscale>
<asrwt>0</asrwt>
<pdfrwt beam="2">  1       21 0.14273418E+00 0.14516192E+04</pdfrwt>
<pdfrwt beam="1">  1       -4 0.29001373E+00 0.14516192E+04</pdfrwt>
<totfact> 0.40306039E-01</totfact>
</mgrwt>
</event>
<event>
 6    2  0.2345636E-005  0.1031508E+04  0.7818608E-02  0.9724628E-01
         21   -1    0    0  501  502  0.00000000000E+00  0.00000000000E+00  0.33318559753E+04  0.33318559753E+04  0.00000000000E+00 0. -1.
         -4   -1    0    0    0  501 -0.00000000000E+00 -0.00000000000E+00 -0.19477137603E+03  0.19477137603E+03  0.00000000000E+00 0. -1.
   -9000010    2    1    2    0  502  0.15989045189E+03 -0.14137336289E+03  0.31482306492E+04  0.33129087748E+04  0.10091862788E+04 0.  0.
         13    1    3    3    0    0 -0.60094598523E+02 -0.96364088408E+01 -0.65241569343E+02  0.89222725140E+02  0.10566000000E+00 0. -1.
         -4    1    3    3    0  502  0.21998505041E+03 -0.13173695405E+03  0.32134722186E+04  0.32236860497E+04  0.00000000000E+00 0. -1.
        -13    1    1    2    0    0 -0.15989045189E+03  0.14137336289E+03 -0.11146049968E+02  0.21371857648E+03  0.10566000000E+00 0.  1.
<mgrwt>
<rscale>  1 0.69569214E+03</rscale>
<asrwt>0</asrwt>
<pdfrwt beam="1">  1       21 0.51259319E+00 0.10315078E+04</pdfrwt>
<pdfrwt beam="2">  1       -4 0.29964829E-01 0.10315078E+04</pdfrwt>
<totfact> 0.44192444E-01</totfact>
</mgrwt>
</event>
<event>
 6    2  0.2345636E-005  0.1015150E+04  0.7818608E-02  0.9805136E-01
         21   -1    0    0  501  502  0.00000000000E+00  0.00000000000E+00  0.91487121506E+03  0.91487121506E+03  0.00000000000E+00 0.  1.
         -4   -1    0    0    0  501 -0.00000000000E+00 -0.00000000000E+00 -0.38702361724E+03  0.38702361724E+03  0.00000000000E+00 0. -1.
   -9000010    2    1    2    0  502 -0.82145860071E+02 -0.15060937490E+03  0.41588363492E+03  0.10970361828E+04  0.10005488806E+04 0.  0.
         13    1    3    3    0    0 -0.20969140854E+03  0.18491637667E+03  0.62283065847E+03  0.68270241941E+03  0.10566000000E+00 0. -1.
         -4    1    3    3    0  502  0.12754554847E+03 -0.33552575157E+03 -0.20694702355E+03  0.41433376336E+03  0.00000000000E+00 0. -1.
        -13    1    1    2    0    0  0.82145860071E+02  0.15060937490E+03  0.11196396290E+03  0.20485864953E+03  0.10566000000E+00 0.  1.
<mgrwt>
<rscale>  1 0.65087643E+03</rscale>
<asrwt>0</asrwt>
<pdfrwt beam="1">  1       21 0.14074942E+00 0.10151498E+04</pdfrwt>
<pdfrwt beam="2">  1       -4 0.59542095E-01 0.10151498E+04</pdfrwt>
<totfact> 0.34220183E+01</totfact>
</mgrwt>
</event>
<event>
 6    2  0.2345636E-005  0.1007275E+04  0.7818608E-02  0.9725551E-01
         -4   -1    0    0    0  501 -0.00000000000E+00  0.00000000000E+00  0.39435148774E+03  0.39435148774E+03  0.00000000000E+00 0. -1.
         21   -1    0    0  501  502  0.00000000000E+00 -0.00000000000E+00 -0.96887590274E+03  0.96887590274E+03  0.00000000000E+00 0. -1.
   -9000010    2    1    2    0  502 -0.11401053563E+03 -0.19802507654E+03 -0.48280354352E+03  0.11170058183E+04  0.98101498629E+03 0.  0.
         13    1    3    3    0    0 -0.21293119467E+03 -0.47554667058E+03 -0.60465268074E+03  0.79817867990E+03  0.10566000000E+00 0. -1.
         -4    1    3    3    0  502  0.98920659038E+02  0.27752159404E+03  0.12184913722E+03  0.31882713841E+03  0.00000000000E+00 0. -1.
        -13    1    1    2    0    0  0.11401053563E+03  0.19802507654E+03 -0.91720871472E+02  0.24622157217E+03  0.10566000000E+00 0.  1.
<mgrwt>
<rscale>  1 0.69515662E+03</rscale>
<asrwt>0</asrwt>
<pdfrwt beam="2">  1       21 0.14905783E+00 0.10072749E+04</pdfrwt>
<pdfrwt beam="1">  1       -4 0.60669460E-01 0.10072749E+04</pdfrwt>
<totfact> 0.28068213E+01</totfact>
</mgrwt>
</event>
<event>
 6    2  0.2345636E-005  0.9955079E+03  0.7818608E-02  0.1047508E+00
         21   -1    0    0  501  502  0.00000000000E+00  0.00000000000E+00  0.59762640291E+03  0.59762640291E+03  0.00000000000E+00 0. -1.
         -4   -1    0    0    0  501 -0.00000000000E+00 -0.00000000000E+00 -0.47422296436E+03  0.47422296436E+03  0.00000000000E+00 0. -1.
   -9000010    2    1    2    0  502  0.72453959022E+01 -0.22153285927E+02  0.17908357671E+03  0.10114875185E+04  0.99523505202E+03 0.  0.
         13    1    3    3    0    0  0.22199941325E+03  0.20582021520E+03  0.48626166939E+03  0.57279675519E+03  0.10566000000E+00 0. -1.
         -4    1    3    3    0  502 -0.21475401735E+03 -0.22797350112E+03 -0.30717809268E+03  0.43869076330E+03  0.00000000000E+00 0. -1.
        -13    1    1    2    0    0 -0.72453959022E+01  0.22153285927E+02 -0.55680138155E+02  0.60361848780E+02  0.10566000000E+00 0.  1.
<mgrwt>
<rscale>  1 0.38941351E+03</rscale>
<asrwt>0</asrwt>
<pdfrwt beam="1">  1       21 0.91942524E-01 0.99550795E+03</pdfrwt>
<pdfrwt beam="2">  1       -4 0.72957379E-01 0.99550795E+03</pdfrwt>
<totfact> 0.65132641E+01</totfact>
</mgrwt>
</event>
<event>
 6    2  0.2345636E-005  0.1143707E+04  0.7818608E-02  0.9904204E-01
         21   -1    0    0  501  502  0.00000000000E+00  0.00000000000E+00  0.13771843391E+04  0.13771843391E+04  0.00000000000E+00 0. -1.
         -4   -1    0    0    0  501 -0.00000000000E+00 -0.00000000000E+00 -0.31339405824E+03  0.31339405824E+03  0.00000000000E+00 0. -1.
   -9000010    2    1    2    0  502 -0.57566198973E+02  0.65182855708E+02  0.11085424672E+04  0.15927753234E+04  0.11403964912E+04 0.  0.
         13    1    3    3    0    0 -0.53143257582E+03  0.22291696128E+03  0.85917895253E+03  0.10345535452E+04  0.10566000000E+00 0. -1.
         -4    1    3    3    0  502  0.47386637685E+03 -0.15773410558E+03  0.24936351467E+03  0.55822177817E+03  0.00000000000E+00 0. -1.
        -13    1    1    2    0    0  0.57566198973E+02 -0.65182855708E+02 -0.44752186299E+02  0.97803074006E+02  0.10566000000E+00 0.  1.
<mgrwt>
<rscale>  1 0.60057979E+03</rscale>
<asrwt>0</asrwt>
<pdfrwt beam="1">  1       21 0.21187451E+00 0.11437075E+04</pdfrwt>
<pdfrwt beam="2">  1       -4 0.48214471E-01 0.11437075E+04</pdfrwt>
<totfact> 0.15708559E+01</totfact>
</mgrwt>
</event>
<event>
 6    2  0.2345636E-005  0.1001086E+04  0.7818608E-02  0.9764243E-01
         21   -1    0    0  501  502  0.00000000000E+00  0.00000000000E+00  0.66132633497E+03  0.66132633497E+03  0.00000000000E+00 0. -1.
         -4   -1    0    0    0  501 -0.00000000000E+00 -0.00000000000E+00 -0.68587783291E+03  0.68587783291E+03  0.00000000000E+00 0. -1.
   -9000010    2    1    2    0  502  0.14907675866E+03 -0.14026135139E+03  0.22337080897E+03  0.10257036110E+04  0.97993686153E+03 0.  0.
         13    1    3    3    0    0 -0.37998655347E+02 -0.52667171706E+03  0.27141282202E+03  0.59371030518E+03  0.10566000000E+00 0. -1.
         -4    1    3    3    0  502  0.18707541401E+03  0.38641036567E+03 -0.48042013050E+02  0.43199330578E+03  0.00000000000E+00 0. -1.
        -13    1    1    2    0    0 -0.14907675866E+03  0.14026135139E+03 -0.24792230691E+03  0.32150055691E+03  0.10566000000E+00 0.  1.
<mgrwt>
<rscale>  1 0.67317289E+03</rscale>
<asrwt>0</asrwt>
<pdfrwt beam="1">  1       21 0.10174251E+00 0.10010861E+04</pdfrwt>
<pdfrwt beam="2">  1       -4 0.10551967E+00 0.10010861E+04</pdfrwt>
<totfact> 0.21374116E+01</totfact>
</mgrwt>
</event>
<event>
 6    2  0.2345636E-005  0.1013784E+04  0.7818608E-02  0.9790973E-01
         21   -1    0    0  501  502  0.00000000000E+00  0.00000000000E+00  0.12185638335E+04  0.12185638335E+04  0.00000000000E+00 0. -1.
         -4   -1    0    0    0  501 -0.00000000000E+00 -0.00000000000E+00 -0.29500336786E+03  0.29500336786E+03  0.00000000000E+00 0. -1.
   -9000010    2    1    2    0  502  0.52706597526E+01 -0.18037718490E+03  0.83050175697E+03  0.13105311378E+04  0.99759460008E+03 0.  0.
         13    1    3    3    0    0  0.45621885331E+03 -0.16553618853E+03  0.17739246813E+03  0.51672620482E+03  0.10566000000E+00 0. -1.
         -4    1    3    3    0  502 -0.45094819356E+03 -0.14840996367E+02  0.65310928885E+03  0.79380493298E+03  0.00000000000E+00 0. -1.
        -13    1    1    2    0    0 -0.52706597526E+01  0.18037718490E+03  0.93058708665E+02  0.20303606357E+03  0.10566000000E+00 0.  1.
<mgrwt>
<rscale>  1 0.65849266E+03</rscale>
<asrwt>0</asrwt>
<pdfrwt beam="1">  1       21 0.18747136E+00 0.10137843E+04</pdfrwt>
<pdfrwt beam="2">  1       -4 0.45385134E-01 0.10137843E+04</pdfrwt>
<totfact> 0.26670630E+01</totfact>
</mgrwt>
</event>
<event>
 6    2  0.2345636E-005  0.1018819E+04  0.7818608E-02  0.9564172E-01
         21   -1    0    0  501  502  0.00000000000E+00  0.00000000000E+00  0.64306234915E+03  0.64306234915E+03  0.00000000000E+00 0. -1.
         -4   -1    0    0    0  501 -0.00000000000E+00 -0.00000000000E+00 -0.77343661756E+03  0.77343661756E+03  0.00000000000E+00 0. -1.
   -9000010    2    1    2    0  502 -0.18524335084E+03  0.33385363403E+03 -0.16902672487E+03  0.10327446553E+04  0.94457299417E+03 0.  0.
         13    1    3    3    0    0 -0.49390004645E+03  0.13481852965E+02 -0.28845740244E+03  0.57212472454E+03  0.10566000000E+00 0. -1.
         -4    1    3    3    0  502  0.30865669561E+03  0.32037178106E+03  0.11943067757E+03  0.46061993074E+03  0.00000000000E+00 0. -1.
        -13    1    1    2    0    0  0.18524335084E+03 -0.33385363403E+03  0.38652456449E+02  0.38375431143E+03  0.10566000000E+00 0.  1.
<mgrwt>
<rscale>  1 0.79713614E+03</rscale>
<asrwt>0</asrwt>
<pdfrwt beam="1">  1       21 0.98932670E-01 0.10188187E+04</pdfrwt>
<pdfrwt beam="2">  1       -4 0.11899025E+00 0.10188187E+04</pdfrwt>
<totfact> 0.16999674E+01</totfact>
</mgrwt>
</event>
<event>
 6    2  0.2345636E-005  0.8197364E+03  0.7818608E-02  0.9822826E-01
         -4   -1    0    0    0  501 -0.00000000000E+00  0.00000000000E+00  0.15150156406E+03  0.15150156406E+03  0.00000000000E+00 0. -1.
         21   -1    0    0  501  502  0.00000000000E+00 -0.00000000000E+00 -0.21182034022E+04  0.21182034022E+04  0.00000000000E+00 0. -1.
   -9000010    2    1    2    0  502  0.28568984599E+03  0.11368314286E+03 -0.15276886707E+04  0.17337244467E+04  0.75988501578E+03 0.  0.
         13    1    3    3    0    0  0.30547167212E+03  0.32966004457E+03 -0.45578757605E+03  0.64010234580E+03  0.10566000000E+00 0. -1.
         -4    1    3    3    0  502 -0.19781826128E+02 -0.21597690172E+03 -0.10719010947E+04  0.10936221009E+04  0.00000000000E+00 0. -1.
        -13    1    1    2    0    0 -0.28568984599E+03 -0.11368314286E+03 -0.43901316740E+03  0.53598051960E+03  0.10566000000E+00 0.  1.
<mgrwt>
<rscale>  1 0.64151835E+03</rscale>
<asrwt>0</asrwt>
<pdfrwt beam="2">  1       21 0.32587745E+00 0.81973641E+03</pdfrwt>
<pdfrwt beam="1">  1       -4 0.23307933E-01 0.81973641E+03</pdfrwt>
<totfact> 0.13333475E+01</totfact>
</mgrwt>
</event>
<event>
 6    2  0.2345636E-005  0.1002956E+04  0.7818608E-02  0.9671522E-01
         21   -1    0    0  501  502  0.00000000000E+00  0.00000000000E+00  0.82762775488E+03  0.82762775488E+03  0.00000000000E+00 0.  1.
         -4   -1    0    0    0  501 -0.00000000000E+00 -0.00000000000E+00 -0.50228248786E+03  0.50228248786E+03  0.00000000000E+00 0. -1.
   -9000010    2    1    2    0  502 -0.18227839257E+03  0.20918492253E+03  0.18840819927E+03  0.10204986788E+04  0.96381334277E+03 0.  0.
         13    1    3    3    0    0  0.36349556439E+03  0.46754355467E+02  0.25603193562E+03  0.44706527298E+03  0.10566000000E+00 0. -1.
         -4    1    3    3    0  502 -0.54577395696E+03  0.16243056706E+03 -0.67623736344E+02  0.57343340583E+03  0.00000000000E+00 0. -1.
        -13    1    1    2    0    0  0.18227839257E+03 -0.20918492253E+03  0.13693706775E+03  0.30941156394E+03  0.10566000000E+00 0.  1.
<mgrwt>
<rscale>  1 0.72737977E+03</rscale>
<asrwt>0</asrwt>
<pdfrwt beam="1">  1       21 0.12732735E+00 0.10029556E+04</pdfrwt>
<pdfrwt beam="2">  1       -4 0.77274229E-01 0.10029556E+04</pdfrwt>
<totfact> 0.25081184E+01</totfact>
</mgrwt>
</event>
<event>
 6    2  0.2345636E-005  0.1074116E+04  0.7818608E-02  0.9500332E-01
         21   -1    0    0  501  502  0.00000000000E+00  0.00000000000E+00  0.64859313909E+03  0.64859313909E+03  0.00000000000E+00 0. -1.
         -4   -1    0    0    0  501 -0.00000000000E+00 -0.00000000000E+00 -0.85229462364E+03  0.85229462364E+03  0.00000000000E+00 0. -1.
   -9000010    2    1    2    0  502  0.25028064184E+03  0.32062155518E+03 -0.20826552732E+03  0.10941207250E+04  0.99412627453E+03 0.  0.
         13    1    3    3    0    0  0.53296926752E+03  0.43755298593E+03 -0.33050481679E+03  0.76468444518E+03  0.10566000000E+00 0. -1.
         -4    1    3    3    0  502 -0.28268862568E+03 -0.11693143075E+03  0.12223928947E+03  0.32943627984E+03  0.00000000000E+00 0. -1.
        -13    1    1    2    0    0 -0.25028064184E+03 -0.32062155518E+03  0.45640427719E+01  0.40676703772E+03  0.10566000000E+00 0.  1.
<mgrwt>
<rscale>  1 0.84259351E+03</rscale>
<asrwt>0</asrwt>
<pdfrwt beam="1">  1       21 0.99783560E-01 0.10741162E+04</pdfrwt>
<pdfrwt beam="2">  1       -4 0.13112225E+00 0.10741162E+04</pdfrwt>
<totfact> 0.12923810E+01</totfact>
</mgrwt>
</event>
<event>
 6    2  0.2345636E-005  0.1042617E+04  0.7818608E-02  0.9620091E-01
         21   -1    0    0  501  502  0.00000000000E+00  0.00000000000E+00  0.81010511230E+03  0.81010511230E+03  0.00000000000E+00 0. -1.
         -4   -1    0    0    0  501 -0.00000000000E+00 -0.00000000000E+00 -0.55140370399E+03  0.55140370399E+03  0.00000000000E+00 0. -1.
   -9000010    2    1    2    0  502 -0.16218450620E+03  0.24529119236E+03  0.20540282200E+03  0.10626571247E+04  0.10002890894E+04 0.  0.
         13    1    3    3    0    0  0.61974895446E+02  0.45786658972E+03 -0.23996099326E+03  0.52063806152E+03  0.10566000000E+00 0. -1.
         -4    1    3    3    0  502 -0.22415940164E+03 -0.21257539737E+03  0.44536381526E+03  0.54201906318E+03  0.00000000000E+00 0. -1.
        -13    1    1    2    0    0  0.16218450620E+03 -0.24529119236E+03  0.53298586312E+02  0.29885169159E+03  0.10566000000E+00 0.  1.
<mgrwt>
<rscale>  1 0.75980602E+03</rscale>
<asrwt>0</asrwt>
<pdfrwt beam="1">  1       21 0.12463156E+00 0.10426168E+04</pdfrwt>
<pdfrwt beam="2">  1       -4 0.84831339E-01 0.10426168E+04</pdfrwt>
<totfact> 0.21319852E+01</totfact>
</mgrwt>
</event>
<event>
 6    2  0.2345636E-005  0.1092315E+04  0.7818608E-02  0.9469769E-01
         21   -1    0    0  501  502  0.00000000000E+00  0.00000000000E+00  0.48967462250E+03  0.48967462250E+03  0.00000000000E+00 0. -1.
         -4   -1    0    0    0  501 -0.00000000000E+00 -0.00000000000E+00 -0.12114719958E+04  0.12114719958E+04  0.00000000000E+00 0. -1.
   -9000010    2    1    2    0  502  0.30690764547E+03  0.30195637420E+03 -0.39851885124E+03  0.11627425240E+04  0.10038839313E+04 0.  0.
         13    1    3    3    0    0  0.54846437567E+03  0.49592744544E+03 -0.42318613105E+03  0.85196462086E+03  0.10566000000E+00 0. -1.
         -4    1    3    3    0  502 -0.24155673020E+03 -0.19397107124E+03  0.24667279805E+02  0.31077790313E+03  0.00000000000E+00 0. -1.
        -13    1    1    2    0    0 -0.30690764547E+03 -0.30195637420E+03 -0.32327852205E+03  0.53840409430E+03  0.10566000000E+00 0.  1.
<mgrwt>
<rscale>  1 0.86549778E+03</rscale>
<asrwt>0</asrwt>
<pdfrwt beam="1">  1       21 0.75334558E-01 0.10923154E+04</pdfrwt>
<pdfrwt beam="2">  1       -4 0.18638030E+00 0.10923154E+04</pdfrwt>
<totfact> 0.96539368E+00</totfact>
</mgrwt>
</event>
<event>
 6    2  0.2345636E-005  0.1000770E+04  0.7818608E-02  0.1014686E+00
         21   -1    0    0  501  502  0.00000000000E+00  0.00000000000E+00  0.11239553780E+04  0.11239553780E+04  0.00000000000E+00 0. -1.
         -4   -1    0    0    0  501 -0.00000000000E+00 -0.00000000000E+00 -0.31598466494E+03  0.31598466494E+03  0.00000000000E+00 0. -1.
   -9000010    2    1    2    0  502  0.31420786499E+02 -0.51874448210E+02  0.88908386682E+03  0.13386603359E+04  0.99893100284E+03 0.  0.
         13    1    3    3    0    0  0.94421158008E+02  0.73545574623E+02 -0.20404605307E+03  0.23655677873E+03  0.10566000000E+00 0. -1.
         -4    1    3    3    0  502 -0.63000371508E+02 -0.12542002283E+03  0.10931299199E+04  0.11021035572E+04  0.00000000000E+00 0. -1.
        -13    1    1    2    0    0 -0.31420786499E+02  0.51874448210E+02 -0.81113153715E+02  0.10127970710E+03  0.10566000000E+00 0.  1.
<mgrwt>
<rscale>  1 0.49654175E+03</rscale>
<asrwt>0</asrwt>
<pdfrwt beam="1">  1       21 0.17291621E+00 0.10007704E+04</pdfrwt>
<pdfrwt beam="2">  1       -4 0.48613026E-01 0.10007704E+04</pdfrwt>
<totfact> 0.29505904E+01</totfact>
</mgrwt>
</event>
<event>
 6    2  0.2345636E-005  0.1016985E+04  0.7818608E-02  0.9693202E-01
         21   -1    0    0  501  502  0.00000000000E+00  0.00000000000E+00  0.31052977291E+03  0.31052977291E+03  0.00000000000E+00 0. -1.
         -4   -1    0    0    0  501 -0.00000000000E+00 -0.00000000000E+00 -0.16278417774E+04  0.16278417774E+04  0.00000000000E+00 0. -1.
   -9000010    2    1    2    0  502  0.24453940989E+03 -0.37546649211E+02 -0.60273960285E+03  0.11821817579E+04  0.98643266668E+03 0.  0.
         13    1    3    3    0    0 -0.58867628151E+02 -0.45639939298E+03 -0.12203475715E+03  0.47608643824E+03  0.10566000000E+00 0. -1.
         -4    1    3    3    0  502  0.30340703804E+03  0.41885274377E+03 -0.48070484570E+03  0.70609531962E+03  0.00000000000E+00 0. -1.
        -13    1    1    2    0    0 -0.24453940989E+03  0.37546649211E+02 -0.71457240164E+03  0.75618979245E+03  0.10566000000E+00 0.  1.
<mgrwt>
<rscale>  1 0.71423003E+03</rscale>
<asrwt>0</asrwt>
<pdfrwt beam="1">  1       21 0.47773810E-01 0.10169851E+04</pdfrwt>
<pdfrwt beam="2">  1       -4 0.25043720E+00 0.10169851E+04</pdfrwt>
<totfact> 0.10405638E+01</totfact>
</mgrwt>
</event>
<event>
 6    2  0.2345636E-005  0.8356844E+03  0.7818608E-02  0.1016380E+00
         21   -1    0    0  501  502  0.00000000000E+00  0.00000000000E+00  0.48864778793E+03  0.48864778793E+03  0.00000000000E+00 0. -1.
         -4   -1    0    0    0  501 -0.00000000000E+00 -0.00000000000E+00 -0.57430288997E+03  0.57430288997E+03  0.00000000000E+00 0. -1.
   -9000010    2    1    2    0  502 -0.83966146002E+02 -0.52267059932E+02  0.11080567200E+03  0.84299839643E+03  0.82981096655E+03 0.  0.
         13    1    3    3    0    0 -0.11151726000E+03 -0.19600027074E+03 -0.31803680568E+03  0.38987129458E+03  0.10566000000E+00 0. -1.
         -4    1    3    3    0  502  0.27551113995E+02  0.14373321081E+03  0.42884247767E+03  0.45312710185E+03  0.00000000000E+00 0. -1.
        -13    1    1    2    0    0  0.83966146002E+02  0.52267059932E+02 -0.19646077404E+03  0.21995228148E+03  0.10566000000E+00 0.  1.
<mgrwt>
<rscale>  1 0.49015803E+03</rscale>
<asrwt>0</asrwt>
<pdfrwt beam="1">  1       21 0.75176583E-01 0.83568439E+03</pdfrwt>
<pdfrwt beam="2">  1       -4 0.88354291E-01 0.83568439E+03</pdfrwt>
<totfact> 0.68501248E+01</totfact>
</mgrwt>
</event>
<event>
 6    2  0.2345636E-005  0.9699011E+03  0.7818608E-02  0.9930744E-01
         21   -1    0    0  501  502  0.00000000000E+00  0.00000000000E+00  0.45552026074E+03  0.45552026074E+03  0.00000000000E+00 0. -1.
         -4   -1    0    0    0  501 -0.00000000000E+00 -0.00000000000E+00 -0.70870082026E+03  0.70870082026E+03  0.00000000000E+00 0. -1.
   -9000010    2    1    2    0  502 -0.11547491759E+03 -0.61784166054E+02 -0.11976428759E+03  0.97726747031E+03  0.96101846193E+03 0.  0.
         13    1    3    3    0    0 -0.72770219301E+02 -0.33876369436E+03  0.30951685749E+03  0.46460417742E+03  0.10566000000E+00 0. -1.
         -4    1    3    3    0  502 -0.42704698293E+02  0.27697952831E+03 -0.42928114508E+03  0.51266329289E+03  0.00000000000E+00 0. -1.
        -13    1    1    2    0    0  0.11547491759E+03  0.61784166054E+02 -0.13341627193E+03  0.18695361069E+03  0.10566000000E+00 0.  1.
<mgrwt>
<rscale>  1 0.58794156E+03</rscale>
<asrwt>0</asrwt>
<pdfrwt beam="1">  1       21 0.70080041E-01 0.96990114E+03</pdfrwt>
<pdfrwt beam="2">  1       -4 0.10903089E+00 0.96990114E+03</pdfrwt>
<totfact> 0.48089171E+01</totfact>
</mgrwt>
</event>
<event>
 6    2  0.2345636E-005  0.1018177E+04  0.7818608E-02  0.9865773E-01
         -4   -1    0    0    0  501 -0.00000000000E+00  0.00000000000E+00  0.47517599002E+03  0.47517599002E+03  0.00000000000E+00 0. -1.
         21   -1    0    0  501  502  0.00000000000E+00 -0.00000000000E+00 -0.74695175234E+03  0.74695175234E+03  0.00000000000E+00 0. -1.
   -9000010    2    1    2    0  502  0.13923496646E+03  0.90882737965E+01 -0.33088467769E+03  0.10705927707E+04  0.10085708890E+04 0.  0.
         13    1    3    3    0    0  0.56489115410E+03  0.81185531897E+02 -0.28062326168E+03  0.63595796460E+03  0.10566000000E+00 0. -1.
         -4    1    3    3    0  502 -0.42565618765E+03 -0.72097258101E+02 -0.50261416011E+02  0.43463480607E+03  0.00000000000E+00 0. -1.
        -13    1    1    2    0    0 -0.13923496646E+03 -0.90882737965E+01  0.59108915371E+02  0.15153497169E+03  0.10566000000E+00 0.  1.
<mgrwt>
<rscale>  1 0.61949149E+03</rscale>
<asrwt>0</asrwt>
<pdfrwt beam="2">  1       21 0.11491565E+00 0.10181769E+04</pdfrwt>
<pdfrwt beam="1">  1       -4 0.73103999E-01 0.10181769E+04</pdfrwt>
<totfact> 0.37098857E+01</totfact>
</mgrwt>
</event>
<event>
 6    2  0.2345636E-005  0.1178570E+04  0.7818608E-02  0.9349697E-01
         21   -1    0    0  501  502  0.00000000000E+00  0.00000000000E+00  0.46745139407E+03  0.46745139407E+03  0.00000000000E+00 0. -1.
         -4   -1    0    0    0  501 -0.00000000000E+00 -0.00000000000E+00 -0.22239822308E+04  0.22239822308E+04  0.00000000000E+00 0. -1.
   -9000010    2    1    2    0  502  0.51566171795E+03 -0.10414040310E+03 -0.41343040859E+03  0.12489805053E+04  0.10546446648E+04 0.  0.
         13    1    3    3    0    0 -0.14781156997E+03 -0.12490489684E+03  0.24621269759E+03  0.31316161497E+03  0.10566000000E+00 0. -1.
         -4    1    3    3    0  502  0.66347328792E+03  0.20764493740E+02 -0.65964310617E+03  0.93581889033E+03  0.00000000000E+00 0. -1.
        -13    1    1    2    0    0 -0.51566171795E+03  0.10414040310E+03 -0.13431004282E+04  0.14424531196E+04  0.10566000000E+00 0.  1.
<mgrwt>
<rscale>  1 0.96333640E+03</rscale>
<asrwt>0</asrwt>
<pdfrwt beam="1">  1       21 0.71915596E-01 0.11785702E+04</pdfrwt>
<pdfrwt beam="2">  1       -4 0.34215113E+00 0.11785702E+04</pdfrwt>
<totfact> 0.10976238E+00</totfact>
</mgrwt>
</event>
<event>
 6    2  0.2345636E-005  0.1023544E+04  0.7818608E-02  0.9768994E-01
         21   -1    0    0  501  502  0.00000000000E+00  0.00000000000E+00  0.12995622876E+04  0.12995622876E+04  0.00000000000E+00 0. -1.
         -4   -1    0    0    0  501 -0.00000000000E+00 -0.00000000000E+00 -0.29819653229E+03  0.29819653229E+03  0.00000000000E+00 0. -1.
   -9000010    2    1    2    0  502 -0.13872646976E+03 -0.12765507770E+03  0.96304337096E+03  0.14053803684E+04  0.10060321036E+04 0.  0.
         13    1    3    3    0    0  0.23079735939E+03 -0.41393663630E+03  0.20848004334E+03  0.51775949977E+03  0.10566000000E+00 0. -1.
         -4    1    3    3    0  502 -0.36952382915E+03  0.28628155860E+03  0.75456332763E+03  0.88762086867E+03  0.00000000000E+00 0. -1.
        -13    1    1    2    0    0  0.13872646976E+03  0.12765507770E+03  0.38322384351E+02  0.19237845144E+03  0.10566000000E+00 0.  1.
<mgrwt>
<rscale>  1 0.67053391E+03</rscale>
<asrwt>0</asrwt>
<pdfrwt beam="1">  1       21 0.19993266E+00 0.10235436E+04</pdfrwt>
<pdfrwt beam="2">  1       -4 0.45876390E-01 0.10235436E+04</pdfrwt>
<totfact> 0.21315177E+01</totfact>
</mgrwt>
</event>
<event>
 6    2  0.2345636E-005  0.1036279E+04  0.7818608E-02  0.9622649E-01
         -4   -1    0    0    0  501 -0.00000000000E+00  0.00000000000E+00  0.88301311266E+03  0.88301311266E+03  0.00000000000E+00 0. -1.
         21   -1    0    0  501  502  0.00000000000E+00 -0.00000000000E+00 -0.52996118733E+03  0.52996118733E+03  0.00000000000E+00 0. -1.
   -9000010    2    1    2    0  502 -0.19429598969E+03 -0.22447984127E+03  0.13591223336E+03  0.10451539801E+04  0.99284066000E+03 0.  0.
         13    1    3    3    0    0  0.13404624233E+03 -0.54901251312E+03  0.14484825628E+03  0.58340737324E+03  0.10566000000E+00 0. -1.
         -4    1    3    3    0  502 -0.32834223202E+03  0.32453267185E+03 -0.89360229148E+01  0.46174660684E+03  0.00000000000E+00 0. -1.
        -13    1    1    2    0    0  0.19429598969E+03  0.22447984127E+03  0.21713969197E+03  0.36782031991E+03  0.10566000000E+00 0.  1.
<mgrwt>
<rscale>  1 0.75815073E+03</rscale>
<asrwt>0</asrwt>
<pdfrwt beam="2">  1       21 0.81532491E-01 0.10362793E+04</pdfrwt>
<pdfrwt beam="1">  1       -4 0.13584817E+00 0.10362793E+04</pdfrwt>
<totfact> 0.19295900E+01</totfact>
</mgrwt>
</event>
<event>
 6    2  0.2345636E-005  0.1042823E+04  0.7818608E-02  0.9605605E-01
         21   -1    0    0  501  502  0.00000000000E+00  0.00000000000E+00  0.11053975067E+04  0.11053975067E+04  0.00000000000E+00 0. -1.
         -4   -1    0    0    0  501 -0.00000000000E+00 -0.00000000000E+00 -0.42796382482E+03  0.42796382482E+03  0.00000000000E+00 0. -1.
   -9000010    2    1    2    0  502 -0.27483820579E+03  0.14077291032E+03  0.63686320218E+03  0.12219146641E+04  0.99605605086E+03 0.  0.
         13    1    3    3    0    0  0.37665124191E+03  0.52837421121E+02  0.29234925208E+03  0.47971454789E+03  0.10566000000E+00 0. -1.
         -4    1    3    3    0  502 -0.65148944770E+03  0.87935489203E+02  0.34451395010E+03  0.74220011623E+03  0.00000000000E+00 0. -1.
        -13    1    1    2    0    0  0.27483820579E+03 -0.14077291032E+03  0.40570479688E+02  0.31144666739E+03  0.10566000000E+00 0.  1.
<mgrwt>
<rscale>  1 0.76926313E+03</rscale>
<asrwt>0</asrwt>
<pdfrwt beam="1">  1       21 0.17006115E+00 0.10428234E+04</pdfrwt>
<pdfrwt beam="2">  1       -4 0.65840589E-01 0.10428234E+04</pdfrwt>
<totfact> 0.16030144E+01</totfact>
</mgrwt>
</event>
<event>
 6    2  0.2345636E-005  0.1006719E+04  0.7818608E-02  0.9854841E-01
         -4   -1    0    0    0  501 -0.00000000000E+00  0.00000000000E+00  0.33248526381E+03  0.33248526381E+03  0.00000000000E+00 0. -1.
         21   -1    0    0  501  502  0.00000000000E+00 -0.00000000000E+00 -0.10223879116E+04  0.10223879116E+04  0.00000000000E+00 0. -1.
   -9000010    2    1    2    0  502 -0.68068818374E+02  0.13317198657E+03 -0.65578073132E+03  0.12014702472E+04  0.99554720894E+03 0.  0.
         13    1    3    3    0    0 -0.24201857538E+03 -0.37237031248E+03 -0.43929708875E+03  0.62467158074E+03  0.10566000000E+00 0. -1.
         -4    1    3    3    0  502  0.17394975700E+03  0.50554229905E+03 -0.21648364257E+03  0.57679866643E+03  0.00000000000E+00 0. -1.
        -13    1    1    2    0    0  0.68068818374E+02 -0.13317198657E+03 -0.34121916470E+02  0.15340292823E+03  0.10566000000E+00 0.  1.
<mgrwt>
<rscale>  1 0.62500695E+03</rscale>
<asrwt>0</asrwt>
<pdfrwt beam="2">  1       21 0.15729045E+00 0.10067186E+04</pdfrwt>
<pdfrwt beam="1">  1       -4 0.51151580E-01 0.10067186E+04</pdfrwt>
<totfact> 0.34836335E+01</totfact>
</mgrwt>
</event>
<event>
 6    2  0.2345636E-005  0.1002114E+04  0.7818608E-02  0.1015656E+00
         -4   -1    0    0    0  501 -0.00000000000E+00  0.00000000000E+00  0.16514847536E+04  0.16514847536E+04  0.00000000000E+00 0. -1.
         21   -1    0    0  501  502  0.00000000000E+00 -0.00000000000E+00 -0.17929400549E+03  0.17929400549E+03  0.00000000000E+00 0. -1.
   -9000010    2    1    2    0  502 -0.66538632418E+01 -0.58261055676E+02  0.12560649349E+04  0.16068390288E+04  0.10003968809E+04 0.  0.
         13    1    3    3    0    0  0.17111427278E+03 -0.65371703557E+02  0.13786626042E+04  0.13907782502E+04  0.10566000000E+00 0. -1.
         -4    1    3    3    0  502 -0.17776813602E+03  0.71106478804E+01 -0.12259766932E+03  0.21606077853E+03  0.00000000000E+00 0. -1.
        -13    1    1    2    0    0  0.66538632418E+01  0.58261055676E+02  0.21612581328E+03  0.22393973036E+03  0.10566000000E+00 0.  1.
<mgrwt>
<rscale>  1 0.49287425E+03</rscale>
<asrwt>0</asrwt>
<pdfrwt beam="2">  1       21 0.27583694E-01 0.10021140E+04</pdfrwt>
<pdfrwt beam="1">  1       -4 0.25407457E+00 0.10021140E+04</pdfrwt>
<totfact> 0.30832762E+01</totfact>
</mgrwt>
</event>
<event>
 6    2  0.2345636E-005  0.1071875E+04  0.7818608E-02  0.9525319E-01
         21   -1    0    0  501  502  0.00000000000E+00  0.00000000000E+00  0.12729854895E+04  0.12729854895E+04  0.00000000000E+00 0. -1.
         -4   -1    0    0    0  501 -0.00000000000E+00 -0.00000000000E+00 -0.57962524720E+03  0.57962524720E+03  0.00000000000E+00 0. -1.
   -9000010    2    1    2    0  502  0.29496177656E+02 -0.37396283964E+03  0.92152204554E+03  0.14135480423E+04  0.10040901143E+04 0.  0.
         13    1    3    3    0    0 -0.39787879133E+03 -0.20190310992E+02  0.81171981005E+02  0.40657604813E+03  0.10566000000E+00 0. -1.
         -4    1    3    3    0  502  0.42737496899E+03 -0.35377252865E+03  0.84035006454E+03  0.10069719942E+04  0.00000000000E+00 0. -1.
        -13    1    1    2    0    0 -0.29496177656E+02  0.37396283964E+03 -0.22816180326E+03  0.43906269434E+03  0.10566000000E+00 0.  1.
<mgrwt>
<rscale>  1 0.82442621E+03</rscale>
<asrwt>0</asrwt>
<pdfrwt beam="1">  1       21 0.19584392E+00 0.10718746E+04</pdfrwt>
<pdfrwt beam="2">  1       -4 0.89173115E-01 0.10718746E+04</pdfrwt>
<totfact> 0.52109600E+00</totfact>
</mgrwt>
</event>
<event>
 6    2  0.2345636E-005  0.1026534E+04  0.7818608E-02  0.9764933E-01
         21   -1    0    0  501  502  0.00000000000E+00  0.00000000000E+00  0.28371447366E+04  0.28371447366E+04  0.00000000000E+00 0. -1.
         -4   -1    0    0    0  501 -0.00000000000E+00 -0.00000000000E+00 -0.17238592380E+03  0.17238592380E+03  0.00000000000E+00 0. -1.
   -9000010    2    1    2    0  502 -0.22443154712E+02  0.18807201268E+03  0.26213951871E+04  0.28152237064E+04  0.10089088231E+04 0.  0.
         13    1    3    3    0    0 -0.43611491234E+03  0.32702044105E+03  0.18535043621E+04  0.19319981928E+04  0.10566000000E+00 0. -1.
         -4    1    3    3    0  502  0.41367175763E+03 -0.13894842837E+03  0.76789082500E+03  0.88322551363E+03  0.00000000000E+00 0. -1.
        -13    1    1    2    0    0  0.22443154712E+02 -0.18807201268E+03  0.43363625687E+02  0.19430695392E+03  0.10566000000E+00 0.  1.
<mgrwt>
<rscale>  1 0.67278861E+03</rscale>
<asrwt>0</asrwt>
<pdfrwt beam="1">  1       21 0.43648377E+00 0.10265339E+04</pdfrwt>
<pdfrwt beam="2">  1       -4 0.26520914E-01 0.10265339E+04</pdfrwt>
<totfact> 0.19227724E+00</totfact>
</mgrwt>
</event>
<event>
 6    2  0.2345636E-005  0.1042580E+04  0.7818608E-02  0.9659112E-01
         21   -1    0    0  501  502  0.00000000000E+00  0.00000000000E+00  0.45054708619E+03  0.45054708619E+03  0.00000000000E+00 0. -1.
         -4   -1    0    0    0  501 -0.00000000000E+00 -0.00000000000E+00 -0.94988066536E+03  0.94988066536E+03  0.00000000000E+00 0. -1.
   -9000010    2    1    2    0  502 -0.20363744034E+03  0.15774146197E+03 -0.46119952850E+03  0.11400342168E+04  0.10102585979E+04 0.  0.
         13    1    3    3    0    0 -0.50536351224E+03 -0.35334644423E+02  0.57301436034E+02  0.50982769867E+03  0.10566000000E+00 0. -1.
         -4    1    3    3    0  502  0.30172607189E+03  0.19307610639E+03 -0.51850096453E+03  0.63020651817E+03  0.00000000000E+00 0. -1.
        -13    1    1    2    0    0  0.20363744034E+03 -0.15774146197E+03 -0.38134050672E+02  0.26039353471E+03  0.10566000000E+00 0.  1.
<mgrwt>
<rscale>  1 0.73504290E+03</rscale>
<asrwt>0</asrwt>
<pdfrwt beam="1">  1       21 0.69314938E-01 0.10425800E+04</pdfrwt>
<pdfrwt beam="2">  1       -4 0.14613548E+00 0.10425800E+04</pdfrwt>
<totfact> 0.23202153E+01</totfact>
</mgrwt>
</event>
<event>
 6    2  0.2345636E-005  0.1034596E+04  0.7818608E-02  0.9646802E-01
         -4   -1    0    0    0  501 -0.00000000000E+00  0.00000000000E+00  0.15438779962E+04  0.15438779962E+04  0.00000000000E+00 0. -1.
         21   -1    0    0  501  502  0.00000000000E+00 -0.00000000000E+00 -0.29264441696E+03  0.29264441696E+03  0.00000000000E+00 0.  1.
   -9000010    2    1    2    0  502  0.20845674338E+03  0.17908378926E+03  0.79847963125E+03  0.13068891759E+04  0.99742888422E+03 0.  0.
         13    1    3    3    0    0 -0.20827780271E+03  0.46362199669E+03  0.26739377349E+03  0.57430343912E+03  0.10566000000E+00 0. -1.
         -4    1    3    3    0  502  0.41673454610E+03 -0.28453820742E+03  0.53108585776E+03  0.73258573676E+03  0.00000000000E+00 0. -1.
        -13    1    1    2    0    0 -0.20845674338E+03 -0.17908378926E+03  0.45275394795E+03  0.52963323724E+03  0.10566000000E+00 0.  1.
<mgrwt>
<rscale>  1 0.74274496E+03</rscale>
<asrwt>0</asrwt>
<pdfrwt beam="2">  1       21 0.45022219E-01 0.10345963E+04</pdfrwt>
<pdfrwt beam="1">  1       -4 0.23751969E+00 0.10345963E+04</pdfrwt>
<totfact> 0.14185474E+01</totfact>
</mgrwt>
</event>
<event>
 6    2  0.2345636E-005  0.1030808E+04  0.7818608E-02  0.9780256E-01
         21   -1    0    0  501  502  0.00000000000E+00  0.00000000000E+00  0.51183568950E+03  0.51183568950E+03  0.00000000000E+00 0. -1.
         -4   -1    0    0    0  501 -0.00000000000E+00 -0.00000000000E+00 -0.10080097151E+04  0.10080097151E+04  0.00000000000E+00 0. -1.
   -9000010    2    1    2    0  502  0.14969644181E+03 -0.95989637901E+02 -0.41511407928E+02  0.10316434563E+04  0.10153531349E+04 0.  0.
         13    1    3    3    0    0  0.85796019219E+02 -0.81259589000E+02 -0.52784396076E+03  0.54090972981E+03  0.10566000000E+00 0. -1.
         -4    1    3    3    0  502  0.63900422592E+02 -0.14730048901E+02  0.48633255284E+03  0.49073372647E+03  0.00000000000E+00 0. -1.
        -13    1    1    2    0    0 -0.14969644181E+03  0.95989637901E+02 -0.45466261769E+03  0.48820194834E+03  0.10566000000E+00 0.  1.
<mgrwt>
<rscale>  1 0.66432987E+03</rscale>
<asrwt>0</asrwt>
<pdfrwt beam="1">  1       21 0.78743953E-01 0.10308079E+04</pdfrwt>
<pdfrwt beam="2">  1       -4 0.15507842E+00 0.10308079E+04</pdfrwt>
<totfact> 0.14733358E+01</totfact>
</mgrwt>
</event>
<event>
 6    2  0.2345636E-005  0.1140664E+04  0.7818608E-02  0.9362400E-01
         21   -1    0    0  501  502  0.00000000000E+00  0.00000000000E+00  0.14899098443E+04  0.14899098443E+04  0.00000000000E+00 0.  1.
         -4   -1    0    0    0  501 -0.00000000000E+00 -0.00000000000E+00 -0.59237961194E+03  0.59237961194E+03  0.00000000000E+00 0. -1.
   -9000010    2    1    2    0  502 -0.34818393184E+03 -0.43126371411E+03  0.14821713524E+03  0.11502537433E+04  0.99694278338E+03 0.  0.
         13    1    3    3    0    0 -0.26618183655E+03 -0.72505511239E+03 -0.69515584209E+02  0.77549346466E+03  0.10566000000E+00 0. -1.
         -4    1    3    3    0  502 -0.82002095295E+02  0.29379139828E+03  0.21773271945E+03  0.37476027866E+03  0.00000000000E+00 0. -1.
        -13    1    1    2    0    0  0.34818393184E+03  0.43126371411E+03  0.74931309717E+03  0.93203571297E+03  0.10566000000E+00 0.  1.
<mgrwt>
<rscale>  1 0.95235693E+03</rscale>
<asrwt>0</asrwt>
<pdfrwt beam="1">  1       21 0.22921690E+00 0.11406644E+04</pdfrwt>
<pdfrwt beam="2">  1       -4 0.91135326E-01 0.11406644E+04</pdfrwt>
<totfact> 0.29231605E+00</totfact>
</mgrwt>
</event>
<event>
 6    2  0.2345636E-005  0.1012680E+04  0.7818608E-02  0.9849003E-01
         21   -1    0    0  501  502  0.00000000000E+00  0.00000000000E+00  0.91184549155E+03  0.91184549155E+03  0.00000000000E+00 0. -1.
         -4   -1    0    0    0  501 -0.00000000000E+00 -0.00000000000E+00 -0.51533354854E+03  0.51533354854E+03  0.00000000000E+00 0. -1.
   -9000010    2    1    2    0  502  0.13638734821E+03 -0.61829510698E+02  0.59805641914E+03  0.11760922340E+04  0.10015473356E+04 0.  0.
         13    1    3    3    0    0  0.67972959592E+02 -0.13925360122E+03 -0.26494240527E+03  0.30693057515E+03  0.10566000000E+00 0. -1.
         -4    1    3    3    0  502  0.68414388620E+02  0.77424090524E+02  0.86299882441E+03  0.86916165890E+03  0.00000000000E+00 0. -1.
        -13    1    1    2    0    0 -0.13638734821E+03  0.61829510698E+02 -0.20154447612E+03  0.25108680604E+03  0.10566000000E+00 0.  1.
<mgrwt>
<rscale>  1 0.62797797E+03</rscale>
<asrwt>0</asrwt>
<pdfrwt beam="1">  1       21 0.14028392E+00 0.10126803E+04</pdfrwt>
<pdfrwt beam="2">  1       -4 0.79282085E-01 0.10126803E+04</pdfrwt>
<totfact> 0.18224031E+01</totfact>
</mgrwt>
</event>
<event>
 6    2  0.2345636E-005  0.1020483E+04  0.7818608E-02  0.9777828E-01
         21   -1    0    0  501  502  0.00000000000E+00  0.00000000000E+00  0.81133509901E+03  0.81133509901E+03  0.00000000000E+00 0. -1.
         -4   -1    0    0    0  501 -0.00000000000E+00 -0.00000000000E+00 -0.45171614566E+03  0.45171614566E+03  0.00000000000E+00 0. -1.
   -9000010    2    1    2    0  502 -0.14861588754E+03  0.10976228683E+03  0.25970688012E+03  0.10530110695E+04  0.10036185567E+04 0.  0.
         13    1    3    3    0    0  0.32215288205E+03  0.19506152294E+03 -0.16696636580E+03  0.41195783233E+03  0.10566000000E+00 0. -1.
         -4    1    3    3    0  502 -0.47076876959E+03 -0.85299236112E+02  0.42667324593E+03  0.64105323718E+03  0.00000000000E+00 0. -1.
        -13    1    1    2    0    0  0.14861588754E+03 -0.10976228683E+03  0.99912073234E+02  0.21004017516E+03  0.10566000000E+00 0.  1.
<mgrwt>
<rscale>  1 0.66566138E+03</rscale>
<asrwt>0</asrwt>
<pdfrwt beam="1">  1       21 0.12482078E+00 0.10204826E+04</pdfrwt>
<pdfrwt beam="2">  1       -4 0.69494792E-01 0.10204826E+04</pdfrwt>
<totfact> 0.33534729E+01</totfact>
</mgrwt>
</event>
<event>
 6    2  0.2345636E-005  0.1050965E+04  0.7818608E-02  0.9669020E-01
         21   -1    0    0  501  502  0.00000000000E+00  0.00000000000E+00  0.37652003912E+03  0.37652003912E+03  0.00000000000E+00 0. -1.
         -4   -1    0    0    0  501 -0.00000000000E+00 -0.00000000000E+00 -0.11166135514E+04  0.11166135514E+04  0.00000000000E+00 0. -1.
   -9000010    2    1    2    0  502 -0.23930222249E+03  0.43313870777E+02 -0.63740504761E+03  0.12291514377E+04  0.10224414002E+04 0.  0.
         13    1    3    3    0    0 -0.28475256025E+02 -0.12311952830E+03 -0.86677565007E+03  0.87593909445E+03  0.10566000000E+00 0. -1.
         -4    1    3    3    0  502 -0.21082696647E+03  0.16643339908E+03  0.22937060246E+03  0.35321234321E+03  0.00000000000E+00 0. -1.
        -13    1    1    2    0    0  0.23930222249E+03 -0.43313870777E+02 -0.10268846468E+03  0.26398215287E+03  0.10566000000E+00 0.  1.
<mgrwt>
<rscale>  1 0.72891690E+03</rscale>
<asrwt>0</asrwt>
<pdfrwt beam="1">  1       21 0.57926161E-01 0.10509653E+04</pdfrwt>
<pdfrwt beam="2">  1       -4 0.17178670E+00 0.10509653E+04</pdfrwt>
<totfact> 0.22284292E+01</totfact>
</mgrwt>
</event>
<event>
 6    2  0.2345636E-005  0.1114786E+04  0.7818608E-02  0.9438325E-01
         -4   -1    0    0    0  501 -0.00000000000E+00  0.00000000000E+00  0.23699871533E+04  0.23699871533E+04  0.00000000000E+00 0. -1.
         21   -1    0    0  501  502  0.00000000000E+00 -0.00000000000E+00 -0.28218568622E+03  0.28218568622E+03  0.00000000000E+00 0. -1.
   -9000010    2    1    2    0  502 -0.38254441236E+03 -0.24193980446E+03  0.11025182202E+04  0.15678951149E+04  0.10187608007E+04 0.  0.
         13    1    3    3    0    0 -0.57253608712E+03  0.22058860649E+03  0.64345764473E+03  0.88909766398E+03  0.10566000000E+00 0. -1.
         -4    1    3    3    0  502  0.18999167476E+03 -0.46252841095E+03  0.45906057551E+03  0.67879745094E+03  0.00000000000E+00 0. -1.
        -13    1    1    2    0    0  0.38254441236E+03  0.24193980446E+03  0.98528324685E+03  0.10842777246E+04  0.10566000000E+00 0.  1.
<mgrwt>
<rscale>  1 0.88987681E+03</rscale>
<asrwt>0</asrwt>
<pdfrwt beam="2">  1       21 0.43413184E-01 0.11147864E+04</pdfrwt>
<pdfrwt beam="1">  1       -4 0.36461340E+00 0.11147864E+04</pdfrwt>
<totfact> 0.24130898E+00</totfact>
</mgrwt>
</event>
<event>
 6    2  0.2345636E-005  0.1014241E+04  0.7818608E-02  0.9928015E-01
         -4   -1    0    0    0  501 -0.00000000000E+00  0.00000000000E+00  0.13480492782E+04  0.13480492782E+04  0.00000000000E+00 0. -1.
         21   -1    0    0  501  502  0.00000000000E+00 -0.00000000000E+00 -0.37032307912E+03  0.37032307912E+03  0.00000000000E+00 0. -1.
   -9000010    2    1    2    0  502  0.67112432911E+02 -0.94040521650E+02  0.33916986917E+03  0.10694487131E+04  0.10076391475E+04 0.  0.
         13    1    3    3    0    0 -0.42460822450E+03 -0.56853945084E+02 -0.63149167821E+02  0.43302695522E+03  0.10566000000E+00 0. -1.
         -4    1    3    3    0  502  0.49172065741E+03 -0.37186576566E+02  0.40231903699E+03  0.63642175790E+03  0.00000000000E+00 0. -1.
        -13    1    1    2    0    0 -0.67112432911E+02  0.94040521650E+02  0.63855632994E+03  0.64892364422E+03  0.10566000000E+00 0.  1.
<mgrwt>
<rscale>  1 0.58922565E+03</rscale>
<asrwt>0</asrwt>
<pdfrwt beam="2">  1       21 0.56972782E-01 0.10142408E+04</pdfrwt>
<pdfrwt beam="1">  1       -4 0.20739219E+00 0.10142408E+04</pdfrwt>
<totfact> 0.13275631E+01</totfact>
</mgrwt>
</event>
<event>
 6    2  0.2345636E-005  0.9856387E+03  0.7818608E-02  0.9983323E-01
         -4   -1    0    0    0  501 -0.00000000000E+00  0.00000000000E+00  0.44348998966E+03  0.44348998966E+03  0.00000000000E+00 0. -1.
         21   -1    0    0  501  502  0.00000000000E+00 -0.00000000000E+00 -0.71724734630E+03  0.71724734630E+03  0.00000000000E+00 0. -1.
   -9000010    2    1    2    0  502 -0.20152341442E+02  0.10363855244E+03 -0.33213278777E+03  0.10400941905E+04  0.97996768825E+03 0.  0.
         13    1    3    3    0    0  0.47867892530E+03  0.41617403507E+02 -0.19921076520E+03  0.52014465482E+03  0.10566000000E+00 0. -1.
         -4    1    3    3    0  502 -0.49883126674E+03  0.62021148932E+02 -0.13292202258E+03  0.51994953570E+03  0.00000000000E+00 0. -1.
        -13    1    1    2    0    0  0.20152341442E+02 -0.10363855244E+03  0.58375431132E+02  0.12064314544E+03  0.10566000000E+00 0.  1.
<mgrwt>
<rscale>  1 0.56387580E+03</rscale>
<asrwt>0</asrwt>
<pdfrwt beam="2">  1       21 0.11034574E+00 0.98563875E+03</pdfrwt>
<pdfrwt beam="1">  1       -4 0.68229230E-01 0.98563875E+03</pdfrwt>
<totfact> 0.48160377E+01</totfact>
</mgrwt>
</event>
<event>
 6    2  0.2345636E-005  0.1027202E+04  0.7818608E-02  0.9528649E-01
         -4   -1    0    0    0  501 -0.00000000000E+00  0.00000000000E+00  0.15674677932E+04  0.15674677932E+04  0.00000000000E+00 0. -1.
         21   -1    0    0  501  502  0.00000000000E+00 -0.00000000000E+00 -0.10424484384E+04  0.10424484384E+04  0.00000000000E+00 0.  1.
   -9000010    2    1    2    0  502  0.32801779085E+03  0.26440816642E+03 -0.74689503663E+03  0.12700380357E+04  0.93682285774E+03 0.  0.
         13    1    3    3    0    0 -0.15554145311E+03 -0.16129337994E+03 -0.55390039960E+03  0.59750678815E+03  0.10566000000E+00 0. -1.
         -4    1    3    3    0  502  0.48355924396E+03  0.42570154636E+03 -0.19299463703E+03  0.67253124754E+03  0.00000000000E+00 0. -1.
        -13    1    1    2    0    0 -0.32801779085E+03 -0.26440816642E+03  0.12719143914E+04  0.13398781959E+04  0.10566000000E+00 0.  1.
<mgrwt>
<rscale>  1 0.82204201E+03</rscale>
<asrwt>0</asrwt>
<pdfrwt beam="2">  1       21 0.16037668E+00 0.10272022E+04</pdfrwt>
<pdfrwt beam="1">  1       -4 0.24114889E+00 0.10272022E+04</pdfrwt>
<totfact> 0.62305819E-01</totfact>
</mgrwt>
</event>
<event>
 6    2  0.2345636E-005  0.1027579E+04  0.7818608E-02  0.9748338E-01
         -4   -1    0    0    0  501 -0.00000000000E+00  0.00000000000E+00  0.25403323764E+04  0.25403323764E+04  0.00000000000E+00 0. -1.
         21   -1    0    0  501  502  0.00000000000E+00 -0.00000000000E+00 -0.15041409502E+03  0.15041409502E+03  0.00000000000E+00 0. -1.
   -9000010    2    1    2    0  502 -0.19583168247E+03  0.38105407704E+02  0.18677224119E+04  0.21317378783E+04  0.10080264400E+04 0.  0.
         13    1    3    3    0    0  0.10855031881E+03  0.87143643568E+02  0.18133355372E+04  0.18186706596E+04  0.10566000000E+00 0. -1.
         -4    1    3    3    0  502 -0.30438200128E+03 -0.49038235864E+02  0.54386874698E+02  0.31306721869E+03  0.00000000000E+00 0. -1.
        -13    1    1    2    0    0  0.19583168247E+03 -0.38105407704E+02  0.52219586948E+03  0.55900859315E+03  0.10566000000E+00 0.  1.
<mgrwt>
<rscale>  1 0.68210268E+03</rscale>
<asrwt>0</asrwt>
<pdfrwt beam="2">  1       21 0.23140632E-01 0.10275794E+04</pdfrwt>
<pdfrwt beam="1">  1       -4 0.39082033E+00 0.10275794E+04</pdfrwt>
<totfact> 0.58669392E+00</totfact>
</mgrwt>
</event>
<event>
 6    2  0.2345636E-005  0.1025600E+04  0.7818608E-02  0.9716934E-01
         21   -1    0    0  501  502  0.00000000000E+00  0.00000000000E+00  0.70625138083E+03  0.70625138083E+03  0.00000000000E+00 0. -1.
         -4   -1    0    0    0  501 -0.00000000000E+00 -0.00000000000E+00 -0.75187150860E+03  0.75187150860E+03  0.00000000000E+00 0. -1.
   -9000010    2    1    2    0  502 -0.13823575844E+03  0.17471434469E+03  0.28041072216E+03  0.10632427134E+04  0.10011097179E+04 0.  0.
         13    1    3    3    0    0 -0.19795431122E+03  0.56885637334E+03  0.53846448026E+02  0.60471723470E+03  0.10566000000E+00 0. -1.
         -4    1    3    3    0  502  0.59718552773E+02 -0.39414202865E+03  0.22656427413E+03  0.45852547869E+03  0.00000000000E+00 0. -1.
        -13    1    1    2    0    0  0.13823575844E+03 -0.17471434469E+03 -0.32603084993E+03  0.39488017603E+03  0.10566000000E+00 0.  1.
<mgrwt>
<rscale>  1 0.70017421E+03</rscale>
<asrwt>0</asrwt>
<pdfrwt beam="1">  1       21 0.10865406E+00 0.10255998E+04</pdfrwt>
<pdfrwt beam="2">  1       -4 0.11567254E+00 0.10255998E+04</pdfrwt>
<totfact> 0.14414081E+01</totfact>
</mgrwt>
</event>
<event>
 6    2  0.2345636E-005  0.1008785E+04  0.7818608E-02  0.9913268E-01
         21   -1    0    0  501  502  0.00000000000E+00  0.00000000000E+00  0.90581462376E+03  0.90581462376E+03  0.00000000000E+00 0. -1.
         -4   -1    0    0    0  501 -0.00000000000E+00 -0.00000000000E+00 -0.35966784613E+03  0.35966784613E+03  0.00000000000E+00 0. -1.
   -9000010    2    1    2    0  502  0.12304521071E+03  0.35511748913E+01  0.53502664857E+03  0.11418847225E+04  0.10012464582E+04 0.  0.
         13    1    3    3    0    0  0.13625874931E+03 -0.68151584670E+02  0.82701506527E+03  0.84093104034E+03  0.10566000000E+00 0. -1.
         -4    1    3    3    0  502 -0.13213538603E+02  0.71702759562E+02 -0.29198841670E+03  0.30095368218E+03  0.00000000000E+00 0. -1.
        -13    1    1    2    0    0 -0.12304521071E+03 -0.35511748913E+01  0.11120129062E+02  0.12359774738E+03  0.10566000000E+00 0.  1.
<mgrwt>
<rscale>  1 0.59622528E+03</rscale>
<asrwt>0</asrwt>
<pdfrwt beam="1">  1       21 0.13935610E+00 0.10087850E+04</pdfrwt>
<pdfrwt beam="2">  1       -4 0.55333515E-01 0.10087850E+04</pdfrwt>
<totfact> 0.41223593E+01</totfact>
</mgrwt>
</event>
<event>
 6    2  0.2345636E-005  0.1007642E+04  0.7818608E-02  0.9751682E-01
         -4   -1    0    0    0  501 -0.00000000000E+00  0.00000000000E+00  0.29358125460E+03  0.29358125460E+03  0.00000000000E+00 0. -1.
         21   -1    0    0  501  502  0.00000000000E+00 -0.00000000000E+00 -0.12737525286E+04  0.12737525286E+04  0.00000000000E+00 0. -1.
   -9000010    2    1    2    0  502 -0.37958720523E+01  0.20921286409E+03 -0.86781471117E+03  0.13298291738E+04  0.98567683715E+03 0.  0.
         13    1    3    3    0    0  0.26595220332E+03  0.52400632360E+03 -0.43999693907E+03  0.73410525075E+03  0.10566000000E+00 0. -1.
         -4    1    3    3    0  502 -0.26974807537E+03 -0.31479345951E+03 -0.42781777210E+03  0.59572392300E+03  0.00000000000E+00 0. -1.
        -13    1    1    2    0    0  0.37958720523E+01 -0.20921286409E+03 -0.11235656286E+03  0.23750460949E+03  0.10566000000E+00 0.  1.
<mgrwt>
<rscale>  1 0.68021282E+03</rscale>
<asrwt>0</asrwt>
<pdfrwt beam="2">  1       21 0.19596193E+00 0.10076424E+04</pdfrwt>
<pdfrwt beam="1">  1       -4 0.45166347E-01 0.10076424E+04</pdfrwt>
<totfact> 0.23501319E+01</totfact>
</mgrwt>
</event>
<event>
 6    2  0.2345636E-005  0.1035736E+04  0.7818608E-02  0.9681352E-01
         21   -1    0    0  501  502  0.00000000000E+00  0.00000000000E+00  0.18979947064E+04  0.18979947064E+04  0.00000000000E+00 0. -1.
         -4   -1    0    0    0  501 -0.00000000000E+00 -0.00000000000E+00 -0.39149018771E+03  0.39149018771E+03  0.00000000000E+00 0. -1.
   -9000010    2    1    2    0  502 -0.22227010554E+02  0.24271422866E+03  0.16915596537E+04  0.19834625895E+04  0.10066506571E+04 0.  0.
         13    1    3    3    0    0  0.20734665215E+03  0.15963076502E+03  0.17180687917E+04  0.17378823319E+04  0.10566000000E+00 0. -1.
         -4    1    3    3    0  502 -0.22957366270E+03  0.83083463649E+02 -0.26509138070E+02  0.24558025763E+03  0.00000000000E+00 0. -1.
        -13    1    1    2    0    0  0.22227010554E+02 -0.24271422866E+03 -0.18505513493E+03  0.30602230461E+03  0.10566000000E+00 0.  1.
<mgrwt>
<rscale>  1 0.72138001E+03</rscale>
<asrwt>0</asrwt>
<pdfrwt beam="1">  1       21 0.29199918E+00 0.10357363E+04</pdfrwt>
<pdfrwt beam="2">  1       -4 0.60229261E-01 0.10357363E+04</pdfrwt>
<totfact> 0.30403369E+00</totfact>
</mgrwt>
</event>
<event>
 6    2  0.2345636E-005  0.1036587E+04  0.7818608E-02  0.1015482E+00
         21   -1    0    0  501  502  0.00000000000E+00  0.00000000000E+00  0.16414204491E+04  0.16414204491E+04  0.00000000000E+00 0. -1.
         -4   -1    0    0    0  501 -0.00000000000E+00 -0.00000000000E+00 -0.23713387946E+03  0.23713387946E+03  0.00000000000E+00 0. -1.
   -9000010    2    1    2    0  502 -0.35039933746E+02  0.40115048167E+02  0.14669998831E+04  0.17962744106E+04  0.10352178935E+04 0.  0.
         13    1    3    3    0    0 -0.32724323340E+03  0.31862516752E+03  0.12649049356E+04  0.13448400048E+04  0.10566000000E+00 0. -1.
         -4    1    3    3    0  502  0.29220329966E+03 -0.27851011936E+03  0.20209494754E+03  0.45143440579E+03  0.00000000000E+00 0. -1.
        -13    1    1    2    0    0  0.35039933746E+02 -0.40115048167E+02 -0.62713313514E+02  0.82279917977E+02  0.10566000000E+00 0.  1.
<mgrwt>
<rscale>  1 0.49352856E+03</rscale>
<asrwt>0</asrwt>
<pdfrwt beam="1">  1       21 0.25252622E+00 0.10365872E+04</pdfrwt>
<pdfrwt beam="2">  1       -4 0.36482136E-01 0.10365872E+04</pdfrwt>
<totfact> 0.15346640E+01</totfact>
</mgrwt>
</event>
<event>
 6    2  0.2345636E-005  0.9389423E+03  0.7818608E-02  0.9932273E-01
         -4   -1    0    0    0  501 -0.00000000000E+00  0.00000000000E+00  0.41671347430E+03  0.41671347430E+03  0.00000000000E+00 0. -1.
         21   -1    0    0  501  502  0.00000000000E+00 -0.00000000000E+00 -0.12916627807E+04  0.12916627807E+04  0.00000000000E+00 0. -1.
   -9000010    2    1    2    0  502  0.13399645591E+03  0.51763948823E+02 -0.10969700308E+04  0.14439376614E+04  0.92788909086E+03 0.  0.
         13    1    3    3    0    0 -0.30200826999E+03 -0.25842449123E+03 -0.55172378777E+03  0.67999364847E+03  0.10566000000E+00 0. -1.
         -4    1    3    3    0  502  0.43600472589E+03  0.31018844005E+03 -0.54524624303E+03  0.76394401292E+03  0.00000000000E+00 0. -1.
        -13    1    1    2    0    0 -0.13399645591E+03 -0.51763948823E+02  0.22202072437E+03  0.26443859364E+03  0.10566000000E+00 0.  1.
<mgrwt>
<rscale>  1 0.58722375E+03</rscale>
<asrwt>0</asrwt>
<pdfrwt beam="2">  1       21 0.19871734E+00 0.93894234E+03</pdfrwt>
<pdfrwt beam="1">  1       -4 0.64109767E-01 0.93894234E+03</pdfrwt>
<totfact> 0.10735765E+01</totfact>
</mgrwt>
</event>
<event>
 6    2  0.2345636E-005  0.1040484E+04  0.7818608E-02  0.9639736E-01
         -4   -1    0    0    0  501 -0.00000000000E+00  0.00000000000E+00  0.10601237431E+04  0.10601237431E+04  0.00000000000E+00 0. -1.
         21   -1    0    0  501  502  0.00000000000E+00 -0.00000000000E+00 -0.47212434861E+03  0.47212434861E+03  0.00000000000E+00 0. -1.
   -9000010    2    1    2    0  502 -0.64371873934E+02 -0.26914557454E+03  0.20622449062E+03  0.10607237903E+04  0.10030071487E+04 0.  0.
         13    1    3    3    0    0 -0.48356032273E+02 -0.24589945775E+03  0.60817384403E+03  0.65778437569E+03  0.10566000000E+00 0. -1.
         -4    1    3    3    0  502 -0.16015841661E+02 -0.23246116792E+02 -0.40194935341E+03  0.40293941459E+03  0.00000000000E+00 0. -1.
        -13    1    1    2    0    0  0.64371873934E+02  0.26914557454E+03  0.38177490383E+03  0.47152430139E+03  0.10566000000E+00 0.  1.
<mgrwt>
<rscale>  1 0.74721070E+03</rscale>
<asrwt>0</asrwt>
<pdfrwt beam="2">  1       21 0.72634515E-01 0.10404837E+04</pdfrwt>
<pdfrwt beam="1">  1       -4 0.16309596E+00 0.10404837E+04</pdfrwt>
<totfact> 0.15462620E+01</totfact>
</mgrwt>
</event>
<event>
 6    2  0.2345636E-005  0.9538523E+03  0.7818608E-02  0.9961389E-01
         -4   -1    0    0    0  501 -0.00000000000E+00  0.00000000000E+00  0.47861763609E+03  0.47861763609E+03  0.00000000000E+00 0. -1.
         21   -1    0    0  501  502  0.00000000000E+00 -0.00000000000E+00 -0.60967506278E+03  0.60967506278E+03  0.00000000000E+00 0. -1.
   -9000010    2    1    2    0  502  0.91258799339E+02  0.85241256152E+02 -0.13497210168E+03  0.96335440990E+03  0.94564264425E+03 0.  0.
         13    1    3    3    0    0 -0.12356391072E+03 -0.30024472285E+03 -0.34575107229E+03  0.47429816444E+03  0.10566000000E+00 0. -1.
         -4    1    3    3    0  502  0.21482271006E+03  0.38548597901E+03  0.21077897061E+03  0.48905624546E+03  0.00000000000E+00 0. -1.
        -13    1    1    2    0    0 -0.91258799339E+02 -0.85241256152E+02  0.39146749877E+01  0.12493828897E+03  0.10566000000E+00 0.  1.
<mgrwt>
<rscale>  1 0.57376152E+03</rscale>
<asrwt>0</asrwt>
<pdfrwt beam="2">  1       21 0.93796163E-01 0.95385232E+03</pdfrwt>
<pdfrwt beam="1">  1       -4 0.73633483E-01 0.95385232E+03</pdfrwt>
<totfact> 0.60974276E+01</totfact>
</mgrwt>
</event>
<event>
 6    2  0.2345636E-005  0.1039674E+04  0.7818608E-02  0.9630471E-01
         -4   -1    0    0    0  501 -0.00000000000E+00  0.00000000000E+00  0.52603007946E+03  0.52603007946E+03  0.00000000000E+00 0. -1.
         21   -1    0    0  501  502  0.00000000000E+00 -0.00000000000E+00 -0.14547783841E+04  0.14547783841E+04  0.00000000000E+00 0. -1.
   -9000010    2    1    2    0  502  0.59317578698E+02 -0.28004709433E+03 -0.11991018183E+04  0.15870623731E+04  0.99948829668E+03 0.  0.
         13    1    3    3    0    0  0.40791433234E+03  0.34539856763E+02 -0.99336150237E+03  0.10744087629E+04  0.10566000000E+00 0. -1.
         -4    1    3    3    0  502 -0.34859675364E+03 -0.31458695110E+03 -0.20574031598E+03  0.51265361022E+03  0.00000000000E+00 0. -1.
        -13    1    1    2    0    0 -0.59317578698E+02  0.28004709433E+03  0.27035351372E+03  0.39374609044E+03  0.10566000000E+00 0.  1.
<mgrwt>
<rscale>  1 0.75311819E+03</rscale>
<asrwt>0</asrwt>
<pdfrwt beam="2">  1       21 0.22381205E+00 0.10396739E+04</pdfrwt>
<pdfrwt beam="1">  1       -4 0.80927706E-01 0.10396739E+04</pdfrwt>
<totfact> 0.42464479E+00</totfact>
</mgrwt>
</event>
<event>
 6    2  0.2345636E-005  0.1028350E+04  0.7818608E-02  0.9668336E-01
         21   -1    0    0  501  502  0.00000000000E+00  0.00000000000E+00  0.87493545482E+03  0.87493545482E+03  0.00000000000E+00 0. -1.
         -4   -1    0    0    0  501 -0.00000000000E+00 -0.00000000000E+00 -0.53251368252E+03  0.53251368252E+03  0.00000000000E+00 0. -1.
   -9000010    2    1    2    0  502 -0.10368676238E+03  0.23863780031E+03  0.45429494471E+03  0.11242273827E+04  0.99488912286E+03 0.  0.
         13    1    3    3    0    0  0.43490989360E+03  0.18193396193E+03  0.30840764166E+03  0.56334879663E+03  0.10566000000E+00 0. -1.
         -4    1    3    3    0  502 -0.53859665598E+03  0.56703838379E+02  0.14588730305E+03  0.56087858607E+03  0.00000000000E+00 0. -1.
        -13    1    1    2    0    0  0.10368676238E+03 -0.23863780031E+03 -0.11187317242E+03  0.28322175464E+03  0.10566000000E+00 0.  1.
<mgrwt>
<rscale>  1 0.72933725E+03</rscale>
<asrwt>0</asrwt>
<pdfrwt beam="1">  1       21 0.13460545E+00 0.10283498E+04</pdfrwt>
<pdfrwt beam="2">  1       -4 0.81925182E-01 0.10283498E+04</pdfrwt>
<totfact> 0.18867745E+01</totfact>
</mgrwt>
</event>
<event>
 6    2  0.2345636E-005  0.1126786E+04  0.7818608E-02  0.9416803E-01
         21   -1    0    0  501  502  0.00000000000E+00  0.00000000000E+00  0.25111886783E+04  0.25111886783E+04  0.00000000000E+00 0. -1.
         -4   -1    0    0    0  501 -0.00000000000E+00 -0.00000000000E+00 -0.26429136441E+03  0.26429136441E+03  0.00000000000E+00 0. -1.
   -9000010    2    1    2    0  502 -0.31951454740E+03 -0.34899428241E+03  0.13256639744E+04  0.17398365557E+04  0.10226239350E+04 0.  0.
         13    1    3    3    0    0  0.22055125220E+03 -0.51604575452E+03  0.64124563511E+03  0.85213969002E+03  0.10566000000E+00 0. -1.
         -4    1    3    3    0  502 -0.54006579960E+03  0.16705147212E+03  0.68441833928E+03  0.88769686570E+03  0.00000000000E+00 0. -1.
        -13    1    1    2    0    0  0.31951454740E+03  0.34899428241E+03  0.92123333954E+03  0.10356434870E+04  0.10566000000E+00 0.  1.
<mgrwt>
<rscale>  1 0.90705701E+03</rscale>
<asrwt>0</asrwt>
<pdfrwt beam="1">  1       21 0.38633670E+00 0.11267858E+04</pdfrwt>
<pdfrwt beam="2">  1       -4 0.40660212E-01 0.11267858E+04</pdfrwt>
<totfact> 0.17370738E+00</totfact>
</mgrwt>
</event>
<event>
 6    2  0.2345636E-005  0.9998887E+03  0.7818608E-02  0.9901435E-01
         21   -1    0    0  501  502  0.00000000000E+00  0.00000000000E+00  0.73202268471E+03  0.73202268471E+03  0.00000000000E+00 0. -1.
         -4   -1    0    0    0  501 -0.00000000000E+00 -0.00000000000E+00 -0.46884342399E+03  0.46884342399E+03  0.00000000000E+00 0. -1.
   -9000010    2    1    2    0  502  0.19158976354E+02  0.12990345552E+03  0.33077421512E+03  0.10531804183E+04  0.99122925599E+03 0.  0.
         13    1    3    3    0    0  0.19240732778E+03  0.76688276045E+02  0.65213414807E+03  0.68423726127E+03  0.10566000000E+00 0. -1.
         -4    1    3    3    0  502 -0.17324835143E+03  0.53215179472E+02 -0.32135993295E+03  0.36894315701E+03  0.00000000000E+00 0. -1.
        -13    1    1    2    0    0 -0.19158976354E+02 -0.12990345552E+03 -0.67594954401E+02  0.14768569042E+03  0.10566000000E+00 0.  1.
<mgrwt>
<rscale>  1 0.60191775E+03</rscale>
<asrwt>0</asrwt>
<pdfrwt beam="1">  1       21 0.11261887E+00 0.99988870E+03</pdfrwt>
<pdfrwt beam="2">  1       -4 0.72129757E-01 0.99988870E+03</pdfrwt>
<totfact> 0.40324546E+01</totfact>
</mgrwt>
</event>
<event>
 6    2  0.2345636E-005  0.1024990E+04  0.7818608E-02  0.9666734E-01
         21   -1    0    0  501  502  0.00000000000E+00  0.00000000000E+00  0.10785027388E+04  0.10785027388E+04  0.00000000000E+00 0. -1.
         -4   -1    0    0    0  501 -0.00000000000E+00 -0.00000000000E+00 -0.39084146023E+03  0.39084146023E+03  0.00000000000E+00 0. -1.
   -9000010    2    1    2    0  502 -0.27612164963E+02 -0.26273576251E+03  0.61505804405E+03  0.11953665478E+04  0.99035966876E+03 0.  0.
         13    1    3    3    0    0  0.18587875564E+03 -0.54080463248E+03  0.11282491838E+03  0.58288080744E+03  0.10566000000E+00 0. -1.
         -4    1    3    3    0  502 -0.21349092061E+03  0.27806886998E+03  0.50223312567E+03  0.61248574036E+03  0.00000000000E+00 0. -1.
        -13    1    1    2    0    0  0.27612164963E+02  0.26273576251E+03  0.72603234559E+02  0.27397765125E+03  0.10566000000E+00 0.  1.
<mgrwt>
<rscale>  1 0.73032451E+03</rscale>
<asrwt>0</asrwt>
<pdfrwt beam="1">  1       21 0.16592350E+00 0.10249901E+04</pdfrwt>
<pdfrwt beam="2">  1       -4 0.60129456E-01 0.10249901E+04</pdfrwt>
<totfact> 0.21066993E+01</totfact>
</mgrwt>
</event>
<event>
 6    2  0.2345636E-005  0.1078632E+04  0.7818608E-02  0.9494509E-01
         21   -1    0    0  501  502  0.00000000000E+00  0.00000000000E+00  0.66010534397E+03  0.66010534397E+03  0.00000000000E+00 0. -1.
         -4   -1    0    0    0  501 -0.00000000000E+00 -0.00000000000E+00 -0.11186146017E+04  0.11186146017E+04  0.00000000000E+00 0. -1.
   -9000010    2    1    2    0  502 -0.39878803809E+03 -0.94907823532E+02  0.10295612260E+03  0.10835345181E+04  0.99770120496E+03 0.  0.
         13    1    3    3    0    0 -0.68574160218E+03  0.14733814792E+02 -0.12986750602E+03  0.69808610539E+03  0.10566000000E+00 0. -1.
         -4    1    3    3    0  502  0.28695356409E+03 -0.10964163832E+03  0.23282362862E+03  0.38544841268E+03  0.00000000000E+00 0. -1.
        -13    1    1    2    0    0  0.39878803809E+03  0.94907823532E+02 -0.56146538036E+03  0.69518542764E+03  0.10566000000E+00 0.  1.
<mgrwt>
<rscale>  1 0.84689853E+03</rscale>
<asrwt>0</asrwt>
<pdfrwt beam="1">  1       21 0.10155467E+00 0.10786320E+04</pdfrwt>
<pdfrwt beam="2">  1       -4 0.17209455E+00 0.10786320E+04</pdfrwt>
<totfact> 0.59363332E+00</totfact>
</mgrwt>
</event>
<event>
 6    2  0.2345636E-005  0.1075243E+04  0.7818608E-02  0.9511849E-01
         -4   -1    0    0    0  501 -0.00000000000E+00  0.00000000000E+00  0.26746389640E+04  0.26746389640E+04  0.00000000000E+00 0. -1.
         21   -1    0    0  501  502  0.00000000000E+00 -0.00000000000E+00 -0.20129288368E+03  0.20129288368E+03  0.00000000000E+00 0. -1.
   -9000010    2    1    2    0  502 -0.33749916953E+03 -0.19437418204E+03  0.18917310617E+04  0.21759582388E+04  0.10022279357E+04 0.  0.
         13    1    3    3    0    0 -0.34012959064E+03  0.26592128590E+02  0.19227735725E+04  0.19528065706E+04  0.10566000000E+00 0. -1.
         -4    1    3    3    0  502  0.26304211064E+01 -0.22096631063E+03 -0.31042510840E+02  0.22315166822E+03  0.00000000000E+00 0. -1.
        -13    1    1    2    0    0  0.33749916953E+03  0.19437418204E+03  0.58161501869E+03  0.69997360894E+03  0.10566000000E+00 0.  1.
<mgrwt>
<rscale>  1 0.83415858E+03</rscale>
<asrwt>0</asrwt>
<pdfrwt beam="2">  1       21 0.30968138E-01 0.10752432E+04</pdfrwt>
<pdfrwt beam="1">  1       -4 0.41148289E+00 0.10752432E+04</pdfrwt>
<totfact> 0.23423437E+00</totfact>
</mgrwt>
</event>
<event>
 6    2  0.2345636E-005  0.1082815E+04  0.7818608E-02  0.1030035E+00
         21   -1    0    0  501  502  0.00000000000E+00  0.00000000000E+00  0.29418210617E+04  0.29418210617E+04  0.00000000000E+00 0. -1.
         -4   -1    0    0    0  501 -0.00000000000E+00 -0.00000000000E+00 -0.12588355623E+03  0.12588355623E+03  0.00000000000E+00 0. -1.
   -9000010    2    1    2    0  502 -0.77717524681E+01  0.29132882141E+02  0.28331239321E+04  0.30329985755E+04  0.10823955003E+04 0.  0.
         13    1    3    3    0    0 -0.14793725348E+03  0.47580251227E+03  0.21354752389E+04  0.21928356001E+04  0.10566000000E+00 0. -1.
         -4    1    3    3    0  502  0.14016550101E+03 -0.44666963013E+03  0.69764869314E+03  0.84016297538E+03  0.00000000000E+00 0. -1.
        -13    1    1    2    0    0  0.77717524681E+01 -0.29132882141E+02 -0.17186426639E+02  0.34706042456E+02  0.10566000000E+00 0.  1.
<mgrwt>
<rscale>  1 0.44232799E+03</rscale>
<asrwt>0</asrwt>
<pdfrwt beam="1">  1       21 0.45258781E+00 0.10828154E+04</pdfrwt>
<pdfrwt beam="2">  1       -4 0.19366703E-01 0.10828154E+04</pdfrwt>
<totfact> 0.26733508E+00</totfact>
</mgrwt>
</event>
<event>
 6    2  0.2345636E-005  0.1021371E+04  0.7818608E-02  0.9741895E-01
         -4   -1    0    0    0  501 -0.00000000000E+00  0.00000000000E+00  0.17236489288E+04  0.17236489288E+04  0.00000000000E+00 0. -1.
         21   -1    0    0  501  502  0.00000000000E+00 -0.00000000000E+00 -0.24045954487E+03  0.24045954487E+03  0.00000000000E+00 0. -1.
   -9000010    2    1    2    0  502 -0.20751672546E+03  0.42463570831E+01  0.96189268597E+03  0.14030100141E+04  0.10000591669E+04 0.  0.
         13    1    3    3    0    0  0.34576397897E+03 -0.10714811696E+03  0.10491664891E+03  0.37688322130E+03  0.10566000000E+00 0. -1.
         -4    1    3    3    0  502 -0.55328070443E+03  0.11139447404E+03  0.85697603706E+03  0.10261267928E+04  0.00000000000E+00 0. -1.
        -13    1    1    2    0    0  0.20751672546E+03 -0.42463570831E+01  0.52129669793E+03  0.56109845957E+03  0.10566000000E+00 0.  1.
<mgrwt>
<rscale>  1 0.68576259E+03</rscale>
<asrwt>0</asrwt>
<pdfrwt beam="2">  1       21 0.36993777E-01 0.10213714E+04</pdfrwt>
<pdfrwt beam="1">  1       -4 0.26517675E+00 0.10213714E+04</pdfrwt>
<totfact> 0.14465511E+01</totfact>
</mgrwt>
</event>
<event>
 6    2  0.2345636E-005  0.9943504E+03  0.7818608E-02  0.1010951E+00
         -4   -1    0    0    0  501 -0.00000000000E+00  0.00000000000E+00  0.94220026337E+03  0.94220026337E+03  0.00000000000E+00 0. -1.
         21   -1    0    0  501  502  0.00000000000E+00 -0.00000000000E+00 -0.46534211078E+03  0.46534211078E+03  0.00000000000E+00 0. -1.
   -9000010    2    1    2    0  502 -0.64490358863E+02 -0.25485029886E+02  0.72180787166E+02  0.99696683373E+03  0.99192958842E+03 0.  0.
         13    1    3    3    0    0 -0.46072355932E+03  0.23700675375E+03  0.15903514174E+02  0.51835444664E+03  0.10566000000E+00 0. -1.
         -4    1    3    3    0  502  0.39623320045E+03 -0.26249178363E+03  0.56277272992E+02  0.47861238708E+03  0.00000000000E+00 0. -1.
        -13    1    1    2    0    0  0.64490358863E+02  0.25485029886E+02  0.40467736543E+03  0.41057554042E+03  0.10566000000E+00 0.  1.
<mgrwt>
<rscale>  1 0.51098230E+03</rscale>
<asrwt>0</asrwt>
<pdfrwt beam="2">  1       21 0.71591094E-01 0.99435044E+03</pdfrwt>
<pdfrwt beam="1">  1       -4 0.14495389E+00 0.99435044E+03</pdfrwt>
<totfact> 0.22114798E+01</totfact>
</mgrwt>
</event>
<event>
 6    2  0.2345636E-005  0.1008131E+04  0.7818608E-02  0.9769324E-01
         21   -1    0    0  501  502  0.00000000000E+00  0.00000000000E+00  0.13744019536E+04  0.13744019536E+04  0.00000000000E+00 0. -1.
         -4   -1    0    0    0  501 -0.00000000000E+00 -0.00000000000E+00 -0.40166629840E+03  0.40166629840E+03  0.00000000000E+00 0. -1.
   -9000010    2    1    2    0  502  0.19564835581E+03  0.23768186407E+02  0.11369503560E+04  0.15195342679E+04  0.98867844798E+03 0.  0.
         13    1    3    3    0    0 -0.23345506692E+03 -0.32485482451E+03  0.24188175619E+03  0.46748125141E+03  0.10566000000E+00 0. -1.
         -4    1    3    3    0  502  0.42910342273E+03  0.34862301091E+03  0.89506859986E+03  0.10520530165E+04  0.00000000000E+00 0. -1.
        -13    1    1    2    0    0 -0.19564835581E+03 -0.23768186407E+02 -0.16421470088E+03  0.25653398404E+03  0.10566000000E+00 0.  1.
<mgrwt>
<rscale>  1 0.67035083E+03</rscale>
<asrwt>0</asrwt>
<pdfrwt beam="1">  1       21 0.21144645E+00 0.10081311E+04</pdfrwt>
<pdfrwt beam="2">  1       -4 0.61794816E-01 0.10081311E+04</pdfrwt>
<totfact> 0.94452063E+00</totfact>
</mgrwt>
</event>
<event>
 6    2  0.2345636E-005  0.9768223E+03  0.7818608E-02  0.9894232E-01
         21   -1    0    0  501  502  0.00000000000E+00  0.00000000000E+00  0.38028707309E+03  0.38028707309E+03  0.00000000000E+00 0. -1.
         -4   -1    0    0    0  501 -0.00000000000E+00 -0.00000000000E+00 -0.13084273182E+04  0.13084273182E+04  0.00000000000E+00 0. -1.
   -9000010    2    1    2    0  502  0.14413012779E+03 -0.11970920582E+01 -0.26785598934E+03  0.10128813969E+04  0.96612989103E+03 0.  0.
         13    1    3    3    0    0  0.45517841617E+03 -0.25140380705E+03  0.20562857456E+02  0.52039802749E+03  0.10566000000E+00 0. -1.
         -4    1    3    3    0  502 -0.31104828838E+03  0.25020671499E+03 -0.28841884680E+03  0.49248336938E+03  0.00000000000E+00 0. -1.
        -13    1    1    2    0    0 -0.14413012779E+03  0.11970920582E+01 -0.66028425581E+03  0.67583299446E+03  0.10566000000E+00 0.  1.
<mgrwt>
<rscale>  1 0.60541636E+03</rscale>
<asrwt>0</asrwt>
<pdfrwt beam="1">  1       21 0.58505704E-01 0.97682234E+03</pdfrwt>
<pdfrwt beam="2">  1       -4 0.20129651E+00 0.97682234E+03</pdfrwt>
<totfact> 0.13781215E+01</totfact>
</mgrwt>
</event>
<event>
 6    2  0.2345636E-005  0.9909131E+03  0.7818608E-02  0.1017457E+00
         21   -1    0    0  501  502  0.00000000000E+00  0.00000000000E+00  0.56217851505E+03  0.56217851505E+03  0.00000000000E+00 0. -1.
         -4   -1    0    0    0  501 -0.00000000000E+00 -0.00000000000E+00 -0.49382807967E+03  0.49382807967E+03  0.00000000000E+00 0. -1.
   -9000010    2    1    2    0  502 -0.12701032884E+02  0.55988951695E+02  0.39369343245E+02  0.99169490206E+03  0.98924858081E+03 0.  0.
         13    1    3    3    0    0 -0.17215434451E+03 -0.22513460721E+02  0.48328328712E+03  0.51352382712E+03  0.10566000000E+00 0. -1.
         -4    1    3    3    0  502  0.15945331163E+03  0.78502412416E+02 -0.44391394387E+03  0.47817107494E+03  0.00000000000E+00 0. -1.
        -13    1    1    2    0    0  0.12701032884E+02 -0.55988951695E+02  0.28981092136E+02  0.64311692666E+02  0.10566000000E+00 0.  1.
<mgrwt>
<rscale>  1 0.48615709E+03</rscale>
<asrwt>0</asrwt>
<pdfrwt beam="1">  1       21 0.86489003E-01 0.99091313E+03</pdfrwt>
<pdfrwt beam="2">  1       -4 0.75973551E-01 0.99091313E+03</pdfrwt>
<totfact> 0.68876265E+01</totfact>
</mgrwt>
</event>
<event>
 6    2  0.2345636E-005  0.1095114E+04  0.7818608E-02  0.9434402E-01
         21   -1    0    0  501  502  0.00000000000E+00  0.00000000000E+00  0.84469672662E+03  0.84469672662E+03  0.00000000000E+00 0. -1.
         -4   -1    0    0    0  501 -0.00000000000E+00 -0.00000000000E+00 -0.76149344428E+03  0.76149344428E+03  0.00000000000E+00 0. -1.
   -9000010    2    1    2    0  502 -0.37630368847E+03 -0.30463548827E+03 -0.72774105224E+02  0.10975289838E+04  0.98227621024E+03 0.  0.
         13    1    3    3    0    0 -0.50455040100E+03 -0.58267667470E+03 -0.14167283055E+03  0.78368004725E+03  0.10566000000E+00 0. -1.
         -4    1    3    3    0  502  0.12824671252E+03  0.27804118642E+03  0.68898725323E+02  0.31384893655E+03  0.00000000000E+00 0. -1.
        -13    1    1    2    0    0  0.37630368847E+03  0.30463548827E+03  0.15597738757E+03  0.50866118711E+03  0.10566000000E+00 0.  1.
<mgrwt>
<rscale>  1 0.89297812E+03</rscale>
<asrwt>0</asrwt>
<pdfrwt beam="1">  1       21 0.12995334E+00 0.10951136E+04</pdfrwt>
<pdfrwt beam="2">  1       -4 0.11715284E+00 0.10951136E+04</pdfrwt>
<totfact> 0.87161504E+00</totfact>
</mgrwt>
</event>
<event>
 6    2  0.2345636E-005  0.1003285E+04  0.7818608E-02  0.1048139E+00
         -4   -1    0    0    0  501 -0.00000000000E+00  0.00000000000E+00  0.14198678567E+03  0.14198678567E+03  0.00000000000E+00 0. -1.
         21   -1    0    0  501  502  0.00000000000E+00 -0.00000000000E+00 -0.18715273319E+04  0.18715273319E+04  0.00000000000E+00 0. -1.
   -9000010    2    1    2    0  502 -0.29448810783E+01 -0.22167826204E+02 -0.17147818037E+04  0.19867201539E+04  0.10030355182E+04 0.  0.
         13    1    3    3    0    0 -0.15378362986E+03  0.44249448782E+03 -0.11392418122E+04  0.12317965312E+04  0.10566000000E+00 0. -1.
         -4    1    3    3    0  502  0.15083874879E+03 -0.46466231402E+03 -0.57553999158E+03  0.75492362270E+03  0.00000000000E+00 0. -1.
        -13    1    1    2    0    0  0.29448810783E+01  0.22167826204E+02 -0.14758742461E+02  0.26793963616E+02  0.10566000000E+00 0.  1.
<mgrwt>
<rscale>  1 0.38765897E+03</rscale>
<asrwt>0</asrwt>
<pdfrwt beam="2">  1       21 0.28792729E+00 0.10032848E+04</pdfrwt>
<pdfrwt beam="1">  1       -4 0.21844120E-01 0.10032848E+04</pdfrwt>
<totfact> 0.25064782E+01</totfact>
</mgrwt>
</event>
<event>
 6    2  0.2345636E-005  0.1519759E+04  0.7818608E-02  0.8941215E-01
         -4   -1    0    0    0  501 -0.00000000000E+00  0.00000000000E+00  0.10851635335E+04  0.10851635335E+04  0.00000000000E+00 0. -1.
         21   -1    0    0  501  502  0.00000000000E+00 -0.00000000000E+00 -0.16680513643E+04  0.16680513643E+04  0.00000000000E+00 0.  1.
   -9000010    2    1    2    0  502 -0.94239748188E+03 -0.65966577388E+03 -0.16229160959E+03  0.15283993445E+04  0.99317372224E+03 0.  0.
         13    1    3    3    0    0 -0.80908543331E+03 -0.89978788637E+03 -0.13233655533E+01  0.12100575364E+04  0.10566000000E+00 0. -1.
         -4    1    3    3    0  502 -0.13331204857E+03  0.24012211249E+03 -0.16096824404E+03  0.31834180811E+03  0.00000000000E+00 0. -1.
        -13    1    1    2    0    0  0.94239748188E+03  0.65966577388E+03 -0.42059622121E+03  0.12248155533E+04  0.10566000000E+00 0.  1.
<mgrwt>
<rscale>  1 0.14175459E+04</rscale>
<asrwt>0</asrwt>
<pdfrwt beam="2">  1       21 0.25662329E+00 0.15197585E+04</pdfrwt>
<pdfrwt beam="1">  1       -4 0.16694824E+00 0.15197585E+04</pdfrwt>
<totfact> 0.39061579E-01</totfact>
</mgrwt>
</event>
<event>
 6    2  0.2345636E-005  0.9689201E+03  0.7818608E-02  0.9916108E-01
         21   -1    0    0  501  502  0.00000000000E+00  0.00000000000E+00  0.10888584359E+04  0.10888584359E+04  0.00000000000E+00 0. -1.
         -4   -1    0    0    0  501 -0.00000000000E+00 -0.00000000000E+00 -0.35766734017E+03  0.35766734017E+03  0.00000000000E+00 0. -1.
   -9000010    2    1    2    0  502 -0.18731527602E+02  0.13638411340E+03  0.83101607699E+03  0.12764771520E+04  0.95909056026E+03 0.  0.
         13    1    3    3    0    0  0.17043097405E+03  0.51280173637E+03  0.54361322297E+03  0.76650354539E+03  0.10566000000E+00 0. -1.
         -4    1    3    3    0  502 -0.18916250166E+03 -0.37641762297E+03  0.28740285401E+03  0.50997360658E+03  0.00000000000E+00 0. -1.
        -13    1    1    2    0    0  0.18731527602E+02 -0.13638411340E+03 -0.99824981256E+02  0.17004862411E+03  0.10566000000E+00 0.  1.
<mgrwt>
<rscale>  1 0.59486916E+03</rscale>
<asrwt>0</asrwt>
<pdfrwt beam="1">  1       21 0.16751668E+00 0.96892012E+03</pdfrwt>
<pdfrwt beam="2">  1       -4 0.55025745E-01 0.96892012E+03</pdfrwt>
<totfact> 0.24978146E+01</totfact>
</mgrwt>
</event>
<event>
 6    2  0.2345636E-005  0.1020503E+04  0.7818608E-02  0.9773321E-01
         21   -1    0    0  501  502  0.00000000000E+00  0.00000000000E+00  0.98566135124E+03  0.98566135124E+03  0.00000000000E+00 0. -1.
         -4   -1    0    0    0  501 -0.00000000000E+00 -0.00000000000E+00 -0.37049178527E+03  0.37049178527E+03  0.00000000000E+00 0. -1.
   -9000010    2    1    2    0  502  0.18722571150E+03 -0.10373538596E+02  0.53476707293E+03  0.11521294874E+04  0.10031278364E+04 0.  0.
         13    1    3    3    0    0  0.53230783085E+03  0.15267815178E+03  0.81757177717E+02  0.55977360789E+03  0.10566000000E+00 0. -1.
         -4    1    3    3    0  502 -0.34508211935E+03 -0.16305169037E+03  0.45300989521E+03  0.59235587951E+03  0.00000000000E+00 0. -1.
        -13    1    1    2    0    0 -0.18722571150E+03  0.10373538596E+02  0.80402493036E+02  0.20402364912E+03  0.10566000000E+00 0.  1.
<mgrwt>
<rscale>  1 0.66814162E+03</rscale>
<asrwt>0</asrwt>
<pdfrwt beam="1">  1       21 0.15164021E+00 0.10205031E+04</pdfrwt>
<pdfrwt beam="2">  1       -4 0.56998737E-01 0.10205031E+04</pdfrwt>
<totfact> 0.30595856E+01</totfact>
</mgrwt>
</event>
<event>
 6    2  0.2345636E-005  0.1025828E+04  0.7818608E-02  0.9530589E-01
         21   -1    0    0  501  502  0.00000000000E+00  0.00000000000E+00  0.51553386519E+03  0.51553386519E+03  0.00000000000E+00 0.  1.
         -4   -1    0    0    0  501 -0.00000000000E+00 -0.00000000000E+00 -0.11726163918E+04  0.11726163918E+04  0.00000000000E+00 0. -1.
   -9000010    2    1    2    0  502  0.39122599979E+03 -0.15324349732E+03 -0.16156316905E+03  0.10384728007E+04  0.93583211515E+03 0.  0.
         13    1    3    3    0    0  0.63908151796E+03  0.23880936232E+02 -0.29694683043E+03  0.70510489786E+03  0.10566000000E+00 0. -1.
         -4    1    3    3    0  502 -0.24785551817E+03 -0.17712443355E+03  0.13538366138E+03  0.33336790280E+03  0.00000000000E+00 0. -1.
        -13    1    1    2    0    0 -0.39122599979E+03  0.15324349732E+03 -0.49551935760E+03  0.64967745636E+03  0.10566000000E+00 0.  1.
<mgrwt>
<rscale>  1 0.82065709E+03</rscale>
<asrwt>0</asrwt>
<pdfrwt beam="1">  1       21 0.79312903E-01 0.10258280E+04</pdfrwt>
<pdfrwt beam="2">  1       -4 0.18040252E+00 0.10258280E+04</pdfrwt>
<totfact> 0.94823507E+00</totfact>
</mgrwt>
</event>
<event>
 6    2  0.2345636E-005  0.1000142E+04  0.7818608E-02  0.9851983E-01
         -4   -1    0    0    0  501 -0.00000000000E+00  0.00000000000E+00  0.23045008988E+03  0.23045008988E+03  0.00000000000E+00 0. -1.
         21   -1    0    0  501  502  0.00000000000E+00 -0.00000000000E+00 -0.14459801011E+04  0.14459801011E+04  0.00000000000E+00 0. -1.
   -9000010    2    1    2    0  502  0.14042248332E+02  0.15331035182E+03 -0.10376696254E+04  0.14411950390E+04  0.98822246497E+03 0.  0.
         13    1    3    3    0    0 -0.43354305961E+03  0.12437951971E+03 -0.83496406654E+03  0.94899676134E+03  0.10566000000E+00 0. -1.
         -4    1    3    3    0  502  0.44758530794E+03  0.28930832109E+02 -0.20270555881E+03  0.49219827763E+03  0.00000000000E+00 0. -1.
        -13    1    1    2    0    0 -0.14042248332E+02 -0.15331035182E+03 -0.17786038589E+03  0.23523515202E+03  0.10566000000E+00 0.  1.
<mgrwt>
<rscale>  1 0.62645932E+03</rscale>
<asrwt>0</asrwt>
<pdfrwt beam="2">  1       21 0.22245848E+00 0.10001424E+04</pdfrwt>
<pdfrwt beam="1">  1       -4 0.35453859E-01 0.10001424E+04</pdfrwt>
<totfact> 0.25531441E+01</totfact>
</mgrwt>
</event>
<event>
 6    2  0.2345636E-005  0.9997935E+03  0.7818608E-02  0.1003644E+00
         21   -1    0    0  501  502  0.00000000000E+00  0.00000000000E+00  0.36086036291E+03  0.36086036291E+03  0.00000000000E+00 0. -1.
         -4   -1    0    0    0  501 -0.00000000000E+00 -0.00000000000E+00 -0.82368077420E+03  0.82368077420E+03  0.00000000000E+00 0. -1.
   -9000010    2    1    2    0  502 -0.22053050624E+02 -0.82703978216E+02 -0.39367576800E+03  0.10745080607E+04  0.99612282227E+03 0.  0.
         13    1    3    3    0    0 -0.48690352143E+03 -0.12545223599E+03 -0.72795952547E+02  0.50804779752E+03  0.10566000000E+00 0. -1.
         -4    1    3    3    0  502  0.46485047080E+03  0.42748257775E+02 -0.32087981545E+03  0.56646026314E+03  0.00000000000E+00 0. -1.
        -13    1    1    2    0    0  0.22053050624E+02  0.82703978216E+02 -0.69144643288E+02  0.11003307645E+03  0.10566000000E+00 0.  1.
<mgrwt>
<rscale>  1 0.54080821E+03</rscale>
<asrwt>0</asrwt>
<pdfrwt beam="1">  1       21 0.55516979E-01 0.99979346E+03</pdfrwt>
<pdfrwt beam="2">  1       -4 0.12672012E+00 0.99979346E+03</pdfrwt>
<totfact> 0.55553584E+01</totfact>
</mgrwt>
</event>
<event>
 6    2  0.2345636E-005  0.1032955E+04  0.7818608E-02  0.9651349E-01
         -4   -1    0    0    0  501 -0.00000000000E+00  0.00000000000E+00  0.51543403249E+03  0.51543403249E+03  0.00000000000E+00 0. -1.
         21   -1    0    0  501  502  0.00000000000E+00 -0.00000000000E+00 -0.13553693577E+04  0.13553693577E+04  0.00000000000E+00 0. -1.
   -9000010    2    1    2    0  502 -0.14658925114E+03 -0.22900855767E+03 -0.10897812798E+04  0.15015387964E+04  0.99652505804E+03 0.  0.
         13    1    3    3    0    0  0.48486974890E+02 -0.45428891239E+03 -0.11125129805E+04  0.12026697575E+04  0.10566000000E+00 0. -1.
         -4    1    3    3    0  502 -0.19507622603E+03  0.22528035473E+03  0.22731700729E+02  0.29886903889E+03  0.00000000000E+00 0. -1.
        -13    1    1    2    0    0  0.14658925114E+03  0.22900855767E+03  0.24984595458E+03  0.36926459378E+03  0.10566000000E+00 0.  1.
<mgrwt>
<rscale>  1 0.73988805E+03</rscale>
<asrwt>0</asrwt>
<pdfrwt beam="2">  1       21 0.20851836E+00 0.10329548E+04</pdfrwt>
<pdfrwt beam="1">  1       -4 0.79297545E-01 0.10329548E+04</pdfrwt>
<totfact> 0.56325226E+00</totfact>
</mgrwt>
</event>
<event>
 6    2  0.2345636E-005  0.1006997E+04  0.7818608E-02  0.9807327E-01
         21   -1    0    0  501  502  0.00000000000E+00  0.00000000000E+00  0.64319091540E+03  0.64319091540E+03  0.00000000000E+00 0. -1.
         -4   -1    0    0    0  501 -0.00000000000E+00 -0.00000000000E+00 -0.95727914715E+03  0.95727914715E+03  0.00000000000E+00 0. -1.
   -9000010    2    1    2    0  502  0.11908626382E+03  0.12754562527E+03  0.22672298898E+03  0.10322040928E+04  0.99176234586E+03 0.  0.
         13    1    3    3    0    0 -0.38168563536E+03 -0.15232077816E+03 -0.11304883107E+02  0.41111233896E+03  0.10566000000E+00 0. -1.
         -4    1    3    3    0  502  0.50077189918E+03  0.27986640343E+03  0.23802787208E+03  0.62109175382E+03  0.00000000000E+00 0. -1.
        -13    1    1    2    0    0 -0.11908626382E+03 -0.12754562527E+03 -0.54081122073E+03  0.56826596976E+03  0.10566000000E+00 0.  1.
<mgrwt>
<rscale>  1 0.64970825E+03</rscale>
<asrwt>0</asrwt>
<pdfrwt beam="1">  1       21 0.98952448E-01 0.10069965E+04</pdfrwt>
<pdfrwt beam="2">  1       -4 0.14727372E+00 0.10069965E+04</pdfrwt>
<totfact> 0.97974670E+00</totfact>
</mgrwt>
</event>
<event>
 6    2  0.2345636E-005  0.1217665E+04  0.7818608E-02  0.9249700E-01
         -4   -1    0    0    0  501 -0.00000000000E+00  0.00000000000E+00  0.32427844602E+03  0.32427844602E+03  0.00000000000E+00 0. -1.
         21   -1    0    0  501  502  0.00000000000E+00 -0.00000000000E+00 -0.28003699446E+04  0.28003699446E+04  0.00000000000E+00 0. -1.
   -9000010    2    1    2    0  502 -0.40615143057E+03 -0.55460937338E+03 -0.16257324940E+04  0.20311855475E+04  0.10050661891E+04 0.  0.
         13    1    3    3    0    0 -0.12194067722E+03  0.27541430880E+03 -0.66561656155E+03  0.73059427073E+03  0.10566000000E+00 0. -1.
         -4    1    3    3    0  502 -0.28421075335E+03 -0.83002368218E+03 -0.96011593249E+03  0.13005912767E+04  0.00000000000E+00 0. -1.
        -13    1    1    2    0    0  0.40615143057E+03  0.55460937338E+03 -0.85035900457E+03  0.10934628432E+04  0.10566000000E+00 0.  1.
<mgrwt>
<rscale>  1 0.10554847E+04</rscale>
<asrwt>0</asrwt>
<pdfrwt beam="2">  1       21 0.43082615E+00 0.12176652E+04</pdfrwt>
<pdfrwt beam="1">  1       -4 0.49888991E-01 0.12176652E+04</pdfrwt>
<totfact> 0.56513857E-01</totfact>
</mgrwt>
</event>
<event>
 6    2  0.2345636E-005  0.1003867E+04  0.7818608E-02  0.1027828E+00
         21   -1    0    0  501  502  0.00000000000E+00  0.00000000000E+00  0.13765886820E+04  0.13765886820E+04  0.00000000000E+00 0. -1.
         -4   -1    0    0    0  501 -0.00000000000E+00 -0.00000000000E+00 -0.27132616006E+03  0.27132616006E+03  0.00000000000E+00 0. -1.
   -9000010    2    1    2    0  502  0.27638044302E+02  0.29475484691E+02  0.11882972448E+04  0.15555706920E+04  0.10030539217E+04 0.  0.
         13    1    3    3    0    0  0.15909307032E+03  0.31767953623E+02  0.13428766667E+04  0.13526409579E+04  0.10566000000E+00 0. -1.
         -4    1    3    3    0  502 -0.13145502602E+03 -0.22924689317E+01 -0.15457942188E+03  0.20292973401E+03  0.00000000000E+00 0. -1.
        -13    1    1    2    0    0 -0.27638044302E+02 -0.29475484691E+02 -0.83034722890E+02  0.92344150113E+02  0.10566000000E+00 0.  1.
<mgrwt>
<rscale>  1 0.44964504E+03</rscale>
<asrwt>0</asrwt>
<pdfrwt beam="1">  1       21 0.21178287E+00 0.10038674E+04</pdfrwt>
<pdfrwt beam="2">  1       -4 0.41742487E-01 0.10038674E+04</pdfrwt>
<totfact> 0.21580632E+01</totfact>
</mgrwt>
</event>
<event>
 6    2  0.2345636E-005  0.9915066E+03  0.7818608E-02  0.9901796E-01
         -4   -1    0    0    0  501 -0.00000000000E+00  0.00000000000E+00  0.23770327371E+03  0.23770327371E+03  0.00000000000E+00 0. -1.
         21   -1    0    0  501  502  0.00000000000E+00 -0.00000000000E+00 -0.21379267797E+04  0.21379267797E+04  0.00000000000E+00 0. -1.
   -9000010    2    1    2    0  502  0.10268055662E+03 -0.86890561984E+02 -0.19834403743E+04  0.22174582328E+04  0.98234007841E+03 0.  0.
         13    1    3    3    0    0 -0.20554974111E+02 -0.45688292163E+03 -0.16237600410E+04  0.16869384082E+04  0.10566000000E+00 0. -1.
         -4    1    3    3    0  502  0.12323553073E+03  0.36999235964E+03 -0.35968033325E+03  0.53051982465E+03  0.00000000000E+00 0. -1.
        -13    1    1    2    0    0 -0.10268055662E+03  0.86890561984E+02  0.83216868331E+02  0.15817182052E+03  0.10566000000E+00 0.  1.
<mgrwt>
<rscale>  1 0.60174343E+03</rscale>
<asrwt>0</asrwt>
<pdfrwt beam="2">  1       21 0.32891183E+00 0.99150658E+03</pdfrwt>
<pdfrwt beam="1">  1       -4 0.36569732E-01 0.99150658E+03</pdfrwt>
<totfact> 0.51275017E+00</totfact>
</mgrwt>
</event>
<event>
 6    2  0.2345636E-005  0.1013103E+04  0.7818608E-02  0.9875450E-01
         -4   -1    0    0    0  501 -0.00000000000E+00  0.00000000000E+00  0.15525671356E+04  0.15525671356E+04  0.00000000000E+00 0. -1.
         21   -1    0    0  501  502  0.00000000000E+00 -0.00000000000E+00 -0.29555386919E+03  0.29555386919E+03  0.00000000000E+00 0. -1.
   -9000010    2    1    2    0  502  0.31850316016E+02 -0.13352480760E+03  0.60111836196E+03  0.11780154506E+04  0.10037598318E+04 0.  0.
         13    1    3    3    0    0 -0.15634002179E+03 -0.19487004048E+03  0.83502539756E+03  0.87159850896E+03  0.10566000000E+00 0. -1.
         -4    1    3    3    0  502  0.18819033781E+03  0.61345232879E+02 -0.23390703560E+03  0.30641694167E+03  0.00000000000E+00 0. -1.
        -13    1    1    2    0    0 -0.31850316016E+02  0.13352480760E+03  0.65589490442E+03  0.67010555414E+03  0.10566000000E+00 0.  1.
<mgrwt>
<rscale>  1 0.61465980E+03</rscale>
<asrwt>0</asrwt>
<pdfrwt beam="2">  1       21 0.45469827E-01 0.10131027E+04</pdfrwt>
<pdfrwt beam="1">  1       -4 0.23885648E+00 0.10131027E+04</pdfrwt>
<totfact> 0.13657723E+01</totfact>
</mgrwt>
</event>
