<event>
 5    1  0.6336319E-005  0.7162212E+03  0.7818608E-02  0.9099774E-01
          4   -1    0    0  502    0 -0.00000000000E+00  0.00000000000E+00  0.14260996081E+04  0.14260996081E+04  0.00000000000E+00 0.  1.
         21   -1    0    0  501  502  0.00000000000E+00 -0.00000000000E+00 -0.44920853504E+03  0.44920853504E+03  0.00000000000E+00 0. -1.
        -13    1    1    2    0    0 -0.12991779091E+03 -0.69570360805E+03  0.81224097117E+03  0.10773196132E+04  0.10566000000E+00 0.  1.
         13    1    1    2    0    0  0.15226061024E+03  0.71868006347E+03  0.18803535745E+03  0.75831499647E+03  0.10566000000E+00 0. -1.
          4    1    1    2  501    0 -0.22342819323E+02 -0.22976455417E+02 -0.23385255547E+02  0.39673533443E+02  0.00000000000E+00 0.  1.
</event>
<event>
 5    1  0.6336319E-005  0.4839771E+03  0.7818608E-02  0.9759450E-01
         21   -1    0    0  501  502  0.00000000000E+00  0.00000000000E+00  0.74976680491E+03  0.74976680491E+03  0.00000000000E+00 0.  1.
          4   -1    0    0  502    0 -0.00000000000E+00 -0.00000000000E+00 -0.85686581731E+03  0.85686581731E+03  0.00000000000E+00 0.  1.
        -13    1    1    2    0    0  0.10713621951E+03 -0.36951268487E+03  0.32299059169E+02  0.38608423200E+03  0.10566000000E+00 0.  1.
         13    1    1    2    0    0 -0.30631900381E+02 -0.20099996244E+03 -0.50106082882E+03  0.54074140175E+03  0.10566000000E+00 0. -1.
          4    1    1    2  501    0 -0.76504319128E+02  0.57051264732E+03  0.36166275724E+03  0.67980698847E+03  0.00000000000E+00 0.  1.
</event>
<event>
 5    1  0.6336319E-005  0.3036719E+03  0.7818608E-02  0.1032745E+00
         -4   -1    0    0    0  501 -0.00000000000E+00  0.00000000000E+00  0.11087365518E+04  0.11087365518E+04  0.00000000000E+00 0. -1.
         21   -1    0    0  501  502  0.00000000000E+00 -0.00000000000E+00 -0.31249465390E+03  0.31249465390E+03  0.00000000000E+00 0. -1.
        -13    1    1    2    0    0  0.68070185765E+02 -0.11045017880E+03  0.23666954512E+03  0.26989864197E+03  0.10566000000E+00 0.  1.
         13    1    1    2    0    0 -0.17688198535E+03  0.37974958796E+03  0.70989520748E+03  0.82428648118E+03  0.10566000000E+00 0. -1.
         -4    1    1    2    0  502  0.10881179959E+03 -0.26929940916E+03 -0.15032285466E+03  0.32704608259E+03  0.00000000000E+00 0. -1.
</event>
<event>
 5    1  0.6336319E-005  0.2228193E+03  0.7818608E-02  0.1045526E+00
         21   -1    0    0  501  502  0.00000000000E+00  0.00000000000E+00  0.85154554303E+02  0.85154554303E+02  0.00000000000E+00 0. -1.
          4   -1    0    0  502    0 -0.00000000000E+00 -0.00000000000E+00 -0.15460504049E+04  0.15460504049E+04  0.00000000000E+00 0.  1.
        -13    1    1    2    0    0  0.23047692449E+03  0.33770059067E+02 -0.13289749247E+04  0.13492347428E+04  0.10566000000E+00 0.  1.
         13    1    1    2    0    0 -0.17881626102E+03 -0.30111825354E+01 -0.13126183702E+03  0.22184229409E+03  0.10566000000E+00 0. -1.
          4    1    1    2  501    0 -0.51660663469E+02 -0.30758876531E+02 -0.65908884353E+00  0.60127922246E+02  0.00000000000E+00 0.  1.
</event>
<event>
 5    1  0.6336319E-005  0.4506327E+03  0.7818608E-02  0.9593280E-01
         21   -1    0    0  501  502  0.00000000000E+00  0.00000000000E+00  0.46395264567E+03  0.46395264567E+03  0.00000000000E+00 0.  1.
         -4   -1    0    0    0  501 -0.00000000000E+00 -0.00000000000E+00 -0.79847433299E+03  0.79847433299E+03  0.00000000000E+00 0. -1.
        -13    1    1    2    0    0 -0.37424527414E+03  0.27156373226E+03  0.55265185430E+02  0.46568297991E+03  0.10566000000E+00 0.  1.
         13    1    1    2    0    0  0.36690486799E+03 -0.25506450043E+03 -0.50834138665E+03  0.67682202836E+03  0.10566000000E+00 0. -1.
         -4    1    1    2    0  502  0.73404061505E+01 -0.16499231832E+02  0.11855451391E+03  0.11992197039E+03  0.00000000000E+00 0. -1.
</event>
<event>
 5    1  0.6336319E-005  0.5618873E+03  0.7818608E-02  0.9351752E-01
         21   -1    0    0  501  502  0.00000000000E+00  0.00000000000E+00  0.34269322377E+03  0.34269322377E+03  0.00000000000E+00 0. -1.
         -4   -1    0    0    0  501 -0.00000000000E+00 -0.00000000000E+00 -0.23861628578E+04  0.23861628578E+04  0.00000000000E+00 0. -1.
        -13    1    1    2    0    0  0.45699043321E+03  0.32998662763E+03 -0.11266001570E+04  0.12597457503E+04  0.10566000000E+00 0.  1.
         13    1    1    2    0    0 -0.19804460337E+03 -0.59681227753E+03 -0.89870472741E+03  0.10968485574E+04  0.10566000000E+00 0. -1.
         -4    1    1    2    0  502 -0.25894582984E+03  0.26682564991E+03 -0.18164749680E+02  0.37226177398E+03  0.00000000000E+00 0. -1.
</event>
<event>
 5    1  0.6336319E-005  0.4361451E+02  0.7818608E-02  0.1320223E+00
         21   -1    0    0  501  502  0.00000000000E+00  0.00000000000E+00  0.27185431588E+02  0.27185431588E+02  0.00000000000E+00 0. -1.
          4   -1    0    0  502    0 -0.00000000000E+00 -0.00000000000E+00 -0.22328320141E+03  0.22328320141E+03  0.00000000000E+00 0.  1.
        -13    1    1    2    0    0 -0.76687773640E+01  0.46443089117E+02 -0.15593387018E+03  0.16288386571E+03  0.10566000000E+00 0.  1.
         13    1    1    2    0    0 -0.23166754804E+01 -0.38257229054E+02 -0.55555965700E+02  0.67494140850E+02  0.10566000000E+00 0. -1.
          4    1    1    2  501    0  0.99854528445E+01 -0.81858600625E+01  0.15392066057E+02  0.20090626446E+02  0.00000000000E+00 0.  1.
</event>
<event>
 5    1  0.6336319E-005  0.3179893E+03  0.7818608E-02  0.1037915E+00
         21   -1    0    0  501  502  0.00000000000E+00  0.00000000000E+00  0.23970274771E+03  0.23970274771E+03  0.00000000000E+00 0.  1.
          4   -1    0    0  502    0 -0.00000000000E+00 -0.00000000000E+00 -0.16388432638E+04  0.16388432638E+04  0.00000000000E+00 0.  1.
        -13    1    1    2    0    0 -0.35114552535E+03 -0.75687040593E+02 -0.94400341221E+03  0.10100367130E+04  0.10566000000E+00 0.  1.
         13    1    1    2    0    0  0.70648771378E+02 -0.65694200483E+02 -0.53562855107E+03  0.54424712471E+03  0.10566000000E+00 0. -1.
          4    1    1    2  501    0  0.28049675397E+03  0.14138124108E+03  0.80491447190E+02  0.32426217385E+03  0.00000000000E+00 0.  1.
</event>
<event>
 5    1  0.6336319E-005  0.4600216E+03  0.7818608E-02  0.9594182E-01
          4   -1    0    0  502    0 -0.00000000000E+00  0.00000000000E+00  0.25953491414E+04  0.25953491414E+04  0.00000000000E+00 0.  1.
         21   -1    0    0  501  502  0.00000000000E+00 -0.00000000000E+00 -0.25996001724E+03  0.25996001724E+03  0.00000000000E+00 0. -1.
        -13    1    1    2    0    0 -0.92571664606E+02  0.30420848861E+03  0.34182161014E+03  0.46685580424E+03  0.10566000000E+00 0.  1.
         13    1    1    2    0    0  0.16296266282E+03  0.45166115707E+03  0.11889271143E+04  0.12822255358E+04  0.10566000000E+00 0. -1.
          4    1    1    2  501    0 -0.70390998215E+02 -0.75586964568E+03  0.80464039977E+03  0.11062278187E+04  0.00000000000E+00 0.  1.
</event>
<event>
 5    1  0.6336319E-005  0.3943335E+03  0.7818608E-02  0.9745555E-01
         21   -1    0    0  501  502  0.00000000000E+00  0.00000000000E+00  0.63145096026E+03  0.63145096026E+03  0.00000000000E+00 0. -1.
         -4   -1    0    0    0  501 -0.00000000000E+00 -0.00000000000E+00 -0.10611996779E+04  0.10611996779E+04  0.00000000000E+00 0. -1.
        -13    1    1    2    0    0 -0.33525815666E+03  0.24502908180E+03 -0.46928229944E+03  0.62662841482E+03  0.10566000000E+00 0.  1.
         13    1    1    2    0    0  0.38862363477E+03 -0.68037084098E+02 -0.41664889914E+03  0.57380631804E+03  0.10566000000E+00 0. -1.
         -4    1    1    2    0  502 -0.53365478111E+02 -0.17699199770E+03  0.45618248094E+03  0.49221590529E+03  0.00000000000E+00 0. -1.
</event>
<event>
 5    1  0.6336319E-005  0.4785141E+03  0.7818608E-02  0.9854060E-01
         21   -1    0    0  501  502  0.00000000000E+00  0.00000000000E+00  0.82632097590E+03  0.82632097590E+03  0.00000000000E+00 0. -1.
         -4   -1    0    0    0  501 -0.00000000000E+00 -0.00000000000E+00 -0.42195557606E+03  0.42195557606E+03  0.00000000000E+00 0. -1.
        -13    1    1    2    0    0 -0.14519839822E+03  0.46181973943E+02  0.14944151927E+03  0.21342007499E+03  0.10566000000E+00 0.  1.
         13    1    1    2    0    0  0.16690351399E+03 -0.48199245051E+03  0.30711879811E+03  0.59539522390E+03  0.10566000000E+00 0. -1.
         -4    1    1    2    0  502 -0.21705115767E+02  0.43581047657E+03 -0.52194917532E+02  0.43946125307E+03  0.00000000000E+00 0. -1.
</event>
<event>
 5    1  0.6336319E-005  0.4256256E+03  0.7818608E-02  0.9843073E-01
          4   -1    0    0  502    0 -0.00000000000E+00  0.00000000000E+00  0.95235374505E+03  0.95235374505E+03  0.00000000000E+00 0.  1.
         21   -1    0    0  501  502  0.00000000000E+00 -0.00000000000E+00 -0.58363423922E+03  0.58363423922E+03  0.00000000000E+00 0.  1.
        -13    1    1    2    0    0  0.40790345054E+03  0.22444220916E+03 -0.36769391314E+03  0.59326078173E+03  0.10566000000E+00 0.  1.
         13    1    1    2    0    0 -0.21991738034E+03  0.46157261697E+02  0.46270253916E+03  0.51438098515E+03  0.10566000000E+00 0. -1.
          4    1    1    2  501    0 -0.18798607020E+03 -0.27059947086E+03  0.27371087982E+03  0.42834621739E+03  0.00000000000E+00 0.  1.
</event>
<event>
 5    1  0.6336319E-005  0.6520460E+02  0.7818608E-02  0.1239901E+00
         21   -1    0    0  501  502  0.00000000000E+00  0.00000000000E+00  0.46432337387E+03  0.46432337387E+03  0.00000000000E+00 0.  1.
          4   -1    0    0  502    0 -0.00000000000E+00 -0.00000000000E+00 -0.10971573845E+03  0.10971573845E+03  0.00000000000E+00 0.  1.
        -13    1    1    2    0    0  0.30264736404E+02  0.61789852915E+02 -0.77387230541E+02  0.10355063886E+03  0.10566000000E+00 0.  1.
         13    1    1    2    0    0 -0.19225860848E+02 -0.51156763573E+02  0.19979269653E+02  0.58187890188E+02  0.10566000000E+00 0. -1.
          4    1    1    2  501    0 -0.11038875556E+02 -0.10633089342E+02  0.41201559631E+03  0.41230058327E+03  0.00000000000E+00 0.  1.
</event>
<event>
 5    1  0.6336319E-005  0.6168826E+03  0.7818608E-02  0.9253148E-01
         21   -1    0    0  501  502  0.00000000000E+00  0.00000000000E+00  0.15113193561E+04  0.15113193561E+04  0.00000000000E+00 0. -1.
          4   -1    0    0  502    0 -0.00000000000E+00 -0.00000000000E+00 -0.65209296335E+03  0.65209296335E+03  0.00000000000E+00 0.  1.
        -13    1    1    2    0    0  0.72347740236E+02 -0.82361971239E+03  0.87223289539E+03  0.12018210604E+04  0.10566000000E+00 0.  1.
         13    1    1    2    0    0  0.11578596642E+03  0.56718475309E+03 -0.17487980060E+03  0.60472133250E+03  0.10566000000E+00 0. -1.
          4    1    1    2  501    0 -0.18813370666E+03  0.25643495930E+03  0.16187329800E+03  0.35686992664E+03  0.00000000000E+00 0.  1.
</event>
<event>
 5    1  0.6336319E-005  0.4566017E+03  0.7818608E-02  0.9697111E-01
         21   -1    0    0  501  502  0.00000000000E+00  0.00000000000E+00  0.53348749797E+03  0.53348749797E+03  0.00000000000E+00 0. -1.
         -4   -1    0    0    0  501 -0.00000000000E+00 -0.00000000000E+00 -0.85531997612E+03  0.85531997612E+03  0.00000000000E+00 0. -1.
        -13    1    1    2    0    0 -0.28672856049E+03  0.89831866088E+02 -0.96968598949E+02  0.31573082192E+03  0.10566000000E+00 0.  1.
         13    1    1    2    0    0  0.34388739373E+03  0.37072586534E+03 -0.32125177823E+03  0.59908173313E+03  0.10566000000E+00 0. -1.
         -4    1    1    2    0  502 -0.57158833235E+02 -0.46055773142E+03  0.96387899022E+02  0.47399491903E+03  0.00000000000E+00 0. -1.
</event>
<event>
 5    1  0.6336319E-005  0.2223636E+03  0.7818608E-02  0.1045799E+00
         21   -1    0    0  501  502  0.00000000000E+00  0.00000000000E+00  0.65774164123E+03  0.65774164123E+03  0.00000000000E+00 0. -1.
         -4   -1    0    0    0  501 -0.00000000000E+00 -0.00000000000E+00 -0.27127976090E+03  0.27127976090E+03  0.00000000000E+00 0. -1.
        -13    1    1    2    0    0 -0.20622597919E+03 -0.11413838752E+03  0.25757299103E+03  0.34914263972E+03  0.10566000000E+00 0.  1.
         13    1    1    2    0    0  0.18891621350E+03  0.11277940530E+03 -0.17151531371E+03  0.27897319582E+03  0.10566000000E+00 0. -1.
         -4    1    1    2    0  502  0.17309765687E+02  0.13589822196E+01  0.30040420300E+03  0.30090556659E+03  0.00000000000E+00 0. -1.
</event>
<event>
 5    1  0.6336319E-005  0.8017130E+02  0.7818608E-02  0.1202314E+00
          4   -1    0    0  502    0 -0.00000000000E+00  0.00000000000E+00  0.21928938782E+03  0.21928938782E+03  0.00000000000E+00 0.  1.
         21   -1    0    0  501  502  0.00000000000E+00 -0.00000000000E+00 -0.44202083095E+02  0.44202083095E+02  0.00000000000E+00 0. -1.
        -13    1    1    2    0    0  0.66545770131E+02  0.52738198259E+02  0.14854015082E+03  0.17109601003E+03  0.10566000000E+00 0.  1.
         13    1    1    2    0    0 -0.57625410953E+02 -0.36995577182E+02  0.12785031988E+02  0.69662248926E+02  0.10566000000E+00 0. -1.
          4    1    1    2  501    0 -0.89203591779E+01 -0.15742621077E+02  0.13762121911E+02  0.22733211954E+02  0.00000000000E+00 0.  1.
</event>
<event>
 5    1  0.6336319E-005  0.1041543E+03  0.7818608E-02  0.1157859E+00
          4   -1    0    0  502    0 -0.00000000000E+00  0.00000000000E+00  0.62063016733E+02  0.62063016733E+02  0.00000000000E+00 0.  1.
         21   -1    0    0  501  502  0.00000000000E+00 -0.00000000000E+00 -0.62164751705E+03  0.62164751705E+03  0.00000000000E+00 0.  1.
        -13    1    1    2    0    0  0.89605512208E+02 -0.70095368963E+02 -0.56739959494E+01  0.11390660193E+03  0.10566000000E+00 0.  1.
         13    1    1    2    0    0 -0.64054925088E+02  0.34687621279E+02 -0.19348349482E+03  0.20674171914E+03  0.10566000000E+00 0. -1.
          4    1    1    2  501    0 -0.25550587120E+02  0.35407747684E+02 -0.36042700954E+03  0.36306221272E+03  0.00000000000E+00 0.  1.
</event>
<event>
 5    1  0.6336319E-005  0.3550879E+03  0.7818608E-02  0.1040875E+00
         21   -1    0    0  501  502  0.00000000000E+00  0.00000000000E+00  0.51943411532E+03  0.51943411532E+03  0.00000000000E+00 0. -1.
         -4   -1    0    0    0  501 -0.00000000000E+00 -0.00000000000E+00 -0.78404590590E+03  0.78404590590E+03  0.00000000000E+00 0. -1.
        -13    1    1    2    0    0  0.52283589119E+02  0.35743501047E+02 -0.28141514930E+03  0.28845392869E+03  0.10566000000E+00 0.  1.
         13    1    1    2    0    0 -0.33904430408E+03  0.16812369491E+03 -0.34374572268E+03  0.51125116131E+03  0.10566000000E+00 0. -1.
         -4    1    1    2    0  502  0.28676071496E+03 -0.20386719596E+03  0.36054908139E+03  0.50377493122E+03  0.00000000000E+00 0. -1.
</event>
<event>
 5    1  0.6336319E-005  0.1640802E+03  0.7818608E-02  0.1087999E+00
         -4   -1    0    0    0  501 -0.00000000000E+00  0.00000000000E+00  0.30685654851E+03  0.30685654851E+03  0.00000000000E+00 0. -1.
         21   -1    0    0  501  502  0.00000000000E+00 -0.00000000000E+00 -0.29154516483E+03  0.29154516483E+03  0.00000000000E+00 0. -1.
        -13    1    1    2    0    0 -0.31528725781E+02 -0.15150514408E+03 -0.31962992789E+02  0.15801744620E+03  0.10566000000E+00 0.  1.
         13    1    1    2    0    0  0.40250209808E+02  0.16198993336E+03  0.21495408718E+03  0.27215085644E+03  0.10566000000E+00 0. -1.
         -4    1    1    2    0  502 -0.87214840268E+01 -0.10484789278E+02 -0.16767971071E+03  0.16823341069E+03  0.00000000000E+00 0. -1.
</event>
<event>
 5    1  0.6336319E-005  0.5524674E+02  0.7818608E-02  0.1276701E+00
         21   -1    0    0  501  502  0.00000000000E+00  0.00000000000E+00  0.14445812252E+03  0.14445812252E+03  0.00000000000E+00 0.  1.
          4   -1    0    0  502    0 -0.00000000000E+00 -0.00000000000E+00 -0.90074183750E+02  0.90074183750E+02  0.00000000000E+00 0.  1.
        -13    1    1    2    0    0  0.35425708738E+01 -0.91543942982E+02 -0.30357686686E+02  0.96511365186E+02  0.10566000000E+00 0.  1.
         13    1    1    2    0    0 -0.23344129901E+02  0.44247858903E+02  0.16532585677E+02  0.52689268087E+02  0.10566000000E+00 0. -1.
          4    1    1    2  501    0  0.19801559027E+02  0.47296084079E+02  0.68209039775E+02  0.85331672995E+02  0.00000000000E+00 0.  1.
</event>
<event>
 5    1  0.6336319E-005  0.2783730E+03  0.7818608E-02  0.1016654E+00
          4   -1    0    0  502    0 -0.00000000000E+00  0.00000000000E+00  0.15457429750E+03  0.15457429750E+03  0.00000000000E+00 0.  1.
         21   -1    0    0  501  502  0.00000000000E+00 -0.00000000000E+00 -0.77089052320E+03  0.77089052320E+03  0.00000000000E+00 0. -1.
        -13    1    1    2    0    0 -0.20037226534E+03  0.18969166785E+03 -0.54061275183E+02  0.28116650975E+03  0.10566000000E+00 0.  1.
         13    1    1    2    0    0  0.19455231929E+03 -0.21016684851E+03 -0.47652051149E+03  0.55596089627E+03  0.10566000000E+00 0. -1.
          4    1    1    2  501    0  0.58199460514E+01  0.20475180655E+02 -0.85734439029E+02  0.88337414669E+02  0.00000000000E+00 0.  1.
</event>
<event>
 5    1  0.6336319E-005  0.1621346E+03  0.7818608E-02  0.1089724E+00
         -4   -1    0    0    0  501 -0.00000000000E+00  0.00000000000E+00  0.10298616266E+04  0.10298616266E+04  0.00000000000E+00 0. -1.
         21   -1    0    0  501  502  0.00000000000E+00 -0.00000000000E+00 -0.71876801058E+02  0.71876801058E+02  0.00000000000E+00 0.  1.
        -13    1    1    2    0    0  0.18246076555E+03  0.12495635744E+02  0.25641700841E+03  0.31495676726E+03  0.10566000000E+00 0.  1.
         13    1    1    2    0    0 -0.15385442423E+03 -0.28650835760E+02  0.72799011526E+03  0.74462183242E+03  0.10566000000E+00 0. -1.
         -4    1    1    2    0  502 -0.28606341319E+02  0.16155200016E+02 -0.26422298164E+02  0.42159827935E+02  0.00000000000E+00 0. -1.
</event>
<event>
 5    1  0.6336319E-005  0.5484367E+03  0.7818608E-02  0.9377691E-01
         -4   -1    0    0    0  501 -0.00000000000E+00  0.00000000000E+00  0.24314140999E+04  0.24314140999E+04  0.00000000000E+00 0. -1.
         21   -1    0    0  501  502  0.00000000000E+00 -0.00000000000E+00 -0.41383989862E+03  0.41383989862E+03  0.00000000000E+00 0.  1.
        -13    1    1    2    0    0 -0.54694187884E+03  0.86668538008E+02  0.18239988501E+04  0.19062079295E+04  0.10566000000E+00 0.  1.
         13    1    1    2    0    0  0.50299469266E+03 -0.20025025030E+03  0.41781644589E+03  0.68386725116E+03  0.10566000000E+00 0. -1.
         -4    1    1    2    0  502  0.43947186178E+02  0.11358171229E+03 -0.22424109468E+03  0.25517881785E+03  0.00000000000E+00 0. -1.
</event>
<event>
 5    1  0.6336319E-005  0.8751221E+02  0.7818608E-02  0.1187054E+00
         21   -1    0    0  501  502  0.00000000000E+00  0.00000000000E+00  0.12497202847E+03  0.12497202847E+03  0.00000000000E+00 0.  1.
         -4   -1    0    0    0  501 -0.00000000000E+00 -0.00000000000E+00 -0.80951449366E+02  0.80951449366E+02  0.00000000000E+00 0. -1.
        -13    1    1    2    0    0 -0.39901792681E+02  0.77257869528E+02  0.51488805549E+02  0.10105463732E+03  0.10566000000E+00 0.  1.
         13    1    1    2    0    0  0.50270931444E+02 -0.72250306413E+02 -0.17329487394E+02  0.89708392151E+02  0.10566000000E+00 0. -1.
         -4    1    1    2    0  502 -0.10369138762E+02 -0.50075631155E+01  0.98612609449E+01  0.15160448359E+02  0.00000000000E+00 0. -1.
</event>
<event>
 5    1  0.6336319E-005  0.2112904E+03  0.7818608E-02  0.1052660E+00
          4   -1    0    0  502    0 -0.00000000000E+00  0.00000000000E+00  0.11607014170E+04  0.11607014170E+04  0.00000000000E+00 0.  1.
         21   -1    0    0  501  502  0.00000000000E+00 -0.00000000000E+00 -0.52893806251E+02  0.52893806251E+02  0.00000000000E+00 0. -1.
        -13    1    1    2    0    0 -0.20453121876E+03 -0.58559414596E+02  0.57822496348E+03  0.61612202041E+03  0.10566000000E+00 0.  1.
         13    1    1    2    0    0  0.20908373758E+03  0.27689161612E+02  0.52519567671E+03  0.56596219749E+03  0.10566000000E+00 0. -1.
          4    1    1    2  501    0 -0.45525188292E+01  0.30870252984E+02  0.43869705576E+01  0.31511005342E+02  0.00000000000E+00 0.  1.
</event>
<event>
 5    1  0.6336319E-005  0.2133602E+03  0.7818608E-02  0.1051344E+00
          4   -1    0    0  502    0 -0.00000000000E+00  0.00000000000E+00  0.11296311302E+03  0.11296311302E+03  0.00000000000E+00 0.  1.
         21   -1    0    0  501  502  0.00000000000E+00 -0.00000000000E+00 -0.86647804224E+03  0.86647804224E+03  0.00000000000E+00 0. -1.
        -13    1    1    2    0    0  0.17923615714E+03  0.11964883034E+03 -0.24845307298E+02  0.21693027240E+03  0.10566000000E+00 0.  1.
         13    1    1    2    0    0 -0.15898795076E+03 -0.12523621588E+03 -0.63321697140E+03  0.66477441459E+03  0.10566000000E+00 0. -1.
          4    1    1    2  501    0 -0.20248206376E+02  0.55873855386E+01 -0.95452650522E+02  0.97736468272E+02  0.00000000000E+00 0.  1.
</event>
<event>
 5    1  0.6336319E-005  0.2022395E+03  0.7818608E-02  0.1072997E+00
         21   -1    0    0  501  502  0.00000000000E+00  0.00000000000E+00  0.13429220318E+04  0.13429220318E+04  0.00000000000E+00 0. -1.
         -4   -1    0    0    0  501 -0.00000000000E+00 -0.00000000000E+00 -0.30388271274E+03  0.30388271274E+03  0.00000000000E+00 0. -1.
        -13    1    1    2    0    0  0.11069187964E+03  0.74673159101E+02 -0.67141475205E+02  0.14945488204E+03  0.10566000000E+00 0.  1.
         13    1    1    2    0    0 -0.13722372481E+03 -0.27129384851E+03 -0.63816458465E+02  0.31064972948E+03  0.10566000000E+00 0. -1.
         -4    1    1    2    0  502  0.26531845171E+02  0.19662068941E+03  0.11699972527E+04  0.11867001330E+04  0.00000000000E+00 0. -1.
</event>
<event>
 5    1  0.6336319E-005  0.4833779E+03  0.7818608E-02  0.9515168E-01
          4   -1    0    0  502    0 -0.00000000000E+00  0.00000000000E+00  0.66964664628E+03  0.66964664628E+03  0.00000000000E+00 0.  1.
         21   -1    0    0  501  502  0.00000000000E+00 -0.00000000000E+00 -0.15496424952E+04  0.15496424952E+04  0.00000000000E+00 0.  1.
        -13    1    1    2    0    0  0.21121197936E+03 -0.24479802109E+03 -0.11952246859E+04  0.12381836020E+04  0.10566000000E+00 0.  1.
         13    1    1    2    0    0 -0.51583006135E+03  0.53260862138E+01  0.29238041547E+03  0.59295475198E+03  0.10566000000E+00 0. -1.
          4    1    1    2  501    0  0.30461808199E+03  0.23947193487E+03  0.22848421504E+02  0.38815078749E+03  0.00000000000E+00 0.  1.
</event>
<event>
 5    1  0.6336319E-005  0.4634436E+02  0.7818608E-02  0.1307433E+00
         21   -1    0    0  501  502  0.00000000000E+00  0.00000000000E+00  0.13959158126E+03  0.13959158126E+03  0.00000000000E+00 0.  1.
         -4   -1    0    0    0  501 -0.00000000000E+00 -0.00000000000E+00 -0.30016777751E+02  0.30016777751E+02  0.00000000000E+00 0. -1.
        -13    1    1    2    0    0 -0.42713912402E+02  0.21528302796E+02  0.84693431895E+02  0.97267336266E+02  0.10566000000E+00 0.  1.
         13    1    1    2    0    0  0.45624455302E+02 -0.82297191633E+01  0.28567633886E+01  0.46448804723E+02  0.10566000000E+00 0. -1.
         -4    1    1    2    0  502 -0.29105429004E+01 -0.13298583632E+02  0.22024608223E+02  0.25892218020E+02  0.00000000000E+00 0. -1.
</event>
<event>
 5    1  0.6336319E-005  0.2846776E+02  0.7818608E-02  0.1417650E+00
         21   -1    0    0  501  502  0.00000000000E+00  0.00000000000E+00  0.35003839351E+02  0.35003839351E+02  0.00000000000E+00 0. -1.
         -4   -1    0    0    0  501 -0.00000000000E+00 -0.00000000000E+00 -0.69086631674E+02  0.69086631674E+02  0.00000000000E+00 0. -1.
        -13    1    1    2    0    0 -0.15588077798E+02  0.13985708930E+02  0.15962640055E+02  0.26332589415E+02  0.10566000000E+00 0.  1.
         13    1    1    2    0    0  0.13555786225E+02 -0.26806551770E+02 -0.55944681246E+02  0.63499362845E+02  0.10566000000E+00 0. -1.
         -4    1    1    2    0  502  0.20322915733E+01  0.12820842840E+02  0.58992488681E+01  0.14258518765E+02  0.00000000000E+00 0. -1.
</event>
<event>
 5    1  0.6336319E-005  0.1644315E+03  0.7818608E-02  0.1087690E+00
         21   -1    0    0  501  502  0.00000000000E+00  0.00000000000E+00  0.66726651110E+02  0.66726651110E+02  0.00000000000E+00 0.  1.
         -4   -1    0    0    0  501 -0.00000000000E+00 -0.00000000000E+00 -0.74993720726E+03  0.74993720726E+03  0.00000000000E+00 0. -1.
        -13    1    1    2    0    0 -0.72653709314E+02  0.14828006146E+03 -0.19748393479E+03  0.25742077183E+03  0.10566000000E+00 0.  1.
         13    1    1    2    0    0  0.86597887443E+02 -0.13971642312E+03 -0.50666865084E+03  0.53266594213E+03  0.10566000000E+00 0. -1.
         -4    1    1    2    0  502 -0.13944178129E+02 -0.85636383471E+01  0.20942029489E+02  0.26577144402E+02  0.00000000000E+00 0. -1.
</event>
<event>
 5    1  0.6336319E-005  0.5060424E+03  0.7818608E-02  0.9669392E-01
         21   -1    0    0  501  502  0.00000000000E+00  0.00000000000E+00  0.15012251451E+03  0.15012251451E+03  0.00000000000E+00 0.  1.
          4   -1    0    0  502    0 -0.00000000000E+00 -0.00000000000E+00 -0.29774764162E+04  0.29774764162E+04  0.00000000000E+00 0.  1.
        -13    1    1    2    0    0  0.39942222785E+03  0.24843610363E+02 -0.84884813490E+03  0.93845537367E+03  0.10566000000E+00 0.  1.
         13    1    1    2    0    0  0.24159710778E+03  0.27680154970E+02 -0.91061645497E+03  0.94252729016E+03  0.10566000000E+00 0. -1.
          4    1    1    2  501    0 -0.64101933563E+03 -0.52523765333E+02 -0.10678893118E+04  0.12466162669E+04  0.00000000000E+00 0.  1.
</event>
<event>
 5    1  0.6336319E-005  0.2991146E+03  0.7818608E-02  0.1007672E+00
         -4   -1    0    0    0  501 -0.00000000000E+00  0.00000000000E+00  0.15641040915E+04  0.15641040915E+04  0.00000000000E+00 0. -1.
         21   -1    0    0  501  502  0.00000000000E+00 -0.00000000000E+00 -0.11532807415E+03  0.11532807415E+03  0.00000000000E+00 0.  1.
        -13    1    1    2    0    0 -0.10301229515E+03 -0.24105356101E+03  0.14265442311E+03  0.29844370964E+03  0.10566000000E+00 0.  1.
         13    1    1    2    0    0  0.17790987593E+03  0.25292219704E+03  0.12471804422E+04  0.12849438230E+04  0.10566000000E+00 0. -1.
         -4    1    1    2    0  502 -0.74897580776E+02 -0.11868636039E+02  0.58941152075E+02  0.96044633038E+02  0.00000000000E+00 0. -1.
</event>
<event>
 5    1  0.6336319E-005  0.3158767E+03  0.7818608E-02  0.1000959E+00
         21   -1    0    0  501  502  0.00000000000E+00  0.00000000000E+00  0.31582760314E+03  0.31582760314E+03  0.00000000000E+00 0.  1.
          4   -1    0    0  502    0 -0.00000000000E+00 -0.00000000000E+00 -0.23791296801E+04  0.23791296801E+04  0.00000000000E+00 0.  1.
        -13    1    1    2    0    0  0.36031602891E+03  0.24564206047E+02 -0.92694206304E+03  0.99481286698E+03  0.10566000000E+00 0.  1.
         13    1    1    2    0    0 -0.29089393737E+03  0.72671855074E+02 -0.13888327278E+04  0.14208296303E+04  0.10566000000E+00 0. -1.
          4    1    1    2  501    0 -0.69422091545E+02 -0.97236061121E+02  0.25247271391E+03  0.27931478595E+03  0.00000000000E+00 0.  1.
</event>
<event>
 5    1  0.6336319E-005  0.1702446E+03  0.7818608E-02  0.1092483E+00
          4   -1    0    0  502    0 -0.00000000000E+00  0.00000000000E+00  0.24978936473E+03  0.24978936473E+03  0.00000000000E+00 0.  1.
         21   -1    0    0  501  502  0.00000000000E+00 -0.00000000000E+00 -0.34634476238E+03  0.34634476238E+03  0.00000000000E+00 0.  1.
        -13    1    1    2    0    0 -0.24312353043E+03 -0.81813271994E+02  0.63804846442E+02  0.26433602122E+03  0.10566000000E+00 0.  1.
         13    1    1    2    0    0  0.12813970649E+03 -0.20718693390E+02 -0.38569031421E+02  0.13541281322E+03  0.10566000000E+00 0. -1.
          4    1    1    2  501    0  0.11498382394E+03  0.10253196538E+03 -0.12179121268E+03  0.19638529267E+03  0.00000000000E+00 0.  1.
</event>
<event>
 5    1  0.6336319E-005  0.4429701E+03  0.7818608E-02  0.9612576E-01
         -4   -1    0    0    0  501 -0.00000000000E+00  0.00000000000E+00  0.72541714580E+03  0.72541714580E+03  0.00000000000E+00 0. -1.
         21   -1    0    0  501  502  0.00000000000E+00 -0.00000000000E+00 -0.94867556930E+03  0.94867556930E+03  0.00000000000E+00 0.  1.
        -13    1    1    2    0    0 -0.16606193551E+03  0.44520070298E+03 -0.15524155638E+02  0.47541691486E+03  0.10566000000E+00 0.  1.
         13    1    1    2    0    0 -0.77874472950E+02 -0.39396404096E+03 -0.60710255100E+03  0.72790495101E+03  0.10566000000E+00 0. -1.
         -4    1    1    2    0  502  0.24393640846E+03 -0.51236662027E+02  0.39936828314E+03  0.47077084923E+03  0.00000000000E+00 0. -1.
</event>
<event>
 5    1  0.6336319E-005  0.6179218E+02  0.7818608E-02  0.1250065E+00
          4   -1    0    0  502    0 -0.00000000000E+00  0.00000000000E+00  0.74552306069E+02  0.74552306069E+02  0.00000000000E+00 0.  1.
         21   -1    0    0  501  502  0.00000000000E+00 -0.00000000000E+00 -0.13506592084E+03  0.13506592084E+03  0.00000000000E+00 0.  1.
        -13    1    1    2    0    0 -0.49892579000E+02  0.51886902476E+02  0.13947735090E+02  0.73321692329E+02  0.10566000000E+00 0.  1.
         13    1    1    2    0    0  0.41539548320E+02 -0.33987606324E+02  0.54798595581E+01  0.53951195381E+02  0.10566000000E+00 0. -1.
          4    1    1    2  501    0  0.83530306795E+01 -0.17899296152E+02 -0.79941209422E+02  0.82345339201E+02  0.00000000000E+00 0.  1.
</event>
<event>
 5    1  0.6336319E-005  0.8611619E+02  0.7818608E-02  0.1218706E+00
         21   -1    0    0  501  502  0.00000000000E+00  0.00000000000E+00  0.16549326320E+03  0.16549326320E+03  0.00000000000E+00 0. -1.
         -4   -1    0    0    0  501 -0.00000000000E+00 -0.00000000000E+00 -0.80710379526E+02  0.80710379526E+02  0.00000000000E+00 0. -1.
        -13    1    1    2    0    0 -0.79225033388E+01 -0.44118847949E+02 -0.32869722664E+01  0.44945012562E+02  0.10566000000E+00 0.  1.
         13    1    1    2    0    0 -0.55602850546E+02  0.80828510752E+02  0.81595847531E+02  0.12760414820E+03  0.10566000000E+00 0. -1.
         -4    1    1    2    0  502  0.63525353885E+02 -0.36709662803E+02  0.64740084136E+01  0.73654481970E+02  0.00000000000E+00 0. -1.
</event>
<event>
 5    1  0.6336319E-005  0.4947730E+03  0.7818608E-02  0.9869629E-01
         21   -1    0    0  501  502  0.00000000000E+00  0.00000000000E+00  0.10402768358E+03  0.10402768358E+03  0.00000000000E+00 0. -1.
         -4   -1    0    0    0  501 -0.00000000000E+00 -0.00000000000E+00 -0.31031622365E+04  0.31031622365E+04  0.00000000000E+00 0. -1.
        -13    1    1    2    0    0  0.68124106573E+01 -0.13060735998E+03 -0.38378446156E+03  0.40545679858E+03  0.10566000000E+00 0.  1.
         13    1    1    2    0    0  0.44684758480E+03 -0.13136881543E+03 -0.14754261081E+04  0.15471951206E+04  0.10566000000E+00 0. -1.
         -4    1    1    2    0  502 -0.45365999546E+03  0.26197617541E+03 -0.11399239833E+04  0.12545380009E+04  0.00000000000E+00 0. -1.
</event>
<event>
 5    1  0.6336319E-005  0.3473311E+03  0.7818608E-02  0.9981899E-01
          4   -1    0    0  502    0 -0.00000000000E+00  0.00000000000E+00  0.16422850938E+04  0.16422850938E+04  0.00000000000E+00 0.  1.
         21   -1    0    0  501  502  0.00000000000E+00 -0.00000000000E+00 -0.30100528264E+03  0.30100528264E+03  0.00000000000E+00 0.  1.
        -13    1    1    2    0    0 -0.24540395292E+03  0.20449910551E+03  0.80783627113E+03  0.86870158074E+03  0.10566000000E+00 0.  1.
         13    1    1    2    0    0  0.20654809439E+03  0.15822354989E+03  0.64303968044E+03  0.69368353651E+03  0.10566000000E+00 0. -1.
          4    1    1    2  501    0  0.38855858532E+02 -0.36272265540E+03 -0.10959614042E+03  0.38090525919E+03  0.00000000000E+00 0.  1.
</event>
<event>
 5    1  0.6336319E-005  0.2414518E+03  0.7818608E-02  0.1034920E+00
         21   -1    0    0  501  502  0.00000000000E+00  0.00000000000E+00  0.37922177139E+03  0.37922177139E+03  0.00000000000E+00 0.  1.
          4   -1    0    0  502    0 -0.00000000000E+00 -0.00000000000E+00 -0.13530296829E+04  0.13530296829E+04  0.00000000000E+00 0.  1.
        -13    1    1    2    0    0 -0.67396441858E+02 -0.23521483805E+03  0.31344270208E+03  0.39763631507E+03  0.10566000000E+00 0.  1.
         13    1    1    2    0    0  0.86163538013E+02  0.22538593946E+03 -0.59534307095E+03  0.64238334371E+03  0.10566000000E+00 0. -1.
          4    1    1    2  501    0 -0.18767096154E+02  0.98288985891E+01 -0.69190754268E+03  0.69223179555E+03  0.00000000000E+00 0.  1.
</event>
<event>
 5    1  0.6336319E-005  0.3368495E+03  0.7818608E-02  0.9931604E-01
         21   -1    0    0  501  502  0.00000000000E+00  0.00000000000E+00  0.11659069892E+04  0.11659069892E+04  0.00000000000E+00 0. -1.
          4   -1    0    0  502    0 -0.00000000000E+00 -0.00000000000E+00 -0.13629674591E+03  0.13629674591E+03  0.00000000000E+00 0.  1.
        -13    1    1    2    0    0  0.22952316215E+03  0.24004544592E+03  0.29247989201E+03  0.44254626477E+03  0.10566000000E+00 0.  1.
         13    1    1    2    0    0 -0.22522832289E+03 -0.25907050798E+03  0.42231380740E+03  0.54423734585E+03  0.10566000000E+00 0. -1.
          4    1    1    2  501    0 -0.42948392553E+01  0.19025062059E+02  0.31481654389E+03  0.31542012450E+03  0.00000000000E+00 0.  1.
</event>
<event>
 5    1  0.6336319E-005  0.4823979E+03  0.7818608E-02  0.9634843E-01
          4   -1    0    0  502    0 -0.00000000000E+00  0.00000000000E+00  0.17053696209E+04  0.17053696209E+04  0.00000000000E+00 0.  1.
         21   -1    0    0  501  502  0.00000000000E+00 -0.00000000000E+00 -0.46163707371E+03  0.46163707371E+03  0.00000000000E+00 0.  1.
        -13    1    1    2    0    0  0.47151025997E+03  0.13710129200E+03 -0.21678049847E+02  0.49151667167E+03  0.10566000000E+00 0.  1.
         13    1    1    2    0    0  0.27945578635E+02 -0.31576248382E+03  0.10604582683E+04  0.11068236768E+04  0.10566000000E+00 0. -1.
          4    1    1    2  501    0 -0.49945583860E+03  0.17866119182E+03  0.20495232875E+03  0.56866634614E+03  0.00000000000E+00 0.  1.
</event>
<event>
 5    1  0.6336319E-005  0.5073186E+03  0.7818608E-02  0.9486234E-01
         -4   -1    0    0    0  501 -0.00000000000E+00  0.00000000000E+00  0.76248725090E+03  0.76248725090E+03  0.00000000000E+00 0. -1.
         21   -1    0    0  501  502  0.00000000000E+00 -0.00000000000E+00 -0.85327998380E+03  0.85327998380E+03  0.00000000000E+00 0.  1.
        -13    1    1    2    0    0  0.46446464563E+03  0.37765587825E+00  0.10143776847E+03  0.47541264361E+03  0.10566000000E+00 0.  1.
         13    1    1    2    0    0 -0.23230746486E+03 -0.50661071739E+03 -0.21123183310E+02  0.55773414566E+03  0.10566000000E+00 0. -1.
         -4    1    1    2    0  502 -0.23215718077E+03  0.50623306151E+03 -0.17110731807E+03  0.58262044544E+03  0.00000000000E+00 0. -1.
</event>
<event>
 5    1  0.6336319E-005  0.4950271E+03  0.7818608E-02  0.1003137E+00
         21   -1    0    0  501  502  0.00000000000E+00  0.00000000000E+00  0.12634066372E+04  0.12634066372E+04  0.00000000000E+00 0. -1.
         -4   -1    0    0    0  501 -0.00000000000E+00 -0.00000000000E+00 -0.41441786555E+03  0.41441786555E+03  0.00000000000E+00 0. -1.
        -13    1    1    2    0    0 -0.14519769214E+02  0.75047104107E+02 -0.20610424260E+03  0.21982234080E+03  0.10566000000E+00 0.  1.
         13    1    1    2    0    0 -0.64812606170E+02 -0.52135963489E+03  0.73334603670E+03  0.90211582600E+03  0.10566000000E+00 0. -1.
         -4    1    1    2    0  502  0.79332375383E+02  0.44631253078E+03  0.32174697751E+03  0.55588633591E+03  0.00000000000E+00 0. -1.
</event>
<event>
 5    1  0.6336319E-005  0.3154260E+03  0.7818608E-02  0.1047688E+00
         -4   -1    0    0    0  501 -0.00000000000E+00  0.00000000000E+00  0.94159320975E+03  0.94159320975E+03  0.00000000000E+00 0. -1.
         21   -1    0    0  501  502  0.00000000000E+00 -0.00000000000E+00 -0.23078399656E+03  0.23078399656E+03  0.00000000000E+00 0. -1.
        -13    1    1    2    0    0  0.28616995204E+01 -0.73568223379E+02  0.38570100868E+03  0.39266493615E+03  0.10566000000E+00 0.  1.
         13    1    1    2    0    0  0.10021129919E+03  0.35157530053E+03  0.31576048791E+03  0.48306541308E+03  0.10566000000E+00 0. -1.
         -4    1    1    2    0  502 -0.10307299872E+03 -0.27800707715E+03  0.93477165927E+01  0.29664685708E+03  0.00000000000E+00 0. -1.
</event>
<event>
 5    1  0.6336319E-005  0.4768071E+03  0.7818608E-02  0.9932405E-01
          4   -1    0    0  502    0 -0.00000000000E+00  0.00000000000E+00  0.17422212640E+04  0.17422212640E+04  0.00000000000E+00 0.  1.
         21   -1    0    0  501  502  0.00000000000E+00 -0.00000000000E+00 -0.20174501291E+03  0.20174501291E+03  0.00000000000E+00 0.  1.
        -13    1    1    2    0    0 -0.42169404009E+03  0.11143809957E+03  0.35006496516E+03  0.55927614331E+03  0.10566000000E+00 0.  1.
         13    1    1    2    0    0 -0.11710376510E+03  0.17850884404E+02  0.41552114499E+03  0.43207612636E+03  0.10566000000E+00 0. -1.
          4    1    1    2  501    0  0.53879780519E+03 -0.12928898398E+03  0.77489014097E+03  0.95261400726E+03  0.00000000000E+00 0.  1.
</event>
<event>
 5    1  0.6336319E-005  0.4029103E+03  0.7818608E-02  0.1024534E+00
          4   -1    0    0  502    0 -0.00000000000E+00  0.00000000000E+00  0.10012644019E+04  0.10012644019E+04  0.00000000000E+00 0.  1.
         21   -1    0    0  501  502  0.00000000000E+00 -0.00000000000E+00 -0.31095340170E+03  0.31095340170E+03  0.00000000000E+00 0.  1.
        -13    1    1    2    0    0  0.46328139565E+02 -0.39189151281E+03  0.12127091439E+01  0.39462227022E+03  0.10566000000E+00 0.  1.
         13    1    1    2    0    0 -0.54307161447E+02 -0.46724364281E+02 -0.28029550926E+02  0.76929194010E+02  0.10566000000E+00 0. -1.
          4    1    1    2  501    0  0.79790218823E+01  0.43861587709E+03  0.71712784201E+03  0.84066633940E+03  0.00000000000E+00 0.  1.
</event>
<event>
 5    1  0.6336319E-005  0.3715006E+03  0.7818608E-02  0.1008073E+00
          4   -1    0    0  502    0 -0.00000000000E+00  0.00000000000E+00  0.24845376545E+04  0.24845376545E+04  0.00000000000E+00 0.  1.
         21   -1    0    0  501  502  0.00000000000E+00 -0.00000000000E+00 -0.16700498035E+03  0.16700498035E+03  0.00000000000E+00 0.  1.
        -13    1    1    2    0    0 -0.28861538415E+03  0.30180031207E+03  0.13339624118E+04  0.13977975517E+04  0.10566000000E+00 0.  1.
         13    1    1    2    0    0  0.14936445221E+03  0.37983519503E+02  0.84865258217E+03  0.86253330586E+03  0.10566000000E+00 0. -1.
          4    1    1    2  501    0  0.13925093195E+03 -0.33978383157E+03  0.13491768018E+03  0.39121177726E+03  0.00000000000E+00 0.  1.
</event>
<event>
 5    1  0.1270161E-004  0.6748001E+03  0.7818608E-02  0.9456706E-01
         21   -1    0    0  501  502  0.00000000000E+00  0.00000000000E+00  0.78744821675E+03  0.78744821675E+03  0.00000000000E+00 0. -1.
          4   -1    0    0  502    0 -0.00000000000E+00 -0.00000000000E+00 -0.26460106654E+04  0.26460106654E+04  0.00000000000E+00 0.  1.
        -13    1    1    2    0    0  0.23829929636E+03  0.72803601885E+01 -0.11284095342E+03  0.26376627954E+03  0.10566000000E+00 0.  1.
         13    1    1    2    0    0  0.54178807091E+03  0.10507482988E+04 -0.13552219268E+04  0.17983972818E+04  0.10566000000E+00 0. -1.
          4    1    1    2  501    0 -0.78008736727E+03 -0.10580286590E+04 -0.39049956839E+03  0.13712953207E+04  0.00000000000E+00 0.  1.
</event>
<event>
 5    1  0.6336319E-005  0.1958765E+02  0.7818608E-02  0.1515672E+00
         21   -1    0    0  501  502  0.00000000000E+00  0.00000000000E+00  0.10608796372E+03  0.10608796372E+03  0.00000000000E+00 0. -1.
          4   -1    0    0  502    0 -0.00000000000E+00 -0.00000000000E+00 -0.17937636389E+02  0.17937636389E+02  0.00000000000E+00 0.  1.
        -13    1    1    2    0    0 -0.17592225994E+02 -0.65191703331E+01  0.15568782111E+01  0.18826073171E+02  0.10566000000E+00 0.  1.
         13    1    1    2    0    0  0.13916390383E+02  0.17817046137E+02  0.55359774937E+01  0.23275980434E+02  0.10566000000E+00 0. -1.
          4    1    1    2  501    0  0.36758356112E+01 -0.11297875804E+02  0.81057471625E+02  0.81923546502E+02  0.00000000000E+00 0.  1.
</event>
<event>
 5    1  0.6336319E-005  0.1547974E+03  0.7818608E-02  0.1096474E+00
         21   -1    0    0  501  502  0.00000000000E+00  0.00000000000E+00  0.23790155090E+03  0.23790155090E+03  0.00000000000E+00 0. -1.
         -4   -1    0    0    0  501 -0.00000000000E+00 -0.00000000000E+00 -0.52322717636E+03  0.52322717636E+03  0.00000000000E+00 0. -1.
        -13    1    1    2    0    0  0.86890054710E+02 -0.54813108795E+02  0.11877006506E+03  0.15703725043E+03  0.10566000000E+00 0.  1.
         13    1    1    2    0    0 -0.11495847100E+03  0.11112228297E+03 -0.47975136745E+03  0.50569259196E+03  0.10566000000E+00 0. -1.
         -4    1    1    2    0  502  0.28068416293E+02 -0.56309174178E+02  0.75655676939E+02  0.98398884866E+02  0.00000000000E+00 0. -1.
</event>
<event>
 5    1  0.6336319E-005  0.8495285E+02  0.7818608E-02  0.1192181E+00
         21   -1    0    0  501  502  0.00000000000E+00  0.00000000000E+00  0.14429255552E+02  0.14429255552E+02  0.00000000000E+00 0.  1.
          4   -1    0    0  502    0 -0.00000000000E+00 -0.00000000000E+00 -0.96622850773E+03  0.96622850773E+03  0.00000000000E+00 0.  1.
        -13    1    1    2    0    0 -0.43175537360E+02 -0.80797287882E+02 -0.54745987347E+03  0.55507175480E+03  0.10566000000E+00 0.  1.
         13    1    1    2    0    0  0.15699617498E+02  0.78080986894E+02 -0.38158511765E+03  0.38980807031E+03  0.10566000000E+00 0. -1.
          4    1    1    2  501    0  0.27475919862E+02  0.27163009883E+01 -0.22754261058E+02  0.35777938169E+02  0.00000000000E+00 0.  1.
</event>
<event>
 5    1  0.6336319E-005  0.4640350E+03  0.7818608E-02  0.9963779E-01
         21   -1    0    0  501  502  0.00000000000E+00  0.00000000000E+00  0.92669742943E+03  0.92669742943E+03  0.00000000000E+00 0. -1.
         -4   -1    0    0    0  501 -0.00000000000E+00 -0.00000000000E+00 -0.34139055972E+03  0.34139055972E+03  0.00000000000E+00 0. -1.
        -13    1    1    2    0    0 -0.15168749439E+02  0.11482633825E+03 -0.39549675412E+01  0.11589146581E+03  0.10566000000E+00 0.  1.
         13    1    1    2    0    0 -0.10798968123E+03 -0.52514657228E+03  0.19653975515E+03  0.57102415024E+03  0.10566000000E+00 0. -1.
         -4    1    1    2    0  502  0.12315843067E+03  0.41032023404E+03  0.39272208210E+03  0.58117237312E+03  0.00000000000E+00 0. -1.
</event>
<event>
 5    1  0.6336319E-005  0.1283271E+03  0.7818608E-02  0.1124696E+00
         21   -1    0    0  501  502  0.00000000000E+00  0.00000000000E+00  0.29771132066E+03  0.29771132066E+03  0.00000000000E+00 0. -1.
          4   -1    0    0  502    0 -0.00000000000E+00 -0.00000000000E+00 -0.10464824081E+03  0.10464824081E+03  0.00000000000E+00 0.  1.
        -13    1    1    2    0    0 -0.64264669809E+01 -0.13677322201E+03 -0.72039324166E+01  0.13711353523E+03  0.10566000000E+00 0.  1.
         13    1    1    2    0    0 -0.34930123871E+02  0.10324844928E+03  0.17535037049E+03  0.20646578270E+03  0.10566000000E+00 0. -1.
          4    1    1    2  501    0  0.41356590852E+02  0.33524772726E+02  0.24916641783E+02  0.58780243543E+02  0.00000000000E+00 0.  1.
</event>
<event>
 5    1  0.6336319E-005  0.4845881E+03  0.7818608E-02  0.9512407E-01
         21   -1    0    0  501  502  0.00000000000E+00  0.00000000000E+00  0.14890526383E+03  0.14890526383E+03  0.00000000000E+00 0. -1.
          4   -1    0    0  502    0 -0.00000000000E+00 -0.00000000000E+00 -0.19660171894E+04  0.19660171894E+04  0.00000000000E+00 0.  1.
        -13    1    1    2    0    0  0.16600357346E+03  0.45464789641E+03 -0.13056652812E+04  0.13924883245E+04  0.10566000000E+00 0.  1.
         13    1    1    2    0    0 -0.18145871702E+03 -0.45092201588E+03 -0.51270394916E+03  0.70648657527E+03  0.10566000000E+00 0. -1.
          4    1    1    2  501    0  0.15455143552E+02 -0.37258805222E+01  0.12573047488E+01  0.15947553515E+02  0.00000000000E+00 0.  1.
</event>
<event>
 5    1  0.6336319E-005  0.1346672E+03  0.7818608E-02  0.1155947E+00
         21   -1    0    0  501  502  0.00000000000E+00  0.00000000000E+00  0.22355672310E+03  0.22355672310E+03  0.00000000000E+00 0. -1.
         -4   -1    0    0    0  501 -0.00000000000E+00 -0.00000000000E+00 -0.15364945038E+03  0.15364945038E+03  0.00000000000E+00 0. -1.
        -13    1    1    2    0    0  0.40173884750E+02 -0.30594195550E+02 -0.88220019010E+01  0.51261922504E+02  0.10566000000E+00 0.  1.
         13    1    1    2    0    0 -0.13677235602E+03 -0.59353270989E+02 -0.33357639406E+02  0.15278164622E+03  0.10566000000E+00 0. -1.
         -4    1    1    2    0  502  0.96598471274E+02  0.89947466539E+02  0.11208691403E+03  0.17316260475E+03  0.00000000000E+00 0. -1.
</event>
<event>
 5    1  0.6336319E-005  0.2345873E+03  0.7818608E-02  0.1043954E+00
          4   -1    0    0  502    0 -0.00000000000E+00  0.00000000000E+00  0.12673070777E+04  0.12673070777E+04  0.00000000000E+00 0.  1.
         21   -1    0    0  501  502  0.00000000000E+00 -0.00000000000E+00 -0.37639626772E+03  0.37639626772E+03  0.00000000000E+00 0.  1.
        -13    1    1    2    0    0  0.97544061153E+02 -0.28957736902E+03  0.65472912630E+03  0.72252345049E+03  0.10566000000E+00 0.  1.
         13    1    1    2    0    0  0.10458745548E+03  0.17067718305E+03  0.51754172385E+03  0.55490421133E+03  0.10566000000E+00 0. -1.
          4    1    1    2  501    0 -0.20213151663E+03  0.11890018597E+03 -0.28136004014E+03  0.36627568364E+03  0.00000000000E+00 0.  1.
</event>
<event>
 5    1  0.6336319E-005  0.4534238E+03  0.7818608E-02  0.9588176E-01
         21   -1    0    0  501  502  0.00000000000E+00  0.00000000000E+00  0.10763587724E+04  0.10763587724E+04  0.00000000000E+00 0.  1.
         -4   -1    0    0    0  501 -0.00000000000E+00 -0.00000000000E+00 -0.59538279499E+03  0.59538279499E+03  0.00000000000E+00 0. -1.
        -13    1    1    2    0    0  0.44902411964E+03 -0.72886350393E+02  0.29433028736E+03  0.54181676729E+03  0.10566000000E+00 0.  1.
         13    1    1    2    0    0  0.11332798184E+03  0.15267060536E+03 -0.31775892325E+03  0.37030026962E+03  0.10566000000E+00 0. -1.
         -4    1    1    2    0  502 -0.56235210148E+03 -0.79784254965E+02  0.50440461327E+03  0.75962453046E+03  0.00000000000E+00 0. -1.
</event>
<event>
 5    1  0.6336319E-005  0.2731354E+03  0.7818608E-02  0.1033949E+00
          4   -1    0    0  502    0 -0.00000000000E+00  0.00000000000E+00  0.14738011699E+04  0.14738011699E+04  0.00000000000E+00 0.  1.
         21   -1    0    0  501  502  0.00000000000E+00 -0.00000000000E+00 -0.50959952858E+03  0.50959952858E+03  0.00000000000E+00 0.  1.
        -13    1    1    2    0    0  0.68759001973E+02  0.24258533601E+03  0.52644458761E+03  0.58371171017E+03  0.10566000000E+00 0.  1.
         13    1    1    2    0    0 -0.17106367567E+03  0.16220127705E+02  0.86934139508E+03  0.88616045164E+03  0.10566000000E+00 0. -1.
          4    1    1    2  501    0  0.10230467370E+03 -0.25880546371E+03 -0.43158434135E+03  0.51352853670E+03  0.00000000000E+00 0.  1.
</event>
<event>
 5    1  0.6336319E-005  0.4445684E+03  0.7818608E-02  0.9608518E-01
         21   -1    0    0  501  502  0.00000000000E+00  0.00000000000E+00  0.60123197918E+03  0.60123197918E+03  0.00000000000E+00 0.  1.
          4   -1    0    0  502    0 -0.00000000000E+00 -0.00000000000E+00 -0.91688290402E+03  0.91688290402E+03  0.00000000000E+00 0.  1.
        -13    1    1    2    0    0 -0.16415089265E+03  0.46982422813E+03 -0.51364571758E+03  0.71520084959E+03  0.10566000000E+00 0.  1.
         13    1    1    2    0    0 -0.21108935510E+02 -0.38970433548E+03 -0.13547120551E+03  0.41311925026E+03  0.10566000000E+00 0. -1.
          4    1    1    2  501    0  0.18525982816E+03 -0.80119892649E+02  0.33346599825E+03  0.38979478334E+03  0.00000000000E+00 0.  1.
</event>
<event>
 5    1  0.6336319E-005  0.6364594E+02  0.7818608E-02  0.1244455E+00
         21   -1    0    0  501  502  0.00000000000E+00  0.00000000000E+00  0.51139336205E+03  0.51139336205E+03  0.00000000000E+00 0. -1.
          4   -1    0    0  502    0 -0.00000000000E+00 -0.00000000000E+00 -0.40856629014E+02  0.40856629014E+02  0.00000000000E+00 0.  1.
        -13    1    1    2    0    0  0.25446585184E+02  0.57262718300E+02 -0.86974880258E+01  0.63262983384E+02  0.10566000000E+00 0.  1.
         13    1    1    2    0    0 -0.33538566322E+02 -0.71648868690E+02  0.42486914348E+03  0.43217148919E+03  0.10566000000E+00 0. -1.
          4    1    1    2  501    0  0.80919811387E+01  0.14386150390E+02  0.54365077574E+02  0.56815518491E+02  0.00000000000E+00 0.  1.
</event>
<event>
 5    1  0.6336319E-005  0.6170568E+02  0.7818608E-02  0.1253879E+00
         21   -1    0    0  501  502  0.00000000000E+00  0.00000000000E+00  0.26911492368E+03  0.26911492368E+03  0.00000000000E+00 0. -1.
          4   -1    0    0  502    0 -0.00000000000E+00 -0.00000000000E+00 -0.11705930130E+03  0.11705930130E+03  0.00000000000E+00 0.  1.
        -13    1    1    2    0    0  0.39765666948E+02  0.11804721437E+02 -0.95550081785E+02  0.10416568057E+03  0.10566000000E+00 0.  1.
         13    1    1    2    0    0  0.96379405753E+01 -0.56477322149E+02  0.17178310418E+03  0.18108568100E+03  0.10566000000E+00 0. -1.
          4    1    1    2  501    0 -0.49403607524E+02  0.44672600711E+02  0.75822599987E+02  0.10092286341E+03  0.00000000000E+00 0.  1.
</event>
<event>
 5    1  0.6336319E-005  0.1043514E+04  0.7818608E-02  0.8734747E-01
         21   -1    0    0  501  502  0.00000000000E+00  0.00000000000E+00  0.83545562237E+03  0.83545562237E+03  0.00000000000E+00 0.  1.
         -4   -1    0    0    0  501 -0.00000000000E+00 -0.00000000000E+00 -0.27561799623E+04  0.27561799623E+04  0.00000000000E+00 0. -1.
        -13    1    1    2    0    0  0.10042033677E+04 -0.27914661395E+03 -0.15579909450E+04  0.18744820703E+04  0.10566000000E+00 0.  1.
         13    1    1    2    0    0 -0.10130727784E+04  0.25919548134E+03 -0.77670845288E+03  0.13026030799E+04  0.10566000000E+00 0. -1.
         -4    1    1    2    0  502  0.88694106409E+01  0.19951132613E+02  0.41397505795E+03  0.41455043450E+03  0.00000000000E+00 0. -1.
</event>
<event>
 5    1  0.6336319E-005  0.3170084E+02  0.7818608E-02  0.1391750E+00
         -4   -1    0    0    0  501 -0.00000000000E+00  0.00000000000E+00  0.67287814865E+02  0.67287814865E+02  0.00000000000E+00 0. -1.
         21   -1    0    0  501  502  0.00000000000E+00 -0.00000000000E+00 -0.59184052392E+02  0.59184052392E+02  0.00000000000E+00 0.  1.
        -13    1    1    2    0    0 -0.15430591711E+02  0.28271008790E+02 -0.35953995905E+02  0.48270633765E+02  0.10566000000E+00 0.  1.
         13    1    1    2    0    0  0.28181937625E+02 -0.15493279422E+02  0.49779427625E+02  0.59264372892E+02  0.10566000000E+00 0. -1.
         -4    1    1    2    0  502 -0.12751345914E+02 -0.12777729367E+02 -0.57216692466E+01  0.18936860600E+02  0.00000000000E+00 0. -1.
</event>
<event>
 5    1  0.6336319E-005  0.3303165E+03  0.7818608E-02  0.9955230E-01
         21   -1    0    0  501  502  0.00000000000E+00  0.00000000000E+00  0.15518385703E+03  0.15518385703E+03  0.00000000000E+00 0.  1.
         -4   -1    0    0    0  501 -0.00000000000E+00 -0.00000000000E+00 -0.16037514322E+04  0.16037514322E+04  0.00000000000E+00 0. -1.
        -13    1    1    2    0    0 -0.31562921886E+03  0.10499950214E+03 -0.10844685506E+04  0.11343362586E+04  0.10566000000E+00 0.  1.
         13    1    1    2    0    0  0.30142786819E+03 -0.12371031301E+03 -0.43865746955E+03  0.54642784338E+03  0.10566000000E+00 0. -1.
         -4    1    1    2    0  502  0.14201350673E+02  0.18710810868E+02  0.74558444944E+02  0.78171187254E+02  0.00000000000E+00 0. -1.
</event>
<event>
 5    1  0.6336319E-005  0.1007476E+03  0.7818608E-02  0.1163325E+00
         21   -1    0    0  501  502  0.00000000000E+00  0.00000000000E+00  0.72517382084E+03  0.72517382084E+03  0.00000000000E+00 0.  1.
         -4   -1    0    0    0  501 -0.00000000000E+00 -0.00000000000E+00 -0.73927019091E+02  0.73927019091E+02  0.00000000000E+00 0. -1.
        -13    1    1    2    0    0 -0.81453897757E+02 -0.49449362235E+02  0.55895820376E+03  0.56702227611E+03  0.10566000000E+00 0.  1.
         13    1    1    2    0    0  0.77284832535E+02  0.65297481580E+02 -0.32461603603E+02  0.10625663891E+03  0.10566000000E+00 0. -1.
         -4    1    1    2    0  502  0.41690652217E+01 -0.15848119345E+02  0.12475020158E+03  0.12582192490E+03  0.00000000000E+00 0. -1.
</event>
<event>
 5    1  0.6336319E-005  0.1971578E+03  0.7818608E-02  0.1062102E+00
          4   -1    0    0  502    0 -0.00000000000E+00  0.00000000000E+00  0.13759315946E+04  0.13759315946E+04  0.00000000000E+00 0.  1.
         21   -1    0    0  501  502  0.00000000000E+00 -0.00000000000E+00 -0.95750476745E+02  0.95750476745E+02  0.00000000000E+00 0.  1.
        -13    1    1    2    0    0  0.17723647045E+02 -0.20096648396E+03  0.10288359763E+04  0.10484298415E+04  0.10566000000E+00 0.  1.
         13    1    1    2    0    0  0.14272842203E-01  0.18564417519E+03  0.30930063276E+03  0.36073626457E+03  0.10566000000E+00 0. -1.
          4    1    1    2  501    0 -0.17737919887E+02  0.15322308767E+02 -0.57955491206E+02  0.62515965232E+02  0.00000000000E+00 0.  1.
</event>
<event>
 5    1  0.6336319E-005  0.3405492E+03  0.7818608E-02  0.9918476E-01
          4   -1    0    0  502    0 -0.00000000000E+00  0.00000000000E+00  0.22294027307E+03  0.22294027307E+03  0.00000000000E+00 0.  1.
         21   -1    0    0  501  502  0.00000000000E+00 -0.00000000000E+00 -0.17039710970E+04  0.17039710970E+04  0.00000000000E+00 0. -1.
        -13    1    1    2    0    0  0.29884606638E+03 -0.14534594407E+03  0.35146192984E+01  0.33233534052E+03  0.10566000000E+00 0.  1.
         13    1    1    2    0    0 -0.34861584031E+03  0.13481747679E+03 -0.58901070544E+03  0.69759757629E+03  0.10566000000E+00 0. -1.
          4    1    1    2  501    0  0.49769773928E+02  0.10528467277E+02 -0.89553473778E+03  0.89697845325E+03  0.00000000000E+00 0.  1.
</event>
<event>
 5    1  0.6336319E-005  0.9361215E+02  0.7818608E-02  0.1175580E+00
         21   -1    0    0  501  502  0.00000000000E+00  0.00000000000E+00  0.85856626524E+03  0.85856626524E+03  0.00000000000E+00 0.  1.
         -4   -1    0    0    0  501 -0.00000000000E+00 -0.00000000000E+00 -0.17659462204E+02  0.17659462204E+02  0.00000000000E+00 0. -1.
        -13    1    1    2    0    0  0.26460091474E+02  0.87147511294E+02  0.51564658651E+03  0.52362795810E+03  0.10566000000E+00 0.  1.
         13    1    1    2    0    0 -0.37645237289E+02 -0.86751154111E+02  0.15227013777E+03  0.17924601153E+03  0.10566000000E+00 0. -1.
         -4    1    1    2    0  502  0.11185145816E+02 -0.39635718344E+00  0.17299007876E+03  0.17335175781E+03  0.00000000000E+00 0. -1.
</event>
<event>
 5    1  0.6336319E-005  0.4981498E+03  0.7818608E-02  0.1009281E+00
         -4   -1    0    0    0  501 -0.00000000000E+00  0.00000000000E+00  0.13432065373E+04  0.13432065373E+04  0.00000000000E+00 0. -1.
         21   -1    0    0  501  502  0.00000000000E+00 -0.00000000000E+00 -0.23320992168E+03  0.23320992168E+03  0.00000000000E+00 0. -1.
        -13    1    1    2    0    0 -0.46522123115E+02 -0.40196456986E+02  0.20840148972E+03  0.21728151135E+03  0.10566000000E+00 0.  1.
         13    1    1    2    0    0  0.10509905140E+03 -0.46814781059E+03  0.58825326644E+03  0.75911138827E+03  0.10566000000E+00 0. -1.
         -4    1    1    2    0  502 -0.58576928281E+02  0.50834426757E+03  0.31334185948E+03  0.60002355938E+03  0.00000000000E+00 0. -1.
</event>
<event>
 5    1  0.6336319E-005  0.3527421E+03  0.7818608E-02  0.9876437E-01
         21   -1    0    0  501  502  0.00000000000E+00  0.00000000000E+00  0.29116058620E+03  0.29116058620E+03  0.00000000000E+00 0.  1.
         -4   -1    0    0    0  501 -0.00000000000E+00 -0.00000000000E+00 -0.11757510287E+04  0.11757510287E+04  0.00000000000E+00 0. -1.
        -13    1    1    2    0    0 -0.35642742111E+03 -0.88209172229E+02  0.59057997166E+02  0.37189947940E+03  0.10566000000E+00 0.  1.
         13    1    1    2    0    0  0.34441095786E+03  0.66507801390E+02 -0.98566426394E+03  0.10462199807E+04  0.10566000000E+00 0. -1.
         -4    1    1    2    0  502  0.12016463248E+02  0.21701370840E+02  0.42015824275E+02  0.48792154849E+02  0.00000000000E+00 0. -1.
</event>
<event>
 5    1  0.6336319E-005  0.1167921E+03  0.7818608E-02  0.1139420E+00
         -4   -1    0    0    0  501 -0.00000000000E+00  0.00000000000E+00  0.45713310481E+03  0.45713310481E+03  0.00000000000E+00 0. -1.
         21   -1    0    0  501  502  0.00000000000E+00 -0.00000000000E+00 -0.22085448534E+03  0.22085448534E+03  0.00000000000E+00 0. -1.
        -13    1    1    2    0    0 -0.13050403305E+03  0.76053080801E+02  0.92348589074E+01  0.15132966505E+03  0.10566000000E+00 0.  1.
         13    1    1    2    0    0  0.11107461347E+03 -0.23029291743E+02  0.36253579189E+03  0.37986856886E+03  0.10566000000E+00 0. -1.
         -4    1    1    2    0  502  0.19429419581E+02 -0.53023789058E+02 -0.13549203133E+03  0.14678935624E+03  0.00000000000E+00 0. -1.
</event>
<event>
 5    1  0.6336319E-005  0.3226744E+03  0.7818608E-02  0.9998205E-01
          4   -1    0    0  502    0 -0.00000000000E+00  0.00000000000E+00  0.14650550125E+04  0.14650550125E+04  0.00000000000E+00 0.  1.
         21   -1    0    0  501  502  0.00000000000E+00 -0.00000000000E+00 -0.32538772965E+03  0.32538772965E+03  0.00000000000E+00 0.  1.
        -13    1    1    2    0    0  0.15162833727E+03  0.26536054058E+03 -0.68902238679E+02  0.31329682223E+03  0.10566000000E+00 0.  1.
         13    1    1    2    0    0  0.31340895306E+03 -0.10488856913E+03  0.31211413906E+03  0.45457895987E+03  0.10566000000E+00 0. -1.
          4    1    1    2  501    0 -0.46503729033E+03 -0.16047197144E+03  0.89645538250E+03  0.10225669601E+04  0.00000000000E+00 0.  1.
</event>
<event>
 5    1  0.6336319E-005  0.4186152E+02  0.7818608E-02  0.1329005E+00
          4   -1    0    0  502    0 -0.00000000000E+00  0.00000000000E+00  0.45482426869E+02  0.45482426869E+02  0.00000000000E+00 0.  1.
         21   -1    0    0  501  502  0.00000000000E+00 -0.00000000000E+00 -0.63665160376E+02  0.63665160376E+02  0.00000000000E+00 0. -1.
        -13    1    1    2    0    0  0.22743018199E+01 -0.49745942038E+02  0.23218795070E+01  0.49852116169E+02  0.10566000000E+00 0.  1.
         13    1    1    2    0    0  0.10407497510E+02  0.33176017300E+02 -0.12987177317E+02  0.37116600962E+02  0.10566000000E+00 0. -1.
          4    1    1    2  501    0 -0.12681799330E+02  0.16569924738E+02 -0.75174356964E+01  0.22178870114E+02  0.00000000000E+00 0.  1.
</event>
<event>
 5    1  0.6336319E-005  0.4738122E+03  0.7818608E-02  0.9537294E-01
         -4   -1    0    0    0  501 -0.00000000000E+00  0.00000000000E+00  0.83586657487E+03  0.83586657487E+03  0.00000000000E+00 0. -1.
         21   -1    0    0  501  502  0.00000000000E+00 -0.00000000000E+00 -0.66870217895E+03  0.66870217895E+03  0.00000000000E+00 0. -1.
        -13    1    1    2    0    0 -0.41784813837E+03 -0.64167913494E+02  0.36242098111E+02  0.42429717028E+03  0.10566000000E+00 0.  1.
         13    1    1    2    0    0  0.50087196715E+03 -0.14529622634E+03  0.45056470838E+03  0.68919684305E+03  0.10566000000E+00 0. -1.
         -4    1    1    2    0  502 -0.83023828775E+02  0.20946413983E+03 -0.31964241057E+03  0.39107474050E+03  0.00000000000E+00 0. -1.
</event>
<event>
 5    1  0.6336319E-005  0.1079248E+03  0.7818608E-02  0.1169680E+00
         21   -1    0    0  501  502  0.00000000000E+00  0.00000000000E+00  0.92024255464E+03  0.92024255464E+03  0.00000000000E+00 0.  1.
         -4   -1    0    0    0  501 -0.00000000000E+00 -0.00000000000E+00 -0.31455136670E+03  0.31455136670E+03  0.00000000000E+00 0. -1.
        -13    1    1    2    0    0 -0.15010471727E+03  0.95125051925E+02  0.66692124430E+03  0.69019139296E+03  0.10566000000E+00 0.  1.
         13    1    1    2    0    0  0.84137674213E+02  0.21174942950E+02 -0.27727387795E+03  0.29053113601E+03  0.10566000000E+00 0. -1.
         -4    1    1    2    0  502  0.65967043059E+02 -0.11629999488E+03  0.21604382159E+03  0.25407139238E+03  0.00000000000E+00 0. -1.
</event>
<event>
 5    1  0.6336319E-005  0.4516101E+03  0.7818608E-02  0.9721458E-01
         -4   -1    0    0    0  501 -0.00000000000E+00  0.00000000000E+00  0.18922016627E+04  0.18922016627E+04  0.00000000000E+00 0. -1.
         21   -1    0    0  501  502  0.00000000000E+00 -0.00000000000E+00 -0.24448020476E+03  0.24448020476E+03  0.00000000000E+00 0. -1.
        -13    1    1    2    0    0  0.26354422957E+03 -0.10938601329E+03  0.56046766611E+03  0.62892358579E+03  0.10566000000E+00 0.  1.
         13    1    1    2    0    0  0.25374579854E+03  0.16503855117E+03  0.90855175439E+03  0.95764865959E+03  0.10566000000E+00 0. -1.
         -4    1    1    2    0  502 -0.51729002811E+03 -0.55652537879E+02  0.17870203747E+03  0.55010962212E+03  0.00000000000E+00 0. -1.
</event>
<event>
 5    1  0.6336319E-005  0.4946674E+03  0.7818608E-02  0.1000381E+00
          4   -1    0    0  502    0 -0.00000000000E+00  0.00000000000E+00  0.26650038886E+04  0.26650038886E+04  0.00000000000E+00 0.  1.
         21   -1    0    0  501  502  0.00000000000E+00 -0.00000000000E+00 -0.11408454747E+03  0.11408454747E+03  0.00000000000E+00 0.  1.
        -13    1    1    2    0    0  0.13135384885E+03  0.49354040081E+03  0.93110219506E+03  0.10619732905E+04  0.10566000000E+00 0.  1.
         13    1    1    2    0    0 -0.81642778824E+02 -0.18972991022E+02  0.36835314183E+03  0.37776919671E+03  0.10566000000E+00 0. -1.
          4    1    1    2  501    0 -0.49711070024E+02 -0.47456740979E+03  0.12514640042E+04  0.13393459489E+04  0.00000000000E+00 0.  1.
</event>
<event>
 5    1  0.6336319E-005  0.1965495E+02  0.7818608E-02  0.1514711E+00
         21   -1    0    0  501  502  0.00000000000E+00  0.00000000000E+00  0.22768403418E+02  0.22768403418E+02  0.00000000000E+00 0.  1.
         -4   -1    0    0    0  501 -0.00000000000E+00 -0.00000000000E+00 -0.12725823841E+03  0.12725823841E+03  0.00000000000E+00 0. -1.
        -13    1    1    2    0    0 -0.29736256364E+02  0.14205312509E+02 -0.63320246367E+01  0.33558032512E+02  0.10566000000E+00 0.  1.
         13    1    1    2    0    0  0.18946420339E+02 -0.13371012906E+00 -0.96852531909E+02  0.98688443211E+02  0.10566000000E+00 0. -1.
         -4    1    1    2    0  502  0.10789836024E+02 -0.14071602380E+02 -0.13052784486E+01  0.17780166107E+02  0.00000000000E+00 0. -1.
</event>
<event>
 5    1  0.6336319E-005  0.5057366E+03  0.7818608E-02  0.9522693E-01
         21   -1    0    0  501  502  0.00000000000E+00  0.00000000000E+00  0.46376890273E+03  0.46376890273E+03  0.00000000000E+00 0. -1.
         -4   -1    0    0    0  501 -0.00000000000E+00 -0.00000000000E+00 -0.21416694470E+04  0.21416694470E+04  0.00000000000E+00 0. -1.
        -13    1    1    2    0    0 -0.40334259040E+03 -0.77497801019E+02 -0.14153469192E+04  0.14737360914E+04  0.10566000000E+00 0.  1.
         13    1    1    2    0    0 -0.62486868258E+01  0.49148100002E+03 -0.24470428863E+03  0.54906540549E+03  0.10566000000E+00 0. -1.
         -4    1    1    2    0  502  0.40959127722E+03 -0.41398319900E+03 -0.17849336458E+02  0.58263685280E+03  0.00000000000E+00 0. -1.
</event>
<event>
 5    1  0.6336319E-005  0.4277970E+03  0.7818608E-02  0.9707400E-01
         21   -1    0    0  501  502  0.00000000000E+00  0.00000000000E+00  0.28159416860E+03  0.28159416860E+03  0.00000000000E+00 0.  1.
         -4   -1    0    0    0  501 -0.00000000000E+00 -0.00000000000E+00 -0.17885125994E+04  0.17885125994E+04  0.00000000000E+00 0. -1.
        -13    1    1    2    0    0 -0.17940763739E+03 -0.30341823008E+03 -0.37941416306E+03  0.51788496888E+03  0.10566000000E+00 0.  1.
         13    1    1    2    0    0 -0.73415340301E+01 -0.35317167045E+03 -0.21822102646E+03  0.41521627435E+03  0.10566000000E+00 0. -1.
         -4    1    1    2    0  502  0.18674917142E+03  0.65658990053E+03 -0.90928324133E+03  0.11370055248E+04  0.00000000000E+00 0. -1.
</event>
<event>
 5    1  0.6336319E-005  0.1108062E+04  0.7818608E-02  0.8679209E-01
         21   -1    0    0  501  502  0.00000000000E+00  0.00000000000E+00  0.75585706898E+03  0.75585706898E+03  0.00000000000E+00 0. -1.
          4   -1    0    0  502    0 -0.00000000000E+00 -0.00000000000E+00 -0.26272030615E+04  0.26272030615E+04  0.00000000000E+00 0.  1.
        -13    1    1    2    0    0 -0.10485314171E+04  0.26332505690E+03 -0.64299055399E+03  0.12578533627E+04  0.10566000000E+00 0.  1.
         13    1    1    2    0    0  0.10155712589E+04 -0.50886722896E+03 -0.14153499447E+04  0.18148130250E+04  0.10566000000E+00 0. -1.
          4    1    1    2  501    0  0.32960158191E+02  0.24554217206E+03  0.18699450610E+03  0.31039374285E+03  0.00000000000E+00 0.  1.
</event>
<event>
 5    1  0.6336319E-005  0.5560952E+03  0.7818608E-02  0.9362828E-01
         21   -1    0    0  501  502  0.00000000000E+00  0.00000000000E+00  0.21398717051E+03  0.21398717051E+03  0.00000000000E+00 0. -1.
         -4   -1    0    0    0  501 -0.00000000000E+00 -0.00000000000E+00 -0.26485720420E+04  0.26485720420E+04  0.00000000000E+00 0. -1.
        -13    1    1    2    0    0  0.90350398716E+02  0.54215284459E+03 -0.18361804367E+04  0.19166772051E+04  0.10566000000E+00 0.  1.
         13    1    1    2    0    0 -0.92610354173E+02 -0.56570304415E+03 -0.66337718817E+03  0.87673594475E+03  0.10566000000E+00 0. -1.
         -4    1    1    2    0  502  0.22599554579E+01  0.23550199563E+02  0.64972753361E+02  0.69146062631E+02  0.00000000000E+00 0. -1.
</event>
<event>
 5    1  0.6336319E-005  0.1778264E+03  0.7818608E-02  0.1084336E+00
         21   -1    0    0  501  502  0.00000000000E+00  0.00000000000E+00  0.27336707001E+03  0.27336707001E+03  0.00000000000E+00 0.  1.
         -4   -1    0    0    0  501 -0.00000000000E+00 -0.00000000000E+00 -0.62161617512E+03  0.62161617512E+03  0.00000000000E+00 0. -1.
        -13    1    1    2    0    0  0.21948867119E+02  0.27423439930E+03 -0.18404174409E+03  0.33099491425E+03  0.10566000000E+00 0.  1.
         13    1    1    2    0    0 -0.10921194487E+03 -0.95938429670E+02 -0.29319697317E+03  0.32725511063E+03  0.10566000000E+00 0. -1.
         -4    1    1    2    0  502  0.87263077751E+02 -0.17829596963E+03  0.12898961216E+03  0.23673322025E+03  0.00000000000E+00 0. -1.
</event>
<event>
 5    1  0.6336319E-005  0.4842243E+03  0.7818608E-02  0.9669394E-01
          4   -1    0    0  502    0 -0.00000000000E+00  0.00000000000E+00  0.16497301802E+04  0.16497301802E+04  0.00000000000E+00 0.  1.
         21   -1    0    0  501  502  0.00000000000E+00 -0.00000000000E+00 -0.11203349069E+04  0.11203349069E+04  0.00000000000E+00 0.  1.
        -13    1    1    2    0    0 -0.37178163968E+03 -0.74857372029E+02 -0.29400918296E+03  0.47986104716E+03  0.10566000000E+00 0.  1.
         13    1    1    2    0    0 -0.27747667255E+03  0.64195524631E+01  0.13950847918E+04  0.14224261323E+04  0.10566000000E+00 0. -1.
          4    1    1    2  501    0  0.64925831223E+03  0.68437819565E+02 -0.57168033549E+03  0.86777790772E+03  0.00000000000E+00 0.  1.
</event>
<event>
 5    1  0.6336319E-005  0.4066448E+03  0.7818608E-02  0.1003686E+00
         21   -1    0    0  501  502  0.00000000000E+00  0.00000000000E+00  0.15249536398E+03  0.15249536398E+03  0.00000000000E+00 0.  1.
          4   -1    0    0  502    0 -0.00000000000E+00 -0.00000000000E+00 -0.19173596076E+04  0.19173596076E+04  0.00000000000E+00 0.  1.
        -13    1    1    2    0    0 -0.21350966088E+03 -0.32311203531E+03 -0.38444661641E+03  0.54569861158E+03  0.10566000000E+00 0.  1.
         13    1    1    2    0    0  0.82454432413E+02 -0.10746563911E+03 -0.66711001466E+03  0.68072268938E+03  0.10566000000E+00 0. -1.
          4    1    1    2  501    0  0.13105522846E+03  0.43057767442E+03 -0.71330761254E+03  0.84343367061E+03  0.00000000000E+00 0.  1.
</event>
<event>
 5    1  0.6336319E-005  0.3439501E+03  0.7818608E-02  0.9906565E-01
         21   -1    0    0  501  502  0.00000000000E+00  0.00000000000E+00  0.41316009491E+03  0.41316009491E+03  0.00000000000E+00 0.  1.
         -4   -1    0    0    0  501 -0.00000000000E+00 -0.00000000000E+00 -0.15706388228E+04  0.15706388228E+04  0.00000000000E+00 0. -1.
        -13    1    1    2    0    0  0.79741572869E+01  0.40230736471E+03  0.10959093474E+02  0.40253560809E+03  0.10566000000E+00 0.  1.
         13    1    1    2    0    0  0.16286220475E+03 -0.30151052513E+03 -0.12992328619E+04  0.13436661546E+04  0.10566000000E+00 0. -1.
         -4    1    1    2    0  502 -0.17083636203E+03 -0.10079683958E+03  0.13079504050E+03  0.23759715503E+03  0.00000000000E+00 0. -1.
</event>
<event>
 5    1  0.6336319E-005  0.4734416E+03  0.7818608E-02  0.9592945E-01
         21   -1    0    0  501  502  0.00000000000E+00  0.00000000000E+00  0.27340732601E+03  0.27340732601E+03  0.00000000000E+00 0.  1.
          4   -1    0    0  502    0 -0.00000000000E+00 -0.00000000000E+00 -0.19519036959E+04  0.19519036959E+04  0.00000000000E+00 0.  1.
        -13    1    1    2    0    0  0.23998889690E+02  0.35597566363E+03 -0.85350648088E+03  0.92507726373E+03  0.10566000000E+00 0.  1.
         13    1    1    2    0    0 -0.37725442463E+03  0.95093647354E+02 -0.52520571261E+03  0.65360902258E+03  0.10566000000E+00 0. -1.
          4    1    1    2  501    0  0.35325553494E+03 -0.45106931098E+03 -0.29978417642E+03  0.64662473561E+03  0.00000000000E+00 0.  1.
</event>
<event>
 5    1  0.6336319E-005  0.8035737E+02  0.7818608E-02  0.1201905E+00
         21   -1    0    0  501  502  0.00000000000E+00  0.00000000000E+00  0.12112017596E+03  0.12112017596E+03  0.00000000000E+00 0.  1.
         -4   -1    0    0    0  501 -0.00000000000E+00 -0.00000000000E+00 -0.83980820391E+02  0.83980820391E+02  0.00000000000E+00 0. -1.
        -13    1    1    2    0    0  0.85764958711E+02 -0.33719413916E+02  0.45299057435E+02  0.10268711110E+03  0.10566000000E+00 0.  1.
         13    1    1    2    0    0 -0.72608783998E+02  0.22263497606E+02 -0.23168832285E+02  0.79400911788E+02  0.10566000000E+00 0. -1.
         -4    1    1    2    0  502 -0.13156174713E+02  0.11455916310E+02  0.15009130418E+02  0.23012973460E+02  0.00000000000E+00 0. -1.
</event>
<event>
 5    1  0.6336319E-005  0.5236188E+03  0.7818608E-02  0.9768545E-01
         -4   -1    0    0    0  501 -0.00000000000E+00  0.00000000000E+00  0.11125661127E+04  0.11125661127E+04  0.00000000000E+00 0. -1.
         21   -1    0    0  501  502  0.00000000000E+00 -0.00000000000E+00 -0.33589267229E+03  0.33589267229E+03  0.00000000000E+00 0. -1.
        -13    1    1    2    0    0 -0.15175646663E+03  0.34400567598E+02  0.60552833388E+02  0.16697329430E+03  0.10566000000E+00 0.  1.
         13    1    1    2    0    0  0.82172465437E+02  0.50776323437E+03  0.31057136988E+03  0.60085805580E+03  0.10566000000E+00 0. -1.
         -4    1    1    2    0  502  0.69584001193E+02 -0.54216380197E+03  0.40554923716E+03  0.68062743491E+03  0.00000000000E+00 0. -1.
</event>
<event>
 5    1  0.6336319E-005  0.3104967E+03  0.7818608E-02  0.1011111E+00
         21   -1    0    0  501  502  0.00000000000E+00  0.00000000000E+00  0.19151603664E+04  0.19151603664E+04  0.00000000000E+00 0.  1.
          4   -1    0    0  502    0 -0.00000000000E+00 -0.00000000000E+00 -0.46463080786E+03  0.46463080786E+03  0.00000000000E+00 0.  1.
        -13    1    1    2    0    0 -0.85099774454E+02 -0.23014336053E+03  0.11937458438E+04  0.12187030355E+04  0.10566000000E+00 0.  1.
         13    1    1    2    0    0 -0.53494457435E+02 -0.34954008734E+03 -0.20353659478E+03  0.40800378210E+03  0.10566000000E+00 0. -1.
          4    1    1    2  501    0  0.13859423189E+03  0.57968344787E+03  0.46032030951E+03  0.75308435662E+03  0.00000000000E+00 0.  1.
</event>
<event>
 5    1  0.6336319E-005  0.4861043E+03  0.7818608E-02  0.9680981E-01
         -4   -1    0    0    0  501 -0.00000000000E+00  0.00000000000E+00  0.20574583052E+04  0.20574583052E+04  0.00000000000E+00 0. -1.
         21   -1    0    0  501  502  0.00000000000E+00 -0.00000000000E+00 -0.22496420724E+03  0.22496420724E+03  0.00000000000E+00 0. -1.
        -13    1    1    2    0    0 -0.23100444264E+03 -0.12663345261E+03  0.78169769681E+03  0.82489416545E+03  0.10566000000E+00 0.  1.
         13    1    1    2    0    0  0.35392707179E+02 -0.42241265920E+03  0.50122906429E+03  0.65644168395E+03  0.10566000000E+00 0. -1.
         -4    1    1    2    0  502  0.19561173546E+03  0.54904611181E+03  0.54956733688E+03  0.80108666305E+03  0.00000000000E+00 0. -1.
</event>
<event>
 5    1  0.6336319E-005  0.4508424E+03  0.7818608E-02  0.9626740E-01
         -4   -1    0    0    0  501 -0.00000000000E+00  0.00000000000E+00  0.25284391113E+04  0.25284391113E+04  0.00000000000E+00 0. -1.
         21   -1    0    0  501  502  0.00000000000E+00 -0.00000000000E+00 -0.24677820624E+03  0.24677820624E+03  0.00000000000E+00 0.  1.
        -13    1    1    2    0    0 -0.46266390017E+03  0.12353783015E+03  0.63507806726E+03  0.79538898828E+03  0.10566000000E+00 0.  1.
         13    1    1    2    0    0  0.26709907836E+03  0.32272989827E+03  0.13404808010E+04  0.14044163535E+04  0.10566000000E+00 0. -1.
         -4    1    1    2    0  502  0.19556482180E+03 -0.44626772843E+03  0.30610203686E+03  0.57541197583E+03  0.00000000000E+00 0. -1.
</event>
<event>
 5    1  0.6336319E-005  0.4350614E+03  0.7818608E-02  0.9632932E-01
         21   -1    0    0  501  502  0.00000000000E+00  0.00000000000E+00  0.78210031998E+02  0.78210031998E+02  0.00000000000E+00 0.  1.
         -4   -1    0    0    0  501 -0.00000000000E+00 -0.00000000000E+00 -0.32052677965E+04  0.32052677965E+04  0.00000000000E+00 0. -1.
        -13    1    1    2    0    0 -0.28509689456E+03 -0.33641304976E+03 -0.13544069876E+04  0.14243848773E+04  0.10566000000E+00 0.  1.
         13    1    1    2    0    0  0.27318765026E+03  0.33305842456E+03 -0.17881253321E+04  0.18392801910E+04  0.10566000000E+00 0. -1.
         -4    1    1    2    0  502  0.11909244296E+02  0.33546251996E+01  0.15474555214E+02  0.19812760257E+02  0.00000000000E+00 0. -1.
</event>
<event>
 5    1  0.6336319E-005  0.1111964E+03  0.7818608E-02  0.1162676E+00
          4   -1    0    0  502    0 -0.00000000000E+00  0.00000000000E+00  0.29169804433E+03  0.29169804433E+03  0.00000000000E+00 0.  1.
         21   -1    0    0  501  502  0.00000000000E+00 -0.00000000000E+00 -0.10376952290E+04  0.10376952290E+04  0.00000000000E+00 0. -1.
        -13    1    1    2    0    0 -0.81898050042E+02 -0.41231609025E+02  0.26066341488E+03  0.27632003765E+03  0.10566000000E+00 0.  1.
         13    1    1    2    0    0  0.42154147031E+02  0.16961793590E+03 -0.57399787789E+03  0.60001732582E+03  0.10566000000E+00 0. -1.
          4    1    1    2  501    0  0.39743903010E+02 -0.12838632688E+03 -0.43266272170E+03  0.45305590991E+03  0.00000000000E+00 0.  1.
</event>
<event>
 5    1  0.6336319E-005  0.1038190E+03  0.7818608E-02  0.1158387E+00
         -4   -1    0    0    0  501 -0.00000000000E+00  0.00000000000E+00  0.72441736319E+03  0.72441736319E+03  0.00000000000E+00 0. -1.
         21   -1    0    0  501  502  0.00000000000E+00 -0.00000000000E+00 -0.61707938303E+02  0.61707938303E+02  0.00000000000E+00 0.  1.
        -13    1    1    2    0    0  0.10367388570E+03 -0.31417235894E+02  0.60608256879E+03  0.61568775255E+03  0.10566000000E+00 0.  1.
         13    1    1    2    0    0 -0.61695441534E+02  0.69425702539E+02  0.64762218996E+02  0.11322725755E+03  0.10566000000E+00 0. -1.
         -4    1    1    2    0  502 -0.41978444168E+02 -0.38008466645E+02 -0.81353628987E+01  0.57210291391E+02  0.00000000000E+00 0. -1.
</event>
<event>
 5    1  0.6336319E-005  0.3618801E+03  0.7818608E-02  0.9846098E-01
         21   -1    0    0  501  502  0.00000000000E+00  0.00000000000E+00  0.76970171925E+02  0.76970171925E+02  0.00000000000E+00 0.  1.
         -4   -1    0    0    0  501 -0.00000000000E+00 -0.00000000000E+00 -0.22988512717E+04  0.22988512717E+04  0.00000000000E+00 0. -1.
        -13    1    1    2    0    0 -0.14938472501E+03 -0.32510180043E+03 -0.62620322804E+03  0.72120556756E+03  0.10566000000E+00 0.  1.
         13    1    1    2    0    0  0.12373694646E+03  0.34238118725E+03 -0.15770253521E+04  0.16185007512E+04  0.10566000000E+00 0. -1.
         -4    1    1    2    0  502  0.25647778547E+02 -0.17279386819E+02 -0.18652519573E+02  0.36115124805E+02  0.00000000000E+00 0. -1.
</event>
<event>
 5    1  0.6336319E-005  0.5259966E+02  0.7818608E-02  0.1281552E+00
         21   -1    0    0  501  502  0.00000000000E+00  0.00000000000E+00  0.60813344197E+02  0.60813344197E+02  0.00000000000E+00 0.  1.
         -4   -1    0    0    0  501 -0.00000000000E+00 -0.00000000000E+00 -0.75300253129E+02  0.75300253129E+02  0.00000000000E+00 0. -1.
        -13    1    1    2    0    0 -0.77133786912E+01 -0.45770591308E+02 -0.10171591305E+01  0.46427244332E+02  0.10566000000E+00 0.  1.
         13    1    1    2    0    0 -0.13181020641E+01  0.57587576127E+02 -0.32024522140E+02  0.65906354016E+02  0.10566000000E+00 0. -1.
         -4    1    1    2    0  502  0.90314807553E+01 -0.11816984819E+02  0.18554772339E+02  0.23779998978E+02  0.00000000000E+00 0. -1.
</event>
<event>
 5    1  0.6336319E-005  0.3617547E+03  0.7818608E-02  0.9969966E-01
         21   -1    0    0  501  502  0.00000000000E+00  0.00000000000E+00  0.13055476301E+04  0.13055476301E+04  0.00000000000E+00 0. -1.
         -4   -1    0    0    0  501 -0.00000000000E+00 -0.00000000000E+00 -0.31506378760E+03  0.31506378760E+03  0.00000000000E+00 0. -1.
        -13    1    1    2    0    0 -0.18416461925E+03  0.15314478621E+03  0.10285351794E+03  0.26066988672E+03  0.10566000000E+00 0.  1.
         13    1    1    2    0    0 -0.26721141161E+03  0.18496730832E+03  0.68938233182E+03  0.76214359161E+03  0.10566000000E+00 0. -1.
         -4    1    1    2    0  502  0.45137603086E+03 -0.33811209453E+03  0.19824799278E+03  0.59779793940E+03  0.00000000000E+00 0. -1.
</event>
<event>
 5    1  0.6336319E-005  0.2685524E+03  0.7818608E-02  0.1021203E+00
          4   -1    0    0  502    0 -0.00000000000E+00  0.00000000000E+00  0.15195219742E+04  0.15195219742E+04  0.00000000000E+00 0.  1.
         21   -1    0    0  501  502  0.00000000000E+00 -0.00000000000E+00 -0.63600527169E+02  0.63600527169E+02  0.00000000000E+00 0. -1.
        -13    1    1    2    0    0  0.10184163201E+03  0.24852461383E+03  0.10630382494E+04  0.10964426718E+04  0.10566000000E+00 0.  1.
         13    1    1    2    0    0 -0.11165558751E+03 -0.24432616759E+03  0.39296149127E+03  0.47600524281E+03  0.10566000000E+00 0. -1.
          4    1    1    2  501    0  0.98139554983E+01 -0.41984462399E+01 -0.78293606653E-01  0.10674586795E+02  0.00000000000E+00 0.  1.
</event>
<event>
 5    1  0.6336319E-005  0.4969191E+03  0.7818608E-02  0.9858749E-01
         21   -1    0    0  501  502  0.00000000000E+00  0.00000000000E+00  0.36172718427E+03  0.36172718427E+03  0.00000000000E+00 0.  1.
          4   -1    0    0  502    0 -0.00000000000E+00 -0.00000000000E+00 -0.11460498720E+04  0.11460498720E+04  0.00000000000E+00 0.  1.
        -13    1    1    2    0    0 -0.27679936471E+03 -0.40221222203E+03 -0.26994767336E+03  0.55791067149E+03  0.10566000000E+00 0.  1.
         13    1    1    2    0    0 -0.11306645703E+03  0.71764763415E+02 -0.40588850106E+03  0.42741044843E+03  0.10566000000E+00 0. -1.
          4    1    1    2  501    0  0.38986582174E+03  0.33044745862E+03 -0.10848651333E+03  0.52245593636E+03  0.00000000000E+00 0.  1.
</event>
<event>
 5    1  0.6336319E-005  0.6926513E+03  0.7818608E-02  0.9133707E-01
         21   -1    0    0  501  502  0.00000000000E+00  0.00000000000E+00  0.61449598884E+03  0.61449598884E+03  0.00000000000E+00 0. -1.
          4   -1    0    0  502    0 -0.00000000000E+00 -0.00000000000E+00 -0.13254591167E+04  0.13254591167E+04  0.00000000000E+00 0.  1.
        -13    1    1    2    0    0 -0.37567942358E+03  0.74080307298E+03 -0.18004350935E+03  0.84990581752E+03  0.10566000000E+00 0.  1.
         13    1    1    2    0    0  0.44546826040E+03 -0.43432666257E+03 -0.25710914563E+03  0.67319146219E+03  0.10566000000E+00 0. -1.
          4    1    1    2  501    0 -0.69788836818E+02 -0.30647641041E+03 -0.27381047287E+03  0.41685782581E+03  0.00000000000E+00 0.  1.
</event>
<event>
 5    1  0.6336319E-005  0.1517650E+03  0.7818608E-02  0.1099384E+00
         21   -1    0    0  501  502  0.00000000000E+00  0.00000000000E+00  0.22790144738E+03  0.22790144738E+03  0.00000000000E+00 0. -1.
          4   -1    0    0  502    0 -0.00000000000E+00 -0.00000000000E+00 -0.13890529616E+03  0.13890529616E+03  0.00000000000E+00 0.  1.
        -13    1    1    2    0    0  0.52679865854E+02 -0.14211855107E+03  0.12171866400E+03  0.19439211700E+03  0.10566000000E+00 0.  1.
         13    1    1    2    0    0 -0.68569652608E+02  0.13578275798E+03 -0.30793000002E+02  0.15519978942E+03  0.10566000000E+00 0. -1.
          4    1    1    2  501    0  0.15889786754E+02  0.63357930875E+01 -0.19295127789E+01  0.17214837110E+02  0.00000000000E+00 0.  1.
</event>
<event>
 5    1  0.6336319E-005  0.4933854E+03  0.7818608E-02  0.9833146E-01
         21   -1    0    0  501  502  0.00000000000E+00  0.00000000000E+00  0.39208260215E+03  0.39208260215E+03  0.00000000000E+00 0.  1.
          4   -1    0    0  502    0 -0.00000000000E+00 -0.00000000000E+00 -0.12461067082E+04  0.12461067082E+04  0.00000000000E+00 0.  1.
        -13    1    1    2    0    0  0.18087526455E+03  0.51262122099E+03 -0.37651962633E+02  0.54489820975E+03  0.10566000000E+00 0.  1.
         13    1    1    2    0    0 -0.12580092994E+03 -0.80205209577E+02 -0.57701278298E+03  0.59598868487E+03  0.10566000000E+00 0. -1.
          4    1    1    2  501    0 -0.55074334610E+02 -0.43241601142E+03 -0.23935936048E+03  0.49730241575E+03  0.00000000000E+00 0.  1.
</event>
<event>
 5    1  0.6336319E-005  0.3873534E+03  0.7818608E-02  0.9766297E-01
         21   -1    0    0  501  502  0.00000000000E+00  0.00000000000E+00  0.37804069198E+03  0.37804069198E+03  0.00000000000E+00 0. -1.
         -4   -1    0    0    0  501 -0.00000000000E+00 -0.00000000000E+00 -0.50842811872E+03  0.50842811872E+03  0.00000000000E+00 0. -1.
        -13    1    1    2    0    0  0.17417989415E+03 -0.31738722117E+03  0.24011256711E+02  0.36283582417E+03  0.10566000000E+00 0.  1.
         13    1    1    2    0    0 -0.24940170142E+03  0.32117411470E+03 -0.17915155687E+03  0.44435268889E+03  0.10566000000E+00 0. -1.
         -4    1    1    2    0  502  0.75221807272E+02 -0.37868935361E+01  0.24752873421E+02  0.79280297644E+02  0.00000000000E+00 0. -1.
</event>
<event>
 5    1  0.6336319E-005  0.3431584E+03  0.7818608E-02  0.9909324E-01
          4   -1    0    0  502    0 -0.00000000000E+00  0.00000000000E+00  0.30939072659E+03  0.30939072659E+03  0.00000000000E+00 0.  1.
         21   -1    0    0  501  502  0.00000000000E+00 -0.00000000000E+00 -0.51125671933E+03  0.51125671933E+03  0.00000000000E+00 0. -1.
        -13    1    1    2    0    0  0.50774585297E+02  0.31328621285E+03 -0.15258273028E+03  0.35214742711E+03  0.10566000000E+00 0.  1.
         13    1    1    2    0    0 -0.78876335404E+02 -0.35081181051E+03  0.45812074985E+02  0.36247642690E+03  0.10566000000E+00 0. -1.
          4    1    1    2  501    0  0.28101750107E+02  0.37525597662E+02 -0.95095337437E+02  0.10602359191E+03  0.00000000000E+00 0.  1.
</event>
<event>
 5    1  0.6336319E-005  0.4363351E+03  0.7818608E-02  0.9740770E-01
         21   -1    0    0  501  502  0.00000000000E+00  0.00000000000E+00  0.42906591888E+03  0.42906591888E+03  0.00000000000E+00 0.  1.
          4   -1    0    0  502    0 -0.00000000000E+00 -0.00000000000E+00 -0.12530377564E+04  0.12530377564E+04  0.00000000000E+00 0.  1.
        -13    1    1    2    0    0 -0.21807648783E+03 -0.56197570551E+02 -0.55666296784E+03  0.60049079294E+03  0.10566000000E+00 0.  1.
         13    1    1    2    0    0 -0.20765748712E+03 -0.21081980956E+03 -0.45701839688E+03  0.54445610504E+03  0.10566000000E+00 0. -1.
          4    1    1    2  501    0  0.42573397495E+03  0.26701738011E+03  0.18970952719E+03  0.53715677731E+03  0.00000000000E+00 0.  1.
</event>
<event>
 5    1  0.6336319E-005  0.8275185E+02  0.7818608E-02  0.1196752E+00
         21   -1    0    0  501  502  0.00000000000E+00  0.00000000000E+00  0.32785558653E+03  0.32785558653E+03  0.00000000000E+00 0. -1.
         -4   -1    0    0    0  501 -0.00000000000E+00 -0.00000000000E+00 -0.85402556753E+02  0.85402556753E+02  0.00000000000E+00 0. -1.
        -13    1    1    2    0    0 -0.37335772214E+02  0.10997325962E+03  0.17886115576E+03  0.21325900197E+03  0.10566000000E+00 0.  1.
         13    1    1    2    0    0  0.17891823956E+02 -0.76674340576E+02 -0.40825473967E+02  0.88689358753E+02  0.10566000000E+00 0. -1.
         -4    1    1    2    0  502  0.19443948259E+02 -0.33298919042E+02  0.10441734799E+03  0.11130978256E+03  0.00000000000E+00 0. -1.
</event>
<event>
 5    1  0.6336319E-005  0.4794534E+03  0.7818608E-02  0.9810526E-01
         21   -1    0    0  501  502  0.00000000000E+00  0.00000000000E+00  0.20412964569E+03  0.20412964569E+03  0.00000000000E+00 0. -1.
         -4   -1    0    0    0  501 -0.00000000000E+00 -0.00000000000E+00 -0.20677582382E+04  0.20677582382E+04  0.00000000000E+00 0. -1.
        -13    1    1    2    0    0  0.11304494045E+03 -0.13433963607E+03 -0.70034594327E+03  0.72201852317E+03  0.10566000000E+00 0.  1.
         13    1    1    2    0    0  0.43584419569E+03 -0.20495332465E+02 -0.36540074793E+03  0.56912032060E+03  0.10566000000E+00 0. -1.
         -4    1    1    2    0  502 -0.54888913614E+03  0.15483496853E+03 -0.79788190135E+03  0.98074904015E+03  0.00000000000E+00 0. -1.
</event>
<event>
 5    1  0.6336319E-005  0.3488449E+03  0.7818608E-02  0.1004825E+00
         21   -1    0    0  501  502  0.00000000000E+00  0.00000000000E+00  0.53890533851E+03  0.53890533851E+03  0.00000000000E+00 0. -1.
         -4   -1    0    0    0  501 -0.00000000000E+00 -0.00000000000E+00 -0.72046355775E+03  0.72046355775E+03  0.00000000000E+00 0. -1.
        -13    1    1    2    0    0  0.18242549006E+03  0.97326481191E+02  0.47819219515E+02  0.21222203534E+03  0.10566000000E+00 0.  1.
         13    1    1    2    0    0 -0.41089639396E+03 -0.32233865560E+03 -0.42342994562E+03  0.67233249622E+03  0.10566000000E+00 0. -1.
         -4    1    1    2    0  502  0.22847090390E+03  0.22501217441E+03  0.19405250687E+03  0.37481436470E+03  0.00000000000E+00 0. -1.
</event>
<event>
 5    1  0.6336319E-005  0.3305018E+03  0.7818608E-02  0.9954552E-01
          4   -1    0    0  502    0 -0.00000000000E+00  0.00000000000E+00  0.17245601523E+04  0.17245601523E+04  0.00000000000E+00 0.  1.
         21   -1    0    0  501  502  0.00000000000E+00 -0.00000000000E+00 -0.27814923900E+03  0.27814923900E+03  0.00000000000E+00 0.  1.
        -13    1    1    2    0    0  0.21698878652E+02 -0.33554478695E+03  0.10981446830E+04  0.11484698086E+04  0.10566000000E+00 0.  1.
         13    1    1    2    0    0 -0.19090821827E+03  0.29219231825E+03  0.50879460629E+03  0.61700426351E+03  0.10566000000E+00 0. -1.
          4    1    1    2  501    0  0.16920933961E+03  0.43352468704E+02 -0.16052837599E+03  0.23723531915E+03  0.00000000000E+00 0.  1.
</event>
<event>
 5    1  0.6336319E-005  0.4679614E+03  0.7818608E-02  0.9592529E-01
          4   -1    0    0  502    0 -0.00000000000E+00  0.00000000000E+00  0.28611072478E+04  0.28611072478E+04  0.00000000000E+00 0.  1.
         21   -1    0    0  501  502  0.00000000000E+00 -0.00000000000E+00 -0.23043458951E+03  0.23043458951E+03  0.00000000000E+00 0.  1.
        -13    1    1    2    0    0  0.18200652134E+03 -0.42110822528E+03  0.38982501603E+03  0.60201500437E+03  0.10566000000E+00 0.  1.
         13    1    1    2    0    0 -0.50243882970E+03 -0.39234277032E+02  0.82661044523E+03  0.96812651312E+03  0.10566000000E+00 0. -1.
          4    1    1    2  501    0  0.32043230836E+03  0.46034250231E+03  0.14142371971E+04  0.15214003199E+04  0.00000000000E+00 0.  1.
</event>
<event>
 5    1  0.6336319E-005  0.1453445E+03  0.7818608E-02  0.1105796E+00
         21   -1    0    0  501  502  0.00000000000E+00  0.00000000000E+00  0.60845896351E+03  0.60845896351E+03  0.00000000000E+00 0.  1.
          4   -1    0    0  502    0 -0.00000000000E+00 -0.00000000000E+00 -0.32135752458E+03  0.32135752458E+03  0.00000000000E+00 0.  1.
        -13    1    1    2    0    0  0.11152205504E+03  0.88649971611E+02 -0.15528615273E+03  0.21073629640E+03  0.10566000000E+00 0.  1.
         13    1    1    2    0    0 -0.12248718600E+03 -0.86073851402E+02 -0.97770881784E+02  0.17880429278E+03  0.10566000000E+00 0. -1.
          4    1    1    2  501    0  0.10965130962E+02 -0.25761202083E+01  0.54015847345E+03  0.54027589890E+03  0.00000000000E+00 0.  1.
</event>
<event>
 5    1  0.6336319E-005  0.1215515E+03  0.7818608E-02  0.1133129E+00
          4   -1    0    0  502    0 -0.00000000000E+00  0.00000000000E+00  0.35931923790E+03  0.35931923790E+03  0.00000000000E+00 0.  1.
         21   -1    0    0  501  502  0.00000000000E+00 -0.00000000000E+00 -0.98202984096E+03  0.98202984096E+03  0.00000000000E+00 0.  1.
        -13    1    1    2    0    0  0.11495733629E+03 -0.39853168268E+02  0.34343120328E+03  0.36434662992E+03  0.10566000000E+00 0.  1.
         13    1    1    2    0    0 -0.11543442277E+03  0.13668166067E+02 -0.70122065252E+03  0.71078994043E+03  0.10566000000E+00 0. -1.
          4    1    1    2  501    0  0.47708648478E+00  0.26185002201E+02 -0.26492115381E+03  0.26621250851E+03  0.00000000000E+00 0.  1.
</event>
<event>
 5    1  0.6336319E-005  0.4606454E+03  0.7818608E-02  0.9829348E-01
         21   -1    0    0  501  502  0.00000000000E+00  0.00000000000E+00  0.21883313605E+03  0.21883313605E+03  0.00000000000E+00 0. -1.
         -4   -1    0    0    0  501 -0.00000000000E+00 -0.00000000000E+00 -0.20287375312E+04  0.20287375312E+04  0.00000000000E+00 0. -1.
        -13    1    1    2    0    0 -0.18364007109E+03  0.27561187051E+02 -0.96513344002E+03  0.98283562356E+03  0.10566000000E+00 0.  1.
         13    1    1    2    0    0  0.54190236912E+03  0.10465823543E+03 -0.42007487378E+03  0.69359529601E+03  0.10566000000E+00 0. -1.
         -4    1    1    2    0  502 -0.35826229803E+03 -0.13221942248E+03 -0.42469608137E+03  0.57113974770E+03  0.00000000000E+00 0. -1.
</event>
<event>
 5    1  0.6336319E-005  0.4041100E+03  0.7818608E-02  0.1009537E+00
          4   -1    0    0  502    0 -0.00000000000E+00  0.00000000000E+00  0.16655856498E+03  0.16655856498E+03  0.00000000000E+00 0.  1.
         21   -1    0    0  501  502  0.00000000000E+00 -0.00000000000E+00 -0.16743770261E+04  0.16743770261E+04  0.00000000000E+00 0.  1.
        -13    1    1    2    0    0 -0.45461655092E+03  0.16046176750E+03 -0.39890479759E+03  0.62573895188E+03  0.10566000000E+00 0.  1.
         13    1    1    2    0    0  0.11408398175E+03  0.55927846312E+01 -0.19707665253E+03  0.22778422305E+03  0.10566000000E+00 0. -1.
          4    1    1    2  501    0  0.34053256917E+03 -0.16605455213E+03 -0.91183701097E+03  0.98741241613E+03  0.00000000000E+00 0.  1.
</event>
<event>
 5    1  0.6336319E-005  0.3367351E+03  0.7818608E-02  0.9932013E-01
         -4   -1    0    0    0  501 -0.00000000000E+00  0.00000000000E+00  0.97749938507E+03  0.97749938507E+03  0.00000000000E+00 0. -1.
         21   -1    0    0  501  502  0.00000000000E+00 -0.00000000000E+00 -0.13597212950E+03  0.13597212950E+03  0.00000000000E+00 0.  1.
        -13    1    1    2    0    0  0.31723074513E+03  0.78601254144E+02  0.39250518402E+03  0.51075809681E+03  0.10566000000E+00 0.  1.
         13    1    1    2    0    0 -0.34001451867E+03 -0.67515696411E+02  0.45924568432E+03  0.57539104259E+03  0.10566000000E+00 0. -1.
         -4    1    1    2    0  502  0.22783773535E+02 -0.11085557732E+02 -0.10223612770E+02  0.27322375167E+02  0.00000000000E+00 0. -1.
</event>
<event>
 5    1  0.6336319E-005  0.3102503E+03  0.7818608E-02  0.1010085E+00
         21   -1    0    0  501  502  0.00000000000E+00  0.00000000000E+00  0.15606665704E+03  0.15606665704E+03  0.00000000000E+00 0. -1.
         -4   -1    0    0    0  501 -0.00000000000E+00 -0.00000000000E+00 -0.23441268707E+04  0.23441268707E+04  0.00000000000E+00 0. -1.
        -13    1    1    2    0    0 -0.88421217439E+02  0.23170884233E+03 -0.27869693297E+03  0.37306740801E+03  0.10566000000E+00 0.  1.
         13    1    1    2    0    0 -0.87728861864E+02 -0.46342168590E+03 -0.17111900653E+04  0.17750006938E+04  0.10566000000E+00 0. -1.
         -4    1    1    2    0  502  0.17615007930E+03  0.23171284357E+03 -0.19817321544E+03  0.35212542599E+03  0.00000000000E+00 0. -1.
</event>
<event>
 5    1  0.6336319E-005  0.3978967E+03  0.7818608E-02  0.9735140E-01
         -4   -1    0    0    0  501 -0.00000000000E+00  0.00000000000E+00  0.38832968893E+03  0.38832968893E+03  0.00000000000E+00 0. -1.
         21   -1    0    0  501  502  0.00000000000E+00 -0.00000000000E+00 -0.17074068679E+04  0.17074068679E+04  0.00000000000E+00 0. -1.
        -13    1    1    2    0    0 -0.38365929805E+02 -0.37997718534E+03  0.31008768850E+02  0.38316597039E+03  0.10566000000E+00 0.  1.
         13    1    1    2    0    0  0.33104170119E+03  0.36544387573E+03 -0.21090013762E+03  0.53629908954E+03  0.10566000000E+00 0. -1.
         -4    1    1    2    0  502 -0.29267577138E+03  0.14533309615E+02 -0.11391858102E+04  0.11762714969E+04  0.00000000000E+00 0. -1.
</event>
<event>
 5    1  0.6336319E-005  0.1822753E+03  0.7818608E-02  0.1073017E+00
          4   -1    0    0  502    0 -0.00000000000E+00  0.00000000000E+00  0.78931474232E+03  0.78931474232E+03  0.00000000000E+00 0.  1.
         21   -1    0    0  501  502  0.00000000000E+00 -0.00000000000E+00 -0.77694993768E+02  0.77694993768E+02  0.00000000000E+00 0. -1.
        -13    1    1    2    0    0 -0.23301865310E+02  0.18945427683E+03  0.45882447923E+03  0.49694648992E+03  0.10566000000E+00 0.  1.
         13    1    1    2    0    0  0.18687905686E+02 -0.17050428151E+03  0.28487041638E+03  0.33252385347E+03  0.10566000000E+00 0. -1.
          4    1    1    2  501    0  0.46139596242E+01 -0.18949995314E+02 -0.32075147057E+02  0.37539392703E+02  0.00000000000E+00 0.  1.
</event>
<event>
 5    1  0.6336319E-005  0.6665852E+03  0.7818608E-02  0.9172913E-01
         21   -1    0    0  501  502  0.00000000000E+00  0.00000000000E+00  0.69272578936E+03  0.69272578936E+03  0.00000000000E+00 0.  1.
          4   -1    0    0  502    0 -0.00000000000E+00 -0.00000000000E+00 -0.14398912675E+04  0.14398912675E+04  0.00000000000E+00 0.  1.
        -13    1    1    2    0    0 -0.75462270411E+03  0.98637947793E+02 -0.29619038058E+02  0.76161812537E+03  0.10566000000E+00 0.  1.
         13    1    1    2    0    0  0.59877950067E+03  0.28786600725E+03 -0.68299244823E+03  0.95282864360E+03  0.10566000000E+00 0. -1.
          4    1    1    2  501    0  0.15584320344E+03 -0.38650395504E+03 -0.34553991852E+02  0.41817028789E+03  0.00000000000E+00 0.  1.
</event>
<event>
 5    1  0.6336319E-005  0.4386047E+03  0.7818608E-02  0.9623756E-01
         21   -1    0    0  501  502  0.00000000000E+00  0.00000000000E+00  0.24801222495E+03  0.24801222495E+03  0.00000000000E+00 0.  1.
         -4   -1    0    0    0  501 -0.00000000000E+00 -0.00000000000E+00 -0.22863173037E+04  0.22863173037E+04  0.00000000000E+00 0. -1.
        -13    1    1    2    0    0 -0.36074049192E+03 -0.60451772618E+02 -0.90456247378E+03  0.97571583950E+03  0.10566000000E+00 0.  1.
         13    1    1    2    0    0  0.61529820416E+03  0.29573222755E+03 -0.93926387612E+03  0.11611485997E+04  0.10566000000E+00 0. -1.
         -4    1    1    2    0  502 -0.25455771224E+03 -0.23528045494E+03 -0.19447872885E+03  0.39746508943E+03  0.00000000000E+00 0. -1.
</event>
<event>
 5    1  0.6336319E-005  0.4811291E+03  0.7818608E-02  0.9961189E-01
         21   -1    0    0  501  502  0.00000000000E+00  0.00000000000E+00  0.18129438525E+03  0.18129438525E+03  0.00000000000E+00 0. -1.
         -4   -1    0    0    0  501 -0.00000000000E+00 -0.00000000000E+00 -0.17954238510E+04  0.17954238510E+04  0.00000000000E+00 0. -1.
        -13    1    1    2    0    0 -0.21701359729E+02 -0.10253327676E+03 -0.28133982904E+03  0.30022680164E+03  0.10566000000E+00 0.  1.
         13    1    1    2    0    0  0.49524135291E+03  0.58013088132E+02 -0.92124379550E+03  0.10475302659E+04  0.10566000000E+00 0. -1.
         -4    1    1    2    0  502 -0.47353999318E+03  0.44520188630E+02 -0.41154584117E+03  0.62896116869E+03  0.00000000000E+00 0. -1.
</event>
<event>
 5    1  0.6336319E-005  0.3412944E+03  0.7818608E-02  0.1012631E+00
          4   -1    0    0  502    0 -0.00000000000E+00  0.00000000000E+00  0.78626002213E+03  0.78626002213E+03  0.00000000000E+00 0.  1.
         21   -1    0    0  501  502  0.00000000000E+00 -0.00000000000E+00 -0.45364755531E+03  0.45364755531E+03  0.00000000000E+00 0.  1.
        -13    1    1    2    0    0  0.72424109236E+02 -0.35544532835E+03 -0.25168587115E+03  0.44151151960E+03  0.10566000000E+00 0.  1.
         13    1    1    2    0    0  0.29948242338E+02  0.16906700323E+03 -0.51385345496E+01  0.17177591362E+03  0.10566000000E+00 0. -1.
          4    1    1    2  501    0 -0.10237235157E+03  0.18637832512E+03  0.58943687253E+03  0.62662014421E+03  0.00000000000E+00 0.  1.
</event>
<event>
 5    1  0.6336319E-005  0.2923669E+03  0.7818608E-02  0.1010507E+00
         21   -1    0    0  501  502  0.00000000000E+00  0.00000000000E+00  0.40976362261E+03  0.40976362261E+03  0.00000000000E+00 0. -1.
          4   -1    0    0  502    0 -0.00000000000E+00 -0.00000000000E+00 -0.25131060556E+03  0.25131060556E+03  0.00000000000E+00 0.  1.
        -13    1    1    2    0    0  0.83944472490E+02 -0.28862197657E+03  0.27479503543E+01  0.30059421520E+03  0.10566000000E+00 0.  1.
         13    1    1    2    0    0 -0.11132375651E+03  0.25921292658E+03  0.11942682860E+03  0.30634473821E+03  0.10566000000E+00 0. -1.
          4    1    1    2  501    0  0.27379284023E+02  0.29409049985E+02  0.36278238094E+02  0.54135274765E+02  0.00000000000E+00 0.  1.
</event>
<event>
 5    1  0.6336319E-005  0.4169071E+02  0.7818608E-02  0.1329887E+00
         21   -1    0    0  501  502  0.00000000000E+00  0.00000000000E+00  0.38478547023E+03  0.38478547023E+03  0.00000000000E+00 0.  1.
          4   -1    0    0  502    0 -0.00000000000E+00 -0.00000000000E+00 -0.10464237572E+02  0.10464237572E+02  0.00000000000E+00 0.  1.
        -13    1    1    2    0    0  0.34698884548E+02  0.38197567573E+02  0.20780747087E+03  0.21411917913E+03  0.10566000000E+00 0.  1.
         13    1    1    2    0    0 -0.24328406544E+02 -0.30646400842E+02  0.48016271518E+02  0.61940671163E+02  0.10566000000E+00 0. -1.
          4    1    1    2  501    0 -0.10370478004E+02 -0.75511667305E+01  0.11849749027E+03  0.11918985751E+03  0.00000000000E+00 0.  1.
</event>
<event>
 5    1  0.6336319E-005  0.1802771E+03  0.7818608E-02  0.1074568E+00
         21   -1    0    0  501  502  0.00000000000E+00  0.00000000000E+00  0.46351868355E+03  0.46351868355E+03  0.00000000000E+00 0. -1.
          4   -1    0    0  502    0 -0.00000000000E+00 -0.00000000000E+00 -0.11079551246E+03  0.11079551246E+03  0.00000000000E+00 0.  1.
        -13    1    1    2    0    0 -0.59298570013E+02  0.16373405774E+03  0.17078996904E+03  0.24391471206E+03  0.10566000000E+00 0.  1.
         13    1    1    2    0    0  0.39658324061E+02 -0.17993881530E+03  0.43074029511E+02  0.18922511224E+03  0.10566000000E+00 0. -1.
          4    1    1    2  501    0  0.19640245952E+02  0.16204757556E+02  0.13885917254E+03  0.14117437171E+03  0.00000000000E+00 0.  1.
</event>
<event>
 5    1  0.6336319E-005  0.2918938E+03  0.7818608E-02  0.1010709E+00
         21   -1    0    0  501  502  0.00000000000E+00  0.00000000000E+00  0.42000113228E+03  0.42000113228E+03  0.00000000000E+00 0.  1.
         -4   -1    0    0    0  501 -0.00000000000E+00 -0.00000000000E+00 -0.25314460676E+03  0.25314460676E+03  0.00000000000E+00 0. -1.
        -13    1    1    2    0    0 -0.28432020151E+03 -0.27759934930E+02  0.35940409273E+02  0.28792414827E+03  0.10566000000E+00 0.  1.
         13    1    1    2    0    0  0.29566775742E+03  0.43809954994E+02  0.51364089450E+02  0.30327712704E+03  0.10566000000E+00 0. -1.
         -4    1    1    2    0  502 -0.11347555916E+02 -0.16050020064E+02  0.79552026799E+02  0.81944463737E+02  0.00000000000E+00 0. -1.
</event>
<event>
 5    1  0.6336319E-005  0.4351280E+03  0.7818608E-02  0.9872526E-01
         21   -1    0    0  501  502  0.00000000000E+00  0.00000000000E+00  0.14052003833E+04  0.14052003833E+04  0.00000000000E+00 0. -1.
         -4   -1    0    0    0  501 -0.00000000000E+00 -0.00000000000E+00 -0.28173899558E+03  0.28173899558E+03  0.00000000000E+00 0. -1.
        -13    1    1    2    0    0 -0.14559759879E+03  0.12270849110E+03  0.28436650852E+02  0.19252191780E+03  0.10566000000E+00 0.  1.
         13    1    1    2    0    0  0.52130327745E+03 -0.22919844301E+03  0.39568943439E+03  0.69344010052E+03  0.10566000000E+00 0. -1.
         -4    1    1    2    0  502 -0.37570567867E+03  0.10648995191E+03  0.69933530248E+03  0.80097736056E+03  0.00000000000E+00 0. -1.
</event>
<event>
 5    1  0.6336319E-005  0.1395303E+03  0.7818608E-02  0.1111922E+00
          4   -1    0    0  502    0 -0.00000000000E+00  0.00000000000E+00  0.62361005678E+03  0.62361005678E+03  0.00000000000E+00 0.  1.
         21   -1    0    0  501  502  0.00000000000E+00 -0.00000000000E+00 -0.89911206648E+03  0.89911206648E+03  0.00000000000E+00 0.  1.
        -13    1    1    2    0    0  0.85179975393E+02 -0.15727375013E+03 -0.87485937563E+03  0.89295554144E+03  0.10566000000E+00 0.  1.
         13    1    1    2    0    0 -0.51951550904E+02  0.12887796565E+03  0.34941191490E+03  0.37602817861E+03  0.10566000000E+00 0. -1.
          4    1    1    2  501    0 -0.33228424490E+02  0.28395784479E+02  0.24994545103E+03  0.25373840321E+03  0.00000000000E+00 0.  1.
</event>
<event>
 5    1  0.6336319E-005  0.4717407E+03  0.7818608E-02  0.9704906E-01
         21   -1    0    0  501  502  0.00000000000E+00  0.00000000000E+00  0.23282391671E+03  0.23282391671E+03  0.00000000000E+00 0.  1.
         -4   -1    0    0    0  501 -0.00000000000E+00 -0.00000000000E+00 -0.17023364855E+04  0.17023364855E+04  0.00000000000E+00 0. -1.
        -13    1    1    2    0    0 -0.22586268022E+03 -0.13892031782E+03 -0.20665464838E+03  0.33618292622E+03  0.10566000000E+00 0.  1.
         13    1    1    2    0    0  0.46406142051E+03  0.37654358130E+03 -0.55657347605E+03  0.81664687352E+03  0.10566000000E+00 0. -1.
         -4    1    1    2    0  502 -0.23819874029E+03 -0.23762326348E+03 -0.70628444431E+03  0.78233060243E+03  0.00000000000E+00 0. -1.
</event>
<event>
 5    1  0.6336319E-005  0.4351674E+03  0.7818608E-02  0.9632656E-01
         21   -1    0    0  501  502  0.00000000000E+00  0.00000000000E+00  0.10475349010E+04  0.10475349010E+04  0.00000000000E+00 0. -1.
          4   -1    0    0  502    0 -0.00000000000E+00 -0.00000000000E+00 -0.33983922275E+03  0.33983922275E+03  0.00000000000E+00 0.  1.
        -13    1    1    2    0    0 -0.37916812008E+03 -0.25144725819E+03  0.13507744688E+03  0.47459468471E+03  0.10566000000E+00 0.  1.
         13    1    1    2    0    0  0.36642848622E+03  0.20304153767E+03  0.91159429223E+02  0.42872573311E+03  0.10566000000E+00 0. -1.
          4    1    1    2  501    0  0.12739633864E+02  0.48405720529E+02  0.48145880217E+03  0.48405370594E+03  0.00000000000E+00 0.  1.
</event>
<event>
 5    1  0.6336319E-005  0.3581412E+03  0.7818608E-02  0.9973913E-01
          4   -1    0    0  502    0 -0.00000000000E+00  0.00000000000E+00  0.86059100151E+03  0.86059100151E+03  0.00000000000E+00 0.  1.
         21   -1    0    0  501  502  0.00000000000E+00 -0.00000000000E+00 -0.48699578058E+03  0.48699578058E+03  0.00000000000E+00 0.  1.
        -13    1    1    2    0    0 -0.14788686687E+03 -0.53845406682E+03  0.39102249094E+03  0.68169047745E+03  0.10566000000E+00 0.  1.
         13    1    1    2    0    0  0.11117080125E+03  0.21681237350E+03  0.16503720470E+03  0.29428530791E+03  0.10566000000E+00 0. -1.
          4    1    1    2  501    0  0.36716065616E+02  0.32164169332E+03 -0.18246447471E+03  0.37161099673E+03  0.00000000000E+00 0.  1.
</event>
<event>
 5    1  0.6336319E-005  0.5859163E+02  0.7818608E-02  0.1279103E+00
         21   -1    0    0  501  502  0.00000000000E+00  0.00000000000E+00  0.33872103405E+03  0.33872103405E+03  0.00000000000E+00 0. -1.
          4   -1    0    0  502    0 -0.00000000000E+00 -0.00000000000E+00 -0.37788327723E+02  0.37788327723E+02  0.00000000000E+00 0.  1.
        -13    1    1    2    0    0  0.10781427696E+02 -0.38662138269E+02 -0.95805467467E+01  0.41264974963E+02  0.10566000000E+00 0.  1.
         13    1    1    2    0    0 -0.65453451113E+02  0.17592042549E+02  0.16812224583E+03  0.18126978493E+03  0.10566000000E+00 0. -1.
          4    1    1    2  501    0  0.54672023417E+02  0.21070095720E+02  0.14239100725E+03  0.15397460188E+03  0.00000000000E+00 0.  1.
</event>
<event>
 5    1  0.6336319E-005  0.4839033E+03  0.7818608E-02  0.1002989E+00
         21   -1    0    0  501  502  0.00000000000E+00  0.00000000000E+00  0.41377168585E+03  0.41377168585E+03  0.00000000000E+00 0.  1.
          4   -1    0    0  502    0 -0.00000000000E+00 -0.00000000000E+00 -0.84704762826E+03  0.84704762826E+03  0.00000000000E+00 0.  1.
        -13    1    1    2    0    0  0.46072799649E+03  0.15818431099E+03  0.20371922512E+02  0.48755265294E+03  0.10566000000E+00 0.  1.
         13    1    1    2    0    0 -0.36959950202E+02  0.73453141796E+02 -0.22377651519E+03  0.23840583440E+03  0.10566000000E+00 0. -1.
          4    1    1    2  501    0 -0.42376804629E+03 -0.23163745278E+03 -0.22987134974E+03  0.53486082678E+03  0.00000000000E+00 0.  1.
</event>
<event>
 5    1  0.6336319E-005  0.4618745E+03  0.7818608E-02  0.9822098E-01
         21   -1    0    0  501  502  0.00000000000E+00  0.00000000000E+00  0.12301459761E+03  0.12301459761E+03  0.00000000000E+00 0.  1.
          4   -1    0    0  502    0 -0.00000000000E+00 -0.00000000000E+00 -0.29790142819E+04  0.29790142819E+04  0.00000000000E+00 0.  1.
        -13    1    1    2    0    0 -0.55617361313E+02 -0.40683703534E+03 -0.71524408690E+03  0.82473255011E+03  0.10566000000E+00 0.  1.
         13    1    1    2    0    0 -0.11173246825E+03 -0.15220150329E+03 -0.42603131748E+03  0.46599585482E+03  0.10566000000E+00 0. -1.
          4    1    1    2  501    0  0.16734982956E+03  0.55903853863E+03 -0.17147242799E+04  0.18113004745E+04  0.00000000000E+00 0.  1.
</event>
<event>
 5    1  0.6336319E-005  0.1096304E+03  0.7818608E-02  0.1159018E+00
          4   -1    0    0  502    0 -0.00000000000E+00  0.00000000000E+00  0.15639680810E+03  0.15639680810E+03  0.00000000000E+00 0.  1.
         21   -1    0    0  501  502  0.00000000000E+00 -0.00000000000E+00 -0.37098228229E+03  0.37098228229E+03  0.00000000000E+00 0.  1.
        -13    1    1    2    0    0 -0.82995306393E+02  0.14130497981E+03  0.69675342404E+02  0.17807297017E+03  0.10566000000E+00 0.  1.
         13    1    1    2    0    0  0.77370574899E+02 -0.39388827609E+02 -0.19599642267E+03  0.21436486294E+03  0.10566000000E+00 0. -1.
          4    1    1    2  501    0  0.56247314944E+01 -0.10191615220E+03 -0.88264393932E+02  0.13494125729E+03  0.00000000000E+00 0.  1.
</event>
<event>
 5    1  0.6336319E-005  0.5506000E+03  0.7818608E-02  0.9373467E-01
         21   -1    0    0  501  502  0.00000000000E+00  0.00000000000E+00  0.14146564558E+04  0.14146564558E+04  0.00000000000E+00 0.  1.
         -4   -1    0    0    0  501 -0.00000000000E+00 -0.00000000000E+00 -0.37302154977E+03  0.37302154977E+03  0.00000000000E+00 0. -1.
        -13    1    1    2    0    0 -0.28106032466E+03  0.46960297219E+03  0.40848036132E+03  0.68291879044E+03  0.10566000000E+00 0.  1.
         13    1    1    2    0    0  0.29741244953E+03 -0.46580157835E+03  0.88319560226E+02  0.55966564252E+03  0.10566000000E+00 0. -1.
         -4    1    1    2    0  502 -0.16352124874E+02 -0.38013938345E+01  0.54483498448E+03  0.54509357261E+03  0.00000000000E+00 0. -1.
</event>
<event>
 5    1  0.6336319E-005  0.2951097E+02  0.7818608E-02  0.1408879E+00
         -4   -1    0    0    0  501 -0.00000000000E+00  0.00000000000E+00  0.14256654918E+03  0.14256654918E+03  0.00000000000E+00 0. -1.
         21   -1    0    0  501  502  0.00000000000E+00 -0.00000000000E+00 -0.23496371545E+02  0.23496371545E+02  0.00000000000E+00 0.  1.
        -13    1    1    2    0    0  0.30304486521E+02  0.27066705258E+02  0.46024057440E+02  0.61393757534E+02  0.10566000000E+00 0.  1.
         13    1    1    2    0    0 -0.22999239615E+02 -0.13426091786E+02  0.82394054417E+02  0.86591086902E+02  0.10566000000E+00 0. -1.
         -4    1    1    2    0  502 -0.73052469065E+01 -0.13640613471E+02 -0.93479342189E+01  0.18078076292E+02  0.00000000000E+00 0. -1.
</event>
<event>
 5    1  0.6336319E-005  0.1087630E+03  0.7818608E-02  0.1181608E+00
         21   -1    0    0  501  502  0.00000000000E+00  0.00000000000E+00  0.11521138958E+03  0.11521138958E+03  0.00000000000E+00 0. -1.
         -4   -1    0    0    0  501 -0.00000000000E+00 -0.00000000000E+00 -0.31474116267E+03  0.31474116267E+03  0.00000000000E+00 0. -1.
        -13    1    1    2    0    0  0.53381677257E+01  0.51496657496E+02 -0.17320304678E+03  0.18077529794E+03  0.10566000000E+00 0.  1.
         13    1    1    2    0    0  0.90578131160E+02  0.43495049350E+02  0.26980527342E+02  0.10403930595E+03  0.10566000000E+00 0. -1.
         -4    1    1    2    0  502 -0.95916298886E+02 -0.94991706846E+02 -0.53307253656E+02  0.14513794836E+03  0.00000000000E+00 0. -1.
</event>
<event>
 5    1  0.6336319E-005  0.4237010E+03  0.7818608E-02  0.9996378E-01
         -4   -1    0    0    0  501 -0.00000000000E+00  0.00000000000E+00  0.15194180261E+04  0.15194180261E+04  0.00000000000E+00 0. -1.
         21   -1    0    0  501  502  0.00000000000E+00 -0.00000000000E+00 -0.21711736063E+03  0.21711736063E+03  0.00000000000E+00 0. -1.
        -13    1    1    2    0    0 -0.78491859855E+02 -0.11188571807E+03  0.22063237052E+03  0.25953427530E+03  0.10566000000E+00 0.  1.
         13    1    1    2    0    0  0.42254191356E+03 -0.10136724911E+03  0.14746077739E+03  0.45887000331E+03  0.10566000000E+00 0. -1.
         -4    1    1    2    0  502 -0.34405005370E+03  0.21325296718E+03  0.93420751759E+03  0.10181311081E+04  0.00000000000E+00 0. -1.
</event>
<event>
 5    1  0.6336319E-005  0.4594406E+03  0.7818608E-02  0.9860758E-01
         21   -1    0    0  501  502  0.00000000000E+00  0.00000000000E+00  0.17970723765E+03  0.17970723765E+03  0.00000000000E+00 0.  1.
          4   -1    0    0  502    0 -0.00000000000E+00 -0.00000000000E+00 -0.23187783219E+04  0.23187783219E+04  0.00000000000E+00 0.  1.
        -13    1    1    2    0    0 -0.14388623390E+03  0.53458820942E+03 -0.97267461076E+03  0.11191888632E+04  0.10566000000E+00 0.  1.
         13    1    1    2    0    0  0.12475184459E+03 -0.11295906004E+03 -0.80876727384E+03  0.82609157263E+03  0.10566000000E+00 0. -1.
          4    1    1    2  501    0  0.19134389310E+02 -0.42162914938E+03 -0.35762919967E+03  0.55320512373E+03  0.00000000000E+00 0.  1.
</event>
<event>
 5    1  0.6336319E-005  0.2233278E+02  0.7818608E-02  0.1479776E+00
         21   -1    0    0  501  502  0.00000000000E+00  0.00000000000E+00  0.11830509299E+03  0.11830509299E+03  0.00000000000E+00 0. -1.
         -4   -1    0    0    0  501 -0.00000000000E+00 -0.00000000000E+00 -0.24770717273E+02  0.24770717273E+02  0.00000000000E+00 0. -1.
        -13    1    1    2    0    0  0.22687369349E+02 -0.84941941533E+01  0.24235791250E+02  0.34267372293E+02  0.10566000000E+00 0.  1.
         13    1    1    2    0    0 -0.15068720833E+02  0.16568149523E+02 -0.12912154834E+02  0.25851592459E+02  0.10566000000E+00 0. -1.
         -4    1    1    2    0  502 -0.76186485163E+01 -0.80739553702E+01  0.82210739302E+02  0.82956845511E+02  0.00000000000E+00 0. -1.
</event>
<event>
 5    1  0.6336319E-005  0.2137349E+03  0.7818608E-02  0.1051107E+00
         -4   -1    0    0    0  501 -0.00000000000E+00  0.00000000000E+00  0.24735695062E+03  0.24735695062E+03  0.00000000000E+00 0. -1.
         21   -1    0    0  501  502  0.00000000000E+00 -0.00000000000E+00 -0.52622144920E+03  0.52622144920E+03  0.00000000000E+00 0. -1.
        -13    1    1    2    0    0 -0.98411430360E+02  0.14375923340E+03 -0.13233655506E+03  0.21877957351E+03  0.10566000000E+00 0.  1.
         13    1    1    2    0    0  0.16641133716E+03 -0.15834978641E+03  0.13389127318E+03  0.26588394497E+03  0.10566000000E+00 0. -1.
         -4    1    1    2    0  502 -0.67999906805E+02  0.14590553010E+02 -0.28041921671E+03  0.28891488134E+03  0.00000000000E+00 0. -1.
</event>
<event>
 5    1  0.6336319E-005  0.4772721E+03  0.7818608E-02  0.9529228E-01
         -4   -1    0    0    0  501 -0.00000000000E+00  0.00000000000E+00  0.52294024972E+03  0.52294024972E+03  0.00000000000E+00 0. -1.
         21   -1    0    0  501  502  0.00000000000E+00 -0.00000000000E+00 -0.69937035579E+03  0.69937035579E+03  0.00000000000E+00 0.  1.
        -13    1    1    2    0    0  0.34396361745E+03  0.23030571896E+03 -0.79412768800E+01  0.41402266769E+03  0.10566000000E+00 0.  1.
         13    1    1    2    0    0 -0.54404696223E+03 -0.22153702851E+03 -0.95545835524E+02  0.59514264673E+03  0.10566000000E+00 0. -1.
         -4    1    1    2    0  502  0.20008334478E+03 -0.87686904481E+01 -0.72942993672E+02  0.21314529109E+03  0.00000000000E+00 0. -1.
</event>
<event>
 5    1  0.6336319E-005  0.4300434E+03  0.7818608E-02  0.9856116E-01
         21   -1    0    0  501  502  0.00000000000E+00  0.00000000000E+00  0.16364849200E+03  0.16364849200E+03  0.00000000000E+00 0.  1.
          4   -1    0    0  502    0 -0.00000000000E+00 -0.00000000000E+00 -0.37866011509E+04  0.37866011509E+04  0.00000000000E+00 0.  1.
        -13    1    1    2    0    0 -0.83215923929E+02  0.40877030278E+03 -0.23439035283E+03  0.47849440864E+03  0.10566000000E+00 0.  1.
         13    1    1    2    0    0  0.16076117138E+03  0.13270704932E+03 -0.92914438245E+03  0.95224188616E+03  0.10566000000E+00 0. -1.
          4    1    1    2  501    0 -0.77545247450E+02 -0.54147735210E+03 -0.24594179236E+04  0.25195133481E+04  0.00000000000E+00 0.  1.
</event>
<event>
 5    1  0.6336319E-005  0.3805482E+03  0.7818608E-02  0.9786967E-01
         21   -1    0    0  501  502  0.00000000000E+00  0.00000000000E+00  0.18710868199E+03  0.18710868199E+03  0.00000000000E+00 0. -1.
         -4   -1    0    0    0  501 -0.00000000000E+00 -0.00000000000E+00 -0.20129814592E+04  0.20129814592E+04  0.00000000000E+00 0. -1.
        -13    1    1    2    0    0  0.26603784679E+03 -0.16762831524E+03 -0.20813753309E+03  0.37708968673E+03  0.10566000000E+00 0.  1.
         13    1    1    2    0    0 -0.27446212932E+03  0.29357552890E+03 -0.16454048014E+04  0.16937747853E+04  0.10566000000E+00 0. -1.
         -4    1    1    2    0  502  0.84242825347E+01 -0.12594721366E+03  0.27669557319E+02  0.12922566915E+03  0.00000000000E+00 0. -1.
</event>
<event>
 5    1  0.6336319E-005  0.4996651E+03  0.7818608E-02  0.9707692E-01
         21   -1    0    0  501  502  0.00000000000E+00  0.00000000000E+00  0.42655647195E+03  0.42655647195E+03  0.00000000000E+00 0.  1.
          4   -1    0    0  502    0 -0.00000000000E+00 -0.00000000000E+00 -0.11812724349E+04  0.11812724349E+04  0.00000000000E+00 0.  1.
        -13    1    1    2    0    0  0.31306868756E+03 -0.43086914494E+03 -0.19307541634E+03  0.56651421054E+03  0.10566000000E+00 0.  1.
         13    1    1    2    0    0  0.11783336267E+03  0.18696016007E+03 -0.49450415255E+03  0.54163933652E+03  0.10566000000E+00 0. -1.
          4    1    1    2  501    0 -0.43090205023E+03  0.24390898487E+03 -0.67136394096E+02  0.49967535981E+03  0.00000000000E+00 0.  1.
</event>
<event>
 5    1  0.6336319E-005  0.3602644E+02  0.7818608E-02  0.1362165E+00
          4   -1    0    0  502    0 -0.00000000000E+00  0.00000000000E+00  0.14778606393E+02  0.14778606393E+02  0.00000000000E+00 0.  1.
         21   -1    0    0  501  502  0.00000000000E+00 -0.00000000000E+00 -0.18313324741E+03  0.18313324741E+03  0.00000000000E+00 0. -1.
        -13    1    1    2    0    0  0.47156396946E+02  0.16058729416E+02 -0.10058292991E+03  0.11224324263E+03  0.10566000000E+00 0.  1.
         13    1    1    2    0    0 -0.29160451538E+02 -0.11579598346E+02 -0.29157948941E+02  0.42832419756E+02  0.10566000000E+00 0. -1.
          4    1    1    2  501    0 -0.17995945408E+02 -0.44791310701E+01 -0.38613762169E+02  0.42836191417E+02  0.00000000000E+00 0.  1.
</event>
<event>
 5    1  0.6336319E-005  0.1033454E+03  0.7818608E-02  0.1161254E+00
          4   -1    0    0  502    0 -0.00000000000E+00  0.00000000000E+00  0.15943639441E+04  0.15943639441E+04  0.00000000000E+00 0.  1.
         21   -1    0    0  501  502  0.00000000000E+00 -0.00000000000E+00 -0.21513967254E+03  0.21513967254E+03  0.00000000000E+00 0.  1.
        -13    1    1    2    0    0  0.65214922492E+02 -0.80765385216E+02 -0.19343022500E+03  0.21952516182E+03  0.10566000000E+00 0.  1.
         13    1    1    2    0    0 -0.95734820353E+02 -0.21633285953E+02  0.37726670384E+03  0.38982474508E+03  0.10566000000E+00 0. -1.
          4    1    1    2  501    0  0.30519897861E+02  0.10239867117E+03  0.11953877927E+04  0.12001537097E+04  0.00000000000E+00 0.  1.
</event>
<event>
 5    1  0.6336319E-005  0.3649399E+03  0.7818608E-02  0.9836150E-01
         21   -1    0    0  501  502  0.00000000000E+00  0.00000000000E+00  0.46617447792E+03  0.46617447792E+03  0.00000000000E+00 0. -1.
         -4   -1    0    0    0  501 -0.00000000000E+00 -0.00000000000E+00 -0.10115904218E+04  0.10115904218E+04  0.00000000000E+00 0. -1.
        -13    1    1    2    0    0  0.11659232753E+03  0.28528300369E+03 -0.35029377749E+03  0.46656822089E+03  0.10566000000E+00 0.  1.
         13    1    1    2    0    0 -0.56605566747E+02 -0.46175736640E+03 -0.48148528260E+03  0.66951635091E+03  0.10566000000E+00 0. -1.
         -4    1    1    2    0  502 -0.59986760784E+02  0.17647436272E+03  0.28636311621E+03  0.34168032792E+03  0.00000000000E+00 0. -1.
</event>
<event>
 5    1  0.6336319E-005  0.2727084E+03  0.7818608E-02  0.1019253E+00
         21   -1    0    0  501  502  0.00000000000E+00  0.00000000000E+00  0.78494963170E+03  0.78494963170E+03  0.00000000000E+00 0. -1.
          4   -1    0    0  502    0 -0.00000000000E+00 -0.00000000000E+00 -0.10485660742E+03  0.10485660742E+03  0.00000000000E+00 0.  1.
        -13    1    1    2    0    0  0.26097234029E+03 -0.68154196534E+02  0.32906858255E+03  0.42548525249E+03  0.10566000000E+00 0.  1.
         13    1    1    2    0    0 -0.27042005853E+03  0.53450045599E+02  0.28692613989E+03  0.39788256603E+03  0.10566000000E+00 0. -1.
          4    1    1    2  501    0  0.94477182458E+01  0.14704150935E+02  0.64098301830E+02  0.66438420603E+02  0.00000000000E+00 0.  1.
</event>
<event>
 5    1  0.6336319E-005  0.4493801E+03  0.7818608E-02  0.1029166E+00
         21   -1    0    0  501  502  0.00000000000E+00  0.00000000000E+00  0.13309127504E+03  0.13309127504E+03  0.00000000000E+00 0. -1.
         -4   -1    0    0    0  501 -0.00000000000E+00 -0.00000000000E+00 -0.20743743263E+04  0.20743743263E+04  0.00000000000E+00 0. -1.
        -13    1    1    2    0    0  0.31989941097E+02 -0.31232113991E+02 -0.98039499329E+02  0.10775228939E+03  0.10566000000E+00 0.  1.
         13    1    1    2    0    0  0.16414429961E+03 -0.38589954634E+03 -0.13953438349E+04  0.14569990528E+04  0.10566000000E+00 0. -1.
         -4    1    1    2    0  502 -0.19613424071E+03  0.41713166033E+03 -0.44789971695E+03  0.64271425912E+03  0.00000000000E+00 0. -1.
</event>
<event>
 5    1  0.6336319E-005  0.3754078E+03  0.7818608E-02  0.9802885E-01
         21   -1    0    0  501  502  0.00000000000E+00  0.00000000000E+00  0.22423754458E+03  0.22423754458E+03  0.00000000000E+00 0.  1.
         -4   -1    0    0    0  501 -0.00000000000E+00 -0.00000000000E+00 -0.19619029695E+04  0.19619029695E+04  0.00000000000E+00 0. -1.
        -13    1    1    2    0    0 -0.34159554926E+03 -0.41575324674E+02 -0.83789762701E+03  0.90580818687E+03  0.10566000000E+00 0.  1.
         13    1    1    2    0    0  0.53773085258E+03 -0.12072974045E+03 -0.29709616768E+03  0.62609606616E+03  0.10566000000E+00 0. -1.
         -4    1    1    2    0  502 -0.19613530332E+03  0.16230506512E+03 -0.60267163022E+03  0.65423626103E+03  0.00000000000E+00 0. -1.
</event>
<event>
 5    1  0.6336319E-005  0.1151501E+03  0.7818608E-02  0.1141668E+00
          4   -1    0    0  502    0 -0.00000000000E+00  0.00000000000E+00  0.60792099353E+03  0.60792099353E+03  0.00000000000E+00 0.  1.
         21   -1    0    0  501  502  0.00000000000E+00 -0.00000000000E+00 -0.11441733212E+03  0.11441733212E+03  0.00000000000E+00 0.  1.
        -13    1    1    2    0    0  0.10529411321E+03 -0.51648850811E+02  0.48132062583E+03  0.49540287654E+03  0.10566000000E+00 0.  1.
         13    1    1    2    0    0 -0.80935843974E+02  0.76012272132E+02  0.89289835689E+02  0.14248214722E+03  0.10566000000E+00 0. -1.
          4    1    1    2  501    0 -0.24358269240E+02 -0.24363421321E+02 -0.77106800106E+02  0.84453301898E+02  0.00000000000E+00 0.  1.
</event>
<event>
 5    1  0.6336319E-005  0.5496317E+03  0.7818608E-02  0.9521495E-01
         21   -1    0    0  501  502  0.00000000000E+00  0.00000000000E+00  0.22473002344E+03  0.22473002344E+03  0.00000000000E+00 0.  1.
          4   -1    0    0  502    0 -0.00000000000E+00 -0.00000000000E+00 -0.30214304548E+04  0.30214304548E+04  0.00000000000E+00 0.  1.
        -13    1    1    2    0    0  0.10469541514E+01  0.72765591495E+03 -0.83019150500E+03  0.11039484466E+04  0.10566000000E+00 0.  1.
         13    1    1    2    0    0 -0.95938450760E+02 -0.30670086715E+03 -0.13625684704E+04  0.13999508763E+04  0.10566000000E+00 0. -1.
          4    1    1    2  501    0  0.94891496608E+02 -0.42095504780E+03 -0.60394045598E+03  0.74226115537E+03  0.00000000000E+00 0.  1.
</event>
<event>
 5    1  0.6336319E-005  0.8923560E+02  0.7818608E-02  0.1214329E+00
          4   -1    0    0  502    0 -0.00000000000E+00  0.00000000000E+00  0.73329089890E+03  0.73329089890E+03  0.00000000000E+00 0.  1.
         21   -1    0    0  501  502  0.00000000000E+00 -0.00000000000E+00 -0.56439260450E+02  0.56439260450E+02  0.00000000000E+00 0.  1.
        -13    1    1    2    0    0 -0.91461676705E+02  0.66723851507E+02  0.49868453023E+03  0.51137420987E+03  0.10566000000E+00 0.  1.
         13    1    1    2    0    0  0.66222920845E+01 -0.43891966243E+02  0.18498276358E+03  0.19023404911E+03  0.10566000000E+00 0. -1.
          4    1    1    2  501    0  0.84839384621E+02 -0.22831885264E+02 -0.68156553602E+01  0.88121900374E+02  0.00000000000E+00 0.  1.
</event>
<event>
 5    1  0.6336319E-005  0.4199752E+03  0.7818608E-02  0.9815030E-01
         -4   -1    0    0    0  501 -0.00000000000E+00  0.00000000000E+00  0.10026557370E+04  0.10026557370E+04  0.00000000000E+00 0. -1.
         21   -1    0    0  501  502  0.00000000000E+00 -0.00000000000E+00 -0.67440466845E+03  0.67440466845E+03  0.00000000000E+00 0. -1.
        -13    1    1    2    0    0  0.27352163535E+02 -0.25579917113E+03  0.55971860667E+03  0.61600834947E+03  0.10566000000E+00 0.  1.
         13    1    1    2    0    0 -0.28120911010E+03  0.52757714834E+03  0.42177535918E+02  0.59932893035E+03  0.10566000000E+00 0. -1.
         -4    1    1    2    0  502  0.25385694657E+03 -0.27177797722E+03 -0.27364507402E+03  0.46172312565E+03  0.00000000000E+00 0. -1.
</event>
<event>
 5    1  0.6336319E-005  0.5571896E+03  0.7818608E-02  0.9360724E-01
         21   -1    0    0  501  502  0.00000000000E+00  0.00000000000E+00  0.27949880223E+03  0.27949880223E+03  0.00000000000E+00 0.  1.
         -4   -1    0    0    0  501 -0.00000000000E+00 -0.00000000000E+00 -0.23246695167E+04  0.23246695167E+04  0.00000000000E+00 0. -1.
        -13    1    1    2    0    0 -0.42136168432E+02  0.51760529172E+03 -0.85696585536E+03  0.10020385138E+04  0.10566000000E+00 0.  1.
         13    1    1    2    0    0 -0.16845060177E+02 -0.59164200784E+03 -0.13160697605E+04  0.14430397247E+04  0.10566000000E+00 0. -1.
         -4    1    1    2    0  502  0.58981228609E+02  0.74036716119E+02  0.12786490141E+03  0.15909008038E+03  0.00000000000E+00 0. -1.
</event>
<event>
 5    1  0.6336319E-005  0.4855411E+02  0.7818608E-02  0.1297790E+00
         -4   -1    0    0    0  501 -0.00000000000E+00  0.00000000000E+00  0.39020997826E+03  0.39020997826E+03  0.00000000000E+00 0. -1.
         21   -1    0    0  501  502  0.00000000000E+00 -0.00000000000E+00 -0.30419045314E+02  0.30419045314E+02  0.00000000000E+00 0. -1.
        -13    1    1    2    0    0  0.54273720390E+02  0.83599371260E+01  0.21236210034E+03  0.21934720901E+03  0.10566000000E+00 0.  1.
         13    1    1    2    0    0 -0.42600823945E+02 -0.92423348632E+01  0.17019144883E+03  0.17568548993E+03  0.10566000000E+00 0. -1.
         -4    1    1    2    0  502 -0.11672896444E+02  0.88239773727E+00 -0.22762616227E+02  0.25596324632E+02  0.00000000000E+00 0. -1.
</event>
<event>
 5    1  0.6336319E-005  0.3231943E+03  0.7818608E-02  0.1007901E+00
         -4   -1    0    0    0  501 -0.00000000000E+00  0.00000000000E+00  0.19877589733E+04  0.19877589733E+04  0.00000000000E+00 0. -1.
         21   -1    0    0  501  502  0.00000000000E+00 -0.00000000000E+00 -0.26591326475E+03  0.26591326475E+03  0.00000000000E+00 0. -1.
        -13    1    1    2    0    0 -0.22827269383E+03 -0.30219460389E+03  0.52552609567E+03  0.64777132521E+03  0.10566000000E+00 0.  1.
         13    1    1    2    0    0 -0.25106680402E+03  0.81668766079E+02 -0.34970141969E+02  0.26632170288E+03  0.10566000000E+00 0. -1.
         -4    1    1    2    0  502  0.47933949785E+03  0.22052583781E+03  0.12312897549E+04  0.13395792100E+04  0.00000000000E+00 0. -1.
</event>
<event>
 5    1  0.6336319E-005  0.5305795E+03  0.7818608E-02  0.9413354E-01
          4   -1    0    0  502    0 -0.00000000000E+00  0.00000000000E+00  0.31459516848E+04  0.31459516848E+04  0.00000000000E+00 0.  1.
         21   -1    0    0  501  502  0.00000000000E+00 -0.00000000000E+00 -0.44824625744E+03  0.44824625744E+03  0.00000000000E+00 0.  1.
        -13    1    1    2    0    0  0.58773964277E+03  0.43175349010E+03  0.22118811169E+03  0.76208474319E+03  0.10566000000E+00 0.  1.
         13    1    1    2    0    0 -0.20308845255E+03 -0.47792453434E+03  0.23757094035E+04  0.24318001483E+04  0.10566000000E+00 0. -1.
          4    1    1    2  501    0 -0.38465119021E+03  0.46171044239E+02  0.10080791217E+03  0.40031305077E+03  0.00000000000E+00 0.  1.
</event>
<event>
 5    1  0.6936648E-005  0.4647130E+03  0.7818608E-02  0.9817035E-01
          4   -1    0    0  502    0 -0.00000000000E+00  0.00000000000E+00  0.11462422863E+04  0.11462422863E+04  0.00000000000E+00 0.  1.
         21   -1    0    0  501  502  0.00000000000E+00 -0.00000000000E+00 -0.34488939838E+03  0.34488939838E+03  0.00000000000E+00 0.  1.
        -13    1    1    2    0    0  0.11471014674E+03  0.38587775805E+03  0.48715723444E+03  0.63196696445E+03  0.10566000000E+00 0.  1.
         13    1    1    2    0    0  0.18804599071E+03  0.14330924205E+02  0.30338395665E+03  0.35722332836E+03  0.10566000000E+00 0. -1.
          4    1    1    2  501    0 -0.30275613745E+03 -0.40020868225E+03  0.10811696854E+02  0.50194139190E+03  0.00000000000E+00 0.  1.
</event>
<event>
 5    1  0.6336319E-005  0.4922427E+03  0.7818608E-02  0.9614315E-01
         21   -1    0    0  501  502  0.00000000000E+00  0.00000000000E+00  0.30423092883E+03  0.30423092883E+03  0.00000000000E+00 0. -1.
         -4   -1    0    0    0  501 -0.00000000000E+00 -0.00000000000E+00 -0.15315590387E+04  0.15315590387E+04  0.00000000000E+00 0. -1.
        -13    1    1    2    0    0 -0.20271747339E+03  0.24867797473E+03 -0.26418773043E+03  0.41560832187E+03  0.10566000000E+00 0.  1.
         13    1    1    2    0    0  0.35983333366E+03  0.30242496209E+03 -0.41053266622E+03  0.62408169890E+03  0.10566000000E+00 0. -1.
         -4    1    1    2    0  502 -0.15711586027E+03 -0.55110293681E+03 -0.55260771322E+03  0.79609994676E+03  0.00000000000E+00 0. -1.
</event>
<event>
 5    1  0.6336319E-005  0.3589706E+03  0.7818608E-02  0.1007669E+00
         21   -1    0    0  501  502  0.00000000000E+00  0.00000000000E+00  0.38354254122E+03  0.38354254122E+03  0.00000000000E+00 0. -1.
         -4   -1    0    0    0  501 -0.00000000000E+00 -0.00000000000E+00 -0.10298005717E+04  0.10298005717E+04  0.00000000000E+00 0. -1.
        -13    1    1    2    0    0 -0.14685755632E+03  0.91573167723E+02 -0.22755562584E+03  0.28589221905E+03  0.10566000000E+00 0.  1.
         13    1    1    2    0    0  0.37930376488E+03  0.24542598765E+01  0.22195076376E+03  0.43947641819E+03  0.10566000000E+00 0. -1.
         -4    1    1    2    0  502 -0.23244620856E+03 -0.94027427600E+02 -0.64065316845E+03  0.68797447573E+03  0.00000000000E+00 0. -1.
</event>
<event>
 5    1  0.6336319E-005  0.8580008E+03  0.7818608E-02  0.8920843E-01
          4   -1    0    0  502    0 -0.00000000000E+00  0.00000000000E+00  0.21243127005E+04  0.21243127005E+04  0.00000000000E+00 0.  1.
         21   -1    0    0  501  502  0.00000000000E+00 -0.00000000000E+00 -0.74789743108E+03  0.74789743108E+03  0.00000000000E+00 0. -1.
        -13    1    1    2    0    0  0.44538830798E+03  0.94262607699E+03 -0.38139262066E+02  0.10432493855E+04  0.10566000000E+00 0.  1.
         13    1    1    2    0    0 -0.28717881851E+03 -0.76771464556E+03  0.13583683326E+04  0.15865125241E+04  0.10566000000E+00 0. -1.
          4    1    1    2  501    0 -0.15820948947E+03 -0.17491143143E+03  0.56186198840E+02  0.24244822198E+03  0.00000000000E+00 0.  1.
</event>
<event>
 5    1  0.6336319E-005  0.3734962E+03  0.7818608E-02  0.1008737E+00
         -4   -1    0    0    0  501 -0.00000000000E+00  0.00000000000E+00  0.22331082506E+04  0.22331082506E+04  0.00000000000E+00 0. -1.
         21   -1    0    0  501  502  0.00000000000E+00 -0.00000000000E+00 -0.15949130574E+03  0.15949130574E+03  0.00000000000E+00 0. -1.
        -13    1    1    2    0    0 -0.34534685150E+02 -0.14437415809E+03  0.28838041846E+03  0.32434521565E+03  0.10566000000E+00 0.  1.
         13    1    1    2    0    0  0.35106241547E+03 -0.11902451872E+03  0.18196308632E+03  0.41294337573E+03  0.10566000000E+00 0. -1.
         -4    1    1    2    0  502 -0.31652773032E+03  0.26339867681E+03  0.16032734401E+04  0.16553109649E+04  0.00000000000E+00 0. -1.
</event>
<event>
 5    1  0.6336319E-005  0.3181018E+03  0.7818608E-02  0.1000101E+00
         -4   -1    0    0    0  501 -0.00000000000E+00  0.00000000000E+00  0.61186657742E+03  0.61186657742E+03  0.00000000000E+00 0. -1.
         21   -1    0    0  501  502  0.00000000000E+00 -0.00000000000E+00 -0.26926183857E+03  0.26926183857E+03  0.00000000000E+00 0.  1.
        -13    1    1    2    0    0  0.14408158419E+03  0.26444792781E+03  0.18832439637E+03  0.35518769525E+03  0.10566000000E+00 0.  1.
         13    1    1    2    0    0 -0.21102686004E+03 -0.26436844592E+03  0.24176518374E+03  0.41578050230E+03  0.10566000000E+00 0. -1.
         -4    1    1    2    0  502  0.66945275852E+02 -0.79481886782E-01 -0.87484841263E+02  0.11016021844E+03  0.00000000000E+00 0. -1.
</event>
<event>
 5    1  0.6336319E-005  0.5691319E+02  0.7818608E-02  0.1265946E+00
         21   -1    0    0  501  502  0.00000000000E+00  0.00000000000E+00  0.87548103820E+02  0.87548103820E+02  0.00000000000E+00 0.  1.
          4   -1    0    0  502    0 -0.00000000000E+00 -0.00000000000E+00 -0.14504917709E+03  0.14504917709E+03  0.00000000000E+00 0.  1.
        -13    1    1    2    0    0  0.65460145069E+02 -0.36937488787E+02 -0.16455414780E+02  0.76942839238E+02  0.10566000000E+00 0.  1.
         13    1    1    2    0    0 -0.54172601709E+02 -0.20836431587E+01 -0.81786686780E+02  0.98122808986E+02  0.10566000000E+00 0. -1.
          4    1    1    2  501    0 -0.11287543360E+02  0.39021131946E+02  0.40741028290E+02  0.57531632687E+02  0.00000000000E+00 0.  1.
</event>
<event>
 5    1  0.6336319E-005  0.5011365E+03  0.7818608E-02  0.9636833E-01
         -4   -1    0    0    0  501 -0.00000000000E+00  0.00000000000E+00  0.13836141790E+04  0.13836141790E+04  0.00000000000E+00 0. -1.
         21   -1    0    0  501  502  0.00000000000E+00 -0.00000000000E+00 -0.31699135694E+03  0.31699135694E+03  0.00000000000E+00 0.  1.
        -13    1    1    2    0    0 -0.12871800016E+03 -0.24952659156E+03  0.22389049179E+03  0.35910834986E+03  0.10566000000E+00 0.  1.
         13    1    1    2    0    0  0.45354200135E+03 -0.18734216179E+03  0.48591560213E+03  0.69058773239E+03  0.10566000000E+00 0. -1.
         -4    1    1    2    0  502 -0.32482400119E+03  0.43686875336E+03  0.35681672813E+03  0.65090945367E+03  0.00000000000E+00 0. -1.
</event>
<event>
 5    1  0.6336319E-005  0.3819821E+03  0.7818608E-02  0.9857379E-01
         21   -1    0    0  501  502  0.00000000000E+00  0.00000000000E+00  0.12989566856E+04  0.12989566856E+04  0.00000000000E+00 0.  1.
          4   -1    0    0  502    0 -0.00000000000E+00 -0.00000000000E+00 -0.36117972643E+03  0.36117972643E+03  0.00000000000E+00 0.  1.
        -13    1    1    2    0    0 -0.31011127265E+03  0.24780439016E+03  0.86276997868E+03  0.94970946319E+03  0.10566000000E+00 0.  1.
         13    1    1    2    0    0 -0.93141212617E+02 -0.28116878186E+03  0.76023523620E+02  0.30579528558E+03  0.10566000000E+00 0. -1.
          4    1    1    2  501    0  0.40325248527E+03  0.33364391694E+02 -0.10165431733E+01  0.40463166321E+03  0.00000000000E+00 0.  1.
</event>
<event>
 5    1  0.6336319E-005  0.4198129E+03  0.7818608E-02  0.9948394E-01
          4   -1    0    0  502    0 -0.00000000000E+00  0.00000000000E+00  0.21427559233E+04  0.21427559233E+04  0.00000000000E+00 0.  1.
         21   -1    0    0  501  502  0.00000000000E+00 -0.00000000000E+00 -0.13678869488E+03  0.13678869488E+03  0.00000000000E+00 0.  1.
        -13    1    1    2    0    0 -0.20253369695E+03  0.31473423666E+03  0.11158877330E+04  0.11769804510E+04  0.10566000000E+00 0.  1.
         13    1    1    2    0    0 -0.15821784080E+03 -0.45322736855E+02  0.42260262754E+03  0.45351960001E+03  0.10566000000E+00 0. -1.
          4    1    1    2  501    0  0.36075153776E+03 -0.26941149981E+03  0.46747686787E+03  0.64904456721E+03  0.00000000000E+00 0.  1.
</event>
<event>
 5    1  0.6336319E-005  0.4494370E+03  0.7818608E-02  0.9709507E-01
         21   -1    0    0  501  502  0.00000000000E+00  0.00000000000E+00  0.63621483905E+03  0.63621483905E+03  0.00000000000E+00 0.  1.
          4   -1    0    0  502    0 -0.00000000000E+00 -0.00000000000E+00 -0.20682418473E+04  0.20682418473E+04  0.00000000000E+00 0.  1.
        -13    1    1    2    0    0 -0.45067789788E+03  0.13425439263E+03  0.34338431529E+03  0.58227794801E+03  0.10566000000E+00 0.  1.
         13    1    1    2    0    0  0.17941928799E+02 -0.30123351376E+03 -0.15969264617E+04  0.16251885053E+04  0.10566000000E+00 0. -1.
          4    1    1    2  501    0  0.43273596908E+03  0.16697912113E+03 -0.17848486188E+03  0.49699023306E+03  0.00000000000E+00 0.  1.
</event>
<event>
 5    1  0.6336319E-005  0.5495015E+03  0.7818608E-02  0.9375609E-01
         21   -1    0    0  501  502  0.00000000000E+00  0.00000000000E+00  0.37438245678E+03  0.37438245678E+03  0.00000000000E+00 0.  1.
          4   -1    0    0  502    0 -0.00000000000E+00 -0.00000000000E+00 -0.19726961935E+04  0.19726961935E+04  0.00000000000E+00 0.  1.
        -13    1    1    2    0    0  0.68178464841E+03 -0.86785637032E+02 -0.66160569375E+03  0.95398331158E+03  0.10566000000E+00 0.  1.
         13    1    1    2    0    0 -0.47969404664E+03 -0.17110006166E+03 -0.93585182257E+03  0.10654577676E+04  0.10566000000E+00 0. -1.
          4    1    1    2  501    0 -0.20209060177E+03  0.25788569869E+03 -0.85622041028E+00  0.32763757115E+03  0.00000000000E+00 0.  1.
</event>
<event>
 5    1  0.6336319E-005  0.2590553E+03  0.7818608E-02  0.1025804E+00
         21   -1    0    0  501  502  0.00000000000E+00  0.00000000000E+00  0.17029291455E+04  0.17029291455E+04  0.00000000000E+00 0.  1.
         -4   -1    0    0    0  501 -0.00000000000E+00 -0.00000000000E+00 -0.15412824901E+03  0.15412824901E+03  0.00000000000E+00 0. -1.
        -13    1    1    2    0    0  0.25662264813E+03  0.25264636920E+02 -0.65925380193E+01  0.25794758796E+03  0.10566000000E+00 0.  1.
         13    1    1    2    0    0 -0.26622191722E+03 -0.18801255702E+02  0.79448490123E+03  0.83811327747E+03  0.10566000000E+00 0. -1.
         -4    1    1    2    0  502  0.95992690885E+01 -0.64633812180E+01  0.76090853328E+03  0.76099652909E+03  0.00000000000E+00 0. -1.
</event>
<event>
 5    1  0.6336319E-005  0.2048071E+03  0.7818608E-02  0.1056889E+00
         21   -1    0    0  501  502  0.00000000000E+00  0.00000000000E+00  0.51497690268E+03  0.51497690268E+03  0.00000000000E+00 0. -1.
         -4   -1    0    0    0  501 -0.00000000000E+00 -0.00000000000E+00 -0.36154673018E+03  0.36154673018E+03  0.00000000000E+00 0. -1.
        -13    1    1    2    0    0  0.19405139149E+03  0.42528201544E+02 -0.25815766590E+03  0.32574527179E+03  0.10566000000E+00 0.  1.
         13    1    1    2    0    0 -0.23437709273E+03 -0.87433285117E+02  0.17169041182E+03  0.30340535529E+03  0.10566000000E+00 0. -1.
         -4    1    1    2    0  502  0.40325701239E+02  0.44905083573E+02  0.23989742657E+03  0.24737300578E+03  0.00000000000E+00 0. -1.
</event>
<event>
 5    1  0.6336319E-005  0.2050091E+03  0.7818608E-02  0.1056755E+00
          4   -1    0    0  502    0 -0.00000000000E+00  0.00000000000E+00  0.23605642948E+03  0.23605642948E+03  0.00000000000E+00 0.  1.
         21   -1    0    0  501  502  0.00000000000E+00 -0.00000000000E+00 -0.14819568496E+04  0.14819568496E+04  0.00000000000E+00 0.  1.
        -13    1    1    2    0    0  0.10604731315E+03  0.17477247987E+03  0.16863063220E+03  0.26500519547E+03  0.10566000000E+00 0.  1.
         13    1    1    2    0    0 -0.97749082565E+02 -0.18873126970E+03 -0.57026233083E+03  0.60858320092E+03  0.10566000000E+00 0. -1.
          4    1    1    2  501    0 -0.82982305840E+01  0.13958789833E+02 -0.84426872153E+03  0.84442488274E+03  0.00000000000E+00 0.  1.
</event>
<event>
 5    1  0.6336319E-005  0.4975820E+03  0.7818608E-02  0.9694163E-01
         21   -1    0    0  501  502  0.00000000000E+00  0.00000000000E+00  0.26658765349E+03  0.26658765349E+03  0.00000000000E+00 0.  1.
          4   -1    0    0  502    0 -0.00000000000E+00 -0.00000000000E+00 -0.15065039965E+04  0.15065039965E+04  0.00000000000E+00 0.  1.
        -13    1    1    2    0    0 -0.40342839082E+03  0.32236341676E+03 -0.61745175367E+03  0.80493435649E+03  0.10566000000E+00 0.  1.
         13    1    1    2    0    0  0.19015934812E+03  0.13735121832E+03 -0.18713846454E+03  0.30007790810E+03  0.10566000000E+00 0. -1.
          4    1    1    2  501    0  0.21326904270E+03 -0.45971463507E+03 -0.43532612480E+03  0.66807938541E+03  0.00000000000E+00 0.  1.
</event>
<event>
 5    1  0.6336319E-005  0.2663303E+02  0.7818608E-02  0.1434175E+00
         21   -1    0    0  501  502  0.00000000000E+00  0.00000000000E+00  0.21082885898E+03  0.21082885898E+03  0.00000000000E+00 0.  1.
          4   -1    0    0  502    0 -0.00000000000E+00 -0.00000000000E+00 -0.37466704040E+02  0.37466704040E+02  0.00000000000E+00 0.  1.
        -13    1    1    2    0    0 -0.79981946263E+01  0.25998063595E+02 -0.30077161299E+02  0.40552647556E+02  0.10566000000E+00 0.  1.
         13    1    1    2    0    0 -0.25126296320E+01 -0.21575688735E+02  0.59299238419E+02  0.63152470206E+02  0.10566000000E+00 0. -1.
          4    1    1    2  501    0  0.10510824258E+02 -0.44223748605E+01  0.14414007782E+03  0.14459044526E+03  0.00000000000E+00 0.  1.
</event>
<event>
 5    1  0.6336319E-005  0.5043817E+03  0.7818608E-02  0.9631444E-01
          4   -1    0    0  502    0 -0.00000000000E+00  0.00000000000E+00  0.13822873310E+04  0.13822873310E+04  0.00000000000E+00 0.  1.
         21   -1    0    0  501  502  0.00000000000E+00 -0.00000000000E+00 -0.32764115064E+03  0.32764115064E+03  0.00000000000E+00 0.  1.
        -13    1    1    2    0    0  0.13965727828E+03 -0.49599807603E+03  0.55938899300E+03  0.76054868579E+03  0.10566000000E+00 0.  1.
         13    1    1    2    0    0 -0.28034244776E+03 -0.13697769922E+02  0.15545607941E+03  0.32085217890E+03  0.10566000000E+00 0. -1.
          4    1    1    2  501    0  0.14068516948E+03  0.50969584595E+03  0.33980110792E+03  0.62852761692E+03  0.00000000000E+00 0.  1.
</event>
<event>
 5    1  0.6336319E-005  0.1332171E+03  0.7818608E-02  0.1118953E+00
          4   -1    0    0  502    0 -0.00000000000E+00  0.00000000000E+00  0.10397040703E+04  0.10397040703E+04  0.00000000000E+00 0.  1.
         21   -1    0    0  501  502  0.00000000000E+00 -0.00000000000E+00 -0.40396389384E+02  0.40396389384E+02  0.00000000000E+00 0.  1.
        -13    1    1    2    0    0  0.63546851763E+02 -0.11824808218E+03  0.63914992439E+03  0.65309528273E+03  0.10566000000E+00 0.  1.
         13    1    1    2    0    0 -0.76195946586E+02  0.10800319234E+03  0.37942158622E+03  0.40178509565E+03  0.10566000000E+00 0. -1.
          4    1    1    2  501    0  0.12649094823E+02  0.10244889848E+02 -0.19263829682E+02  0.25220081321E+02  0.00000000000E+00 0.  1.
</event>
<event>
 5    1  0.6336319E-005  0.4670122E+03  0.7818608E-02  0.1000207E+00
         21   -1    0    0  501  502  0.00000000000E+00  0.00000000000E+00  0.96607787356E+03  0.96607787356E+03  0.00000000000E+00 0.  1.
          4   -1    0    0  502    0 -0.00000000000E+00 -0.00000000000E+00 -0.34275234587E+03  0.34275234587E+03  0.00000000000E+00 0.  1.
        -13    1    1    2    0    0  0.29617395413E+03  0.40166791376E+03  0.62860340050E+03  0.80261969222E+03  0.10566000000E+00 0.  1.
         13    1    1    2    0    0 -0.59285576356E+02 -0.80750429768E+02 -0.35273562193E+02  0.10620568170E+03  0.10566000000E+00 0. -1.
          4    1    1    2  501    0 -0.23688837778E+03 -0.32091748399E+03  0.29995689378E+02  0.40000484552E+03  0.00000000000E+00 0.  1.
</event>
<event>
 5    1  0.6336319E-005  0.4261359E+03  0.7818608E-02  0.9656463E-01
         21   -1    0    0  501  502  0.00000000000E+00  0.00000000000E+00  0.42047179179E+03  0.42047179179E+03  0.00000000000E+00 0. -1.
         -4   -1    0    0    0  501 -0.00000000000E+00 -0.00000000000E+00 -0.23177054299E+04  0.23177054299E+04  0.00000000000E+00 0. -1.
        -13    1    1    2    0    0  0.91232221034E+02 -0.42076099956E+03 -0.33596003700E+03  0.54610648644E+03  0.10566000000E+00 0.  1.
         13    1    1    2    0    0 -0.58127793945E+02  0.42136914735E+03 -0.18516165678E+04  0.18998459738E+04  0.10566000000E+00 0. -1.
         -4    1    1    2    0  502 -0.33104427089E+02 -0.60814779103E+00  0.29034296667E+03  0.29222476150E+03  0.00000000000E+00 0. -1.
</event>
<event>
 5    1  0.6336319E-005  0.4738981E+03  0.7818608E-02  0.9537093E-01
          4   -1    0    0  502    0 -0.00000000000E+00  0.00000000000E+00  0.20010561729E+04  0.20010561729E+04  0.00000000000E+00 0.  1.
         21   -1    0    0  501  502  0.00000000000E+00 -0.00000000000E+00 -0.21945593188E+03  0.21945593188E+03  0.00000000000E+00 0. -1.
        -13    1    1    2    0    0 -0.13156133241E+03 -0.45283051887E+03  0.16271705860E+04  0.16941215984E+04  0.10566000000E+00 0.  1.
         13    1    1    2    0    0  0.13673138406E+03  0.46664882443E+03  0.15784752074E+03  0.51124597573E+03  0.10566000000E+00 0. -1.
          4    1    1    2  501    0 -0.51700516520E+01 -0.13818305562E+02 -0.34178657280E+01  0.15144530657E+02  0.00000000000E+00 0.  1.
</event>
<event>
 5    1  0.6336319E-005  0.4637996E+03  0.7818608E-02  0.9561053E-01
         -4   -1    0    0    0  501 -0.00000000000E+00  0.00000000000E+00  0.49729291831E+03  0.49729291831E+03  0.00000000000E+00 0. -1.
         21   -1    0    0  501  502  0.00000000000E+00 -0.00000000000E+00 -0.11226085727E+04  0.11226085727E+04  0.00000000000E+00 0.  1.
        -13    1    1    2    0    0  0.48300143620E+02  0.38972488284E+03 -0.36746054759E+03  0.53781563140E+03  0.10566000000E+00 0.  1.
         13    1    1    2    0    0 -0.15815090517E+03 -0.54512073466E+03 -0.51212586257E+03  0.76448756330E+03  0.10566000000E+00 0. -1.
         -4    1    1    2    0  502  0.10985076155E+03  0.15539585182E+03  0.25427075577E+03  0.31759829631E+03  0.00000000000E+00 0. -1.
</event>
<event>
 5    1  0.6336319E-005  0.7199743E+02  0.7818608E-02  0.1221582E+00
         21   -1    0    0  501  502  0.00000000000E+00  0.00000000000E+00  0.13261622417E+03  0.13261622417E+03  0.00000000000E+00 0.  1.
          4   -1    0    0  502    0 -0.00000000000E+00 -0.00000000000E+00 -0.25706710887E+03  0.25706710887E+03  0.00000000000E+00 0.  1.
        -13    1    1    2    0    0 -0.60695820138E+02 -0.46655291156E+02 -0.22224526385E+03  0.23506098622E+03  0.10566000000E+00 0.  1.
         13    1    1    2    0    0  0.56749829698E+02  0.44795810745E+00  0.13379604237E+02  0.58307536483E+02  0.10566000000E+00 0. -1.
          4    1    1    2  501    0  0.39459904397E+01  0.46207333049E+02  0.84414774909E+02  0.96314810341E+02  0.00000000000E+00 0.  1.
</event>
<event>
 5    1  0.6336319E-005  0.2280367E+03  0.7818608E-02  0.1058503E+00
         21   -1    0    0  501  502  0.00000000000E+00  0.00000000000E+00  0.56517252686E+02  0.56517252686E+02  0.00000000000E+00 0.  1.
          4   -1    0    0  502    0 -0.00000000000E+00 -0.00000000000E+00 -0.20889353188E+04  0.20889353188E+04  0.00000000000E+00 0.  1.
        -13    1    1    2    0    0 -0.15556707716E+02 -0.21426280455E+03 -0.12695935721E+04  0.12876406370E+04  0.10566000000E+00 0.  1.
         13    1    1    2    0    0  0.14137361931E+03  0.64855720881E+01 -0.36772305275E+03  0.39401626561E+03  0.10566000000E+00 0. -1.
          4    1    1    2  501    0 -0.12581691159E+03  0.20777723246E+03 -0.39510144123E+03  0.46379566884E+03  0.00000000000E+00 0.  1.
</event>
<event>
 5    1  0.6336319E-005  0.3415412E+03  0.7818608E-02  0.1014984E+00
          4   -1    0    0  502    0 -0.00000000000E+00  0.00000000000E+00  0.17330521105E+04  0.17330521105E+04  0.00000000000E+00 0.  1.
         21   -1    0    0  501  502  0.00000000000E+00 -0.00000000000E+00 -0.27735227352E+03  0.27735227352E+03  0.00000000000E+00 0.  1.
        -13    1    1    2    0    0 -0.14530908066E+02 -0.46379846426E+03  0.75517882525E+03  0.88634938484E+03  0.10566000000E+00 0.  1.
         13    1    1    2    0    0  0.66214273206E+02  0.14448681555E+03  0.77582519502E+03  0.79193782220E+03  0.10566000000E+00 0. -1.
          4    1    1    2  501    0 -0.51683365139E+02  0.31931164871E+03 -0.75304183271E+02  0.33211717699E+03  0.00000000000E+00 0.  1.
</event>
<event>
 5    1  0.6336319E-005  0.1320724E+03  0.7818608E-02  0.1120273E+00
         -4   -1    0    0    0  501 -0.00000000000E+00  0.00000000000E+00  0.43033136330E+03  0.43033136330E+03  0.00000000000E+00 0. -1.
         21   -1    0    0  501  502  0.00000000000E+00 -0.00000000000E+00 -0.23717365034E+03  0.23717365034E+03  0.00000000000E+00 0.  1.
        -13    1    1    2    0    0 -0.13525750400E+03  0.53214665130E+02  0.26937147425E+01  0.14537420760E+03  0.10566000000E+00 0.  1.
         13    1    1    2    0    0  0.40627434878E+02 -0.13278572088E+03  0.31647169174E+03  0.34559655520E+03  0.10566000000E+00 0. -1.
         -4    1    1    2    0  502  0.94630069117E+02  0.79571055747E+02 -0.12600769352E+03  0.17653425084E+03  0.00000000000E+00 0. -1.
</event>
<event>
 5    1  0.6453692E-005  0.4927668E+03  0.7818608E-02  0.9768179E-01
          4   -1    0    0  502    0 -0.00000000000E+00  0.00000000000E+00  0.46611032838E+03  0.46611032838E+03  0.00000000000E+00 0.  1.
         21   -1    0    0  501  502  0.00000000000E+00 -0.00000000000E+00 -0.86609794991E+03  0.86609794991E+03  0.00000000000E+00 0.  1.
        -13    1    1    2    0    0  0.37949405982E+03 -0.78042966146E+02 -0.27108827688E+02  0.38838298844E+03  0.10566000000E+00 0.  1.
         13    1    1    2    0    0  0.17487375419E+03 -0.66064846250E+02  0.89914278451E+02  0.20743669504E+03  0.10566000000E+00 0. -1.
          4    1    1    2  501    0 -0.55436781402E+03  0.14410781240E+03 -0.46279307229E+03  0.73638859481E+03  0.00000000000E+00 0.  1.
</event>
<event>
 5    1  0.6336319E-005  0.5073512E+03  0.7818608E-02  0.9462004E-01
         -4   -1    0    0    0  501 -0.00000000000E+00  0.00000000000E+00  0.81310827706E+03  0.81310827706E+03  0.00000000000E+00 0. -1.
         21   -1    0    0  501  502  0.00000000000E+00 -0.00000000000E+00 -0.71625250977E+03  0.71625250977E+03  0.00000000000E+00 0.  1.
        -13    1    1    2    0    0 -0.37017000718E+03  0.19386830651E+03 -0.10338804894E+03  0.43046469578E+03  0.10566000000E+00 0.  1.
         13    1    1    2    0    0  0.45050969870E+03 -0.31220734857E+03  0.51566616502E+03  0.75255831802E+03  0.10566000000E+00 0. -1.
         -4    1    1    2    0  502 -0.80339691515E+02  0.11833904206E+03 -0.31542234879E+03  0.34633777302E+03  0.00000000000E+00 0. -1.
</event>
<event>
 5    1  0.6336319E-005  0.3938258E+03  0.7818608E-02  0.1014262E+00
         21   -1    0    0  501  502  0.00000000000E+00  0.00000000000E+00  0.41433586136E+03  0.41433586136E+03  0.00000000000E+00 0.  1.
          4   -1    0    0  502    0 -0.00000000000E+00 -0.00000000000E+00 -0.75861417202E+03  0.75861417202E+03  0.00000000000E+00 0.  1.
        -13    1    1    2    0    0 -0.23983682944E+03 -0.31276496676E+03 -0.50917262987E+03  0.64389471761E+03  0.10566000000E+00 0.  1.
         13    1    1    2    0    0  0.90855308961E+02 -0.54759721391E+02  0.31834267177E+02  0.11075534291E+03  0.10566000000E+00 0. -1.
          4    1    1    2  501    0  0.14898152048E+03  0.36752468815E+03  0.13306005203E+03  0.41829997286E+03  0.00000000000E+00 0.  1.
</event>
<event>
 5    1  0.6336319E-005  0.4750491E+03  0.7818608E-02  0.9778402E-01
         21   -1    0    0  501  502  0.00000000000E+00  0.00000000000E+00  0.27825962647E+03  0.27825962647E+03  0.00000000000E+00 0. -1.
         -4   -1    0    0    0  501 -0.00000000000E+00 -0.00000000000E+00 -0.20586925051E+04  0.20586925051E+04  0.00000000000E+00 0. -1.
        -13    1    1    2    0    0  0.53854301313E+02 -0.19411716779E+03 -0.10855589356E+04  0.11040923759E+04  0.10566000000E+00 0.  1.
         13    1    1    2    0    0  0.40685791047E+03 -0.14391520484E+03 -0.19467191807E+03  0.47343649241E+03  0.10566000000E+00 0. -1.
         -4    1    1    2    0  502 -0.46071221178E+03  0.33803237263E+03 -0.50020202491E+03  0.75942326325E+03  0.00000000000E+00 0. -1.
</event>
<event>
 5    1  0.6336319E-005  0.1456883E+03  0.7818608E-02  0.1105443E+00
         21   -1    0    0  501  502  0.00000000000E+00  0.00000000000E+00  0.14374744432E+03  0.14374744432E+03  0.00000000000E+00 0.  1.
         -4   -1    0    0    0  501 -0.00000000000E+00 -0.00000000000E+00 -0.39159277526E+03  0.39159277526E+03  0.00000000000E+00 0. -1.
        -13    1    1    2    0    0 -0.13050730218E+03 -0.13687731123E+03 -0.11432242819E+02  0.18946836568E+03  0.10566000000E+00 0.  1.
         13    1    1    2    0    0  0.94680510392E+02  0.99397840124E+02 -0.25597086444E+03  0.29045726755E+03  0.10566000000E+00 0. -1.
         -4    1    1    2    0  502  0.35826791790E+02  0.37479471110E+02  0.19557776324E+02  0.55414586342E+02  0.00000000000E+00 0. -1.
</event>
<event>
 5    1  0.6336319E-005  0.2026286E+03  0.7818608E-02  0.1058349E+00
         -4   -1    0    0    0  501 -0.00000000000E+00  0.00000000000E+00  0.43868074928E+03  0.43868074928E+03  0.00000000000E+00 0. -1.
         21   -1    0    0  501  502  0.00000000000E+00 -0.00000000000E+00 -0.25673525986E+03  0.25673525986E+03  0.00000000000E+00 0.  1.
        -13    1    1    2    0    0  0.17897488416E+03  0.88557420391E+02  0.28408860275E+03  0.34724742079E+03  0.10566000000E+00 0.  1.
         13    1    1    2    0    0 -0.18781623583E+03 -0.96381456573E+02  0.31993620534E+02  0.21351329357E+03  0.10566000000E+00 0. -1.
         -4    1    1    2    0  502  0.88413516689E+01  0.78240361820E+01 -0.13413673387E+03  0.13465529479E+03  0.00000000000E+00 0. -1.
</event>
<event>
 5    1  0.6336319E-005  0.3010003E+03  0.7818608E-02  0.1009345E+00
         21   -1    0    0  501  502  0.00000000000E+00  0.00000000000E+00  0.38110140289E+03  0.38110140289E+03  0.00000000000E+00 0. -1.
         -4   -1    0    0    0  501 -0.00000000000E+00 -0.00000000000E+00 -0.19709675703E+04  0.19709675703E+04  0.00000000000E+00 0. -1.
        -13    1    1    2    0    0  0.82807983576E+02  0.52890422422E+03 -0.79920441269E+03  0.96193791118E+03  0.10566000000E+00 0.  1.
         13    1    1    2    0    0 -0.22872212758E+02 -0.23393156694E+03 -0.99756213711E+03  0.10248791854E+04  0.10566000000E+00 0. -1.
         -4    1    1    2    0  502 -0.59935770818E+02 -0.29497265728E+03  0.20690038235E+03  0.36525187663E+03  0.00000000000E+00 0. -1.
</event>
<event>
 5    1  0.6336319E-005  0.1194808E+03  0.7818608E-02  0.1135827E+00
         21   -1    0    0  501  502  0.00000000000E+00  0.00000000000E+00  0.59044591983E+02  0.59044591983E+02  0.00000000000E+00 0.  1.
         -4   -1    0    0    0  501 -0.00000000000E+00 -0.00000000000E+00 -0.31456581405E+03  0.31456581405E+03  0.00000000000E+00 0. -1.
        -13    1    1    2    0    0 -0.96638059262E+02 -0.68675830515E+02 -0.16864151362E+03  0.20614377379E+03  0.10566000000E+00 0.  1.
         13    1    1    2    0    0  0.11002552814E+03  0.53186054236E+02 -0.79062885130E+02  0.14555179208E+03  0.10566000000E+00 0. -1.
         -4    1    1    2    0  502 -0.13387468882E+02  0.15489776280E+02 -0.78168233155E+01  0.21914840155E+02  0.00000000000E+00 0. -1.
</event>
<event>
 5    1  0.6336319E-005  0.3641902E+03  0.7818608E-02  0.1000134E+00
         21   -1    0    0  501  502  0.00000000000E+00  0.00000000000E+00  0.42233611443E+03  0.42233611443E+03  0.00000000000E+00 0.  1.
         -4   -1    0    0    0  501 -0.00000000000E+00 -0.00000000000E+00 -0.15319555541E+04  0.15319555541E+04  0.00000000000E+00 0. -1.
        -13    1    1    2    0    0  0.20875939456E+03 -0.35446024749E+02  0.20123276892E+03  0.29211563453E+03  0.10566000000E+00 0.  1.
         13    1    1    2    0    0 -0.36495259389E+03  0.34113169217E+03 -0.12026026207E+04  0.13022343498E+04  0.10566000000E+00 0. -1.
         -4    1    1    2    0  502  0.15619319933E+03 -0.30568566742E+03 -0.10824958789E+03  0.35994168425E+03  0.00000000000E+00 0. -1.
</event>
<event>
 5    1  0.6336319E-005  0.4848639E+03  0.7818608E-02  0.9917311E-01
          4   -1    0    0  502    0 -0.00000000000E+00  0.00000000000E+00  0.10036064081E+04  0.10036064081E+04  0.00000000000E+00 0.  1.
         21   -1    0    0  501  502  0.00000000000E+00 -0.00000000000E+00 -0.30574622984E+03  0.30574622984E+03  0.00000000000E+00 0.  1.
        -13    1    1    2    0    0 -0.23572299367E+02  0.47558527477E+03  0.23194662882E+03  0.52965673475E+03  0.10566000000E+00 0.  1.
         13    1    1    2    0    0 -0.11812732745E+03  0.87797855772E+01  0.64650100417E+02  0.13494738521E+03  0.10566000000E+00 0. -1.
          4    1    1    2  501    0  0.14169962682E+03 -0.48436506035E+03  0.40126344904E+03  0.64474851800E+03  0.00000000000E+00 0.  1.
</event>
<event>
 5    1  0.6336319E-005  0.1083845E+03  0.7818608E-02  0.1151382E+00
         21   -1    0    0  501  502  0.00000000000E+00  0.00000000000E+00  0.37121599442E+03  0.37121599442E+03  0.00000000000E+00 0.  1.
          4   -1    0    0  502    0 -0.00000000000E+00 -0.00000000000E+00 -0.11329848238E+03  0.11329848238E+03  0.00000000000E+00 0.  1.
        -13    1    1    2    0    0 -0.27330158187E+02  0.10019601782E+03 -0.44002545336E+02  0.11279368198E+03  0.10566000000E+00 0.  1.
         13    1    1    2    0    0  0.23852016079E+02 -0.12076928827E+03  0.75646321970E+02  0.14448708196E+03  0.10566000000E+00 0. -1.
          4    1    1    2  501    0  0.34781421083E+01  0.20573270452E+02  0.22627373540E+03  0.22723371286E+03  0.00000000000E+00 0.  1.
</event>
<event>
 5    1  0.6336319E-005  0.2258820E+03  0.7818608E-02  0.1043708E+00
         21   -1    0    0  501  502  0.00000000000E+00  0.00000000000E+00  0.95102304524E+03  0.95102304524E+03  0.00000000000E+00 0. -1.
         -4   -1    0    0    0  501 -0.00000000000E+00 -0.00000000000E+00 -0.74569335571E+03  0.74569335571E+03  0.00000000000E+00 0. -1.
        -13    1    1    2    0    0 -0.29471349201E+03 -0.61096552181E+02  0.20660718435E+03  0.36506899464E+03  0.10566000000E+00 0.  1.
         13    1    1    2    0    0  0.20036297485E+03 -0.10224475462E+03 -0.63330685806E+03  0.67206911785E+03  0.10566000000E+00 0. -1.
         -4    1    1    2    0  502  0.94350517158E+02  0.16334130681E+03  0.63202936324E+03  0.65957828845E+03  0.00000000000E+00 0. -1.
</event>
<event>
 5    1  0.6336319E-005  0.8979679E+03  0.7818608E-02  0.8876861E-01
         -4   -1    0    0    0  501 -0.00000000000E+00  0.00000000000E+00  0.30596070170E+04  0.30596070170E+04  0.00000000000E+00 0. -1.
         21   -1    0    0  501  502  0.00000000000E+00 -0.00000000000E+00 -0.84744656787E+03  0.84744656787E+03  0.00000000000E+00 0.  1.
        -13    1    1    2    0    0  0.16485112451E+03 -0.89877774298E+03  0.23860052144E+04  0.25549947590E+04  0.10566000000E+00 0.  1.
         13    1    1    2    0    0 -0.49753372960E+02  0.84395764740E+03  0.27219240373E+03  0.88816024710E+03  0.10566000000E+00 0. -1.
         -4    1    1    2    0  502 -0.11509775155E+03  0.54820095581E+02 -0.44603716895E+03  0.46389857876E+03  0.00000000000E+00 0. -1.
</event>
<event>
 5    1  0.6336319E-005  0.1794896E+02  0.7818608E-02  0.1540562E+00
         -4   -1    0    0    0  501 -0.00000000000E+00  0.00000000000E+00  0.12987424938E+02  0.12987424938E+02  0.00000000000E+00 0. -1.
         21   -1    0    0  501  502  0.00000000000E+00 -0.00000000000E+00 -0.91343329686E+02  0.91343329686E+02  0.00000000000E+00 0. -1.
        -13    1    1    2    0    0 -0.14604700552E+02  0.12435001971E+02 -0.43973795227E+01  0.19679295286E+02  0.10566000000E+00 0.  1.
         13    1    1    2    0    0  0.44545254524E+01 -0.17711354265E+02 -0.12485676439E+02  0.22123249018E+02  0.10566000000E+00 0. -1.
         -4    1    1    2    0  502  0.10150175100E+02  0.52763522943E+01 -0.61472848786E+02  0.62528210321E+02  0.00000000000E+00 0. -1.
</event>
<event>
 5    1  0.6336319E-005  0.1621593E+03  0.7818608E-02  0.1089702E+00
          4   -1    0    0  502    0 -0.00000000000E+00  0.00000000000E+00  0.36729097945E+03  0.36729097945E+03  0.00000000000E+00 0.  1.
         21   -1    0    0  501  502  0.00000000000E+00 -0.00000000000E+00 -0.31238118654E+03  0.31238118654E+03  0.00000000000E+00 0. -1.
        -13    1    1    2    0    0 -0.13203572622E+03 -0.99422902379E+02  0.28076998621E+03  0.32580691036E+03  0.10566000000E+00 0.  1.
         13    1    1    2    0    0  0.12694022008E+03  0.80358996661E+02 -0.25319954960E+02  0.15235648691E+03  0.10566000000E+00 0. -1.
          4    1    1    2  501    0  0.50955061399E+01  0.19063905718E+02 -0.20054023834E+03  0.20150876873E+03  0.00000000000E+00 0.  1.
</event>
<event>
 5    1  0.1395244E-004  0.3822300E+03  0.7818608E-02  0.1007301E+00
         -4   -1    0    0    0  501 -0.00000000000E+00  0.00000000000E+00  0.12599286707E+04  0.12599286707E+04  0.00000000000E+00 0. -1.
         21   -1    0    0  501  502  0.00000000000E+00 -0.00000000000E+00 -0.31813915860E+03  0.31813915860E+03  0.00000000000E+00 0. -1.
        -13    1    1    2    0    0  0.13040059145E+03 -0.63564169134E+02  0.41168433407E+03  0.43649595638E+03  0.10566000000E+00 0.  1.
         13    1    1    2    0    0 -0.46848501300E+02 -0.32513745663E+03  0.64831683667E+03  0.72679012077E+03  0.10566000000E+00 0. -1.
         -4    1    1    2    0  502 -0.83552090151E+02  0.38870162576E+03 -0.11821165868E+03  0.41478175211E+03  0.00000000000E+00 0. -1.
</event>
<event>
 5    1  0.6336319E-005  0.5473322E+03  0.7818608E-02  0.9379856E-01
         21   -1    0    0  501  502  0.00000000000E+00  0.00000000000E+00  0.23954135038E+03  0.23954135038E+03  0.00000000000E+00 0. -1.
          4   -1    0    0  502    0 -0.00000000000E+00 -0.00000000000E+00 -0.27046092595E+04  0.27046092595E+04  0.00000000000E+00 0.  1.
        -13    1    1    2    0    0 -0.42347323701E+03  0.45050753872E+03 -0.19845293563E+04  0.20786157418E+04  0.10566000000E+00 0.  1.
         13    1    1    2    0    0  0.11905727929E+03 -0.39120704247E+03 -0.25270144068E+03  0.48070325058E+03  0.10566000000E+00 0. -1.
          4    1    1    2  501    0  0.30441595772E+03 -0.59300496253E+02 -0.22783711219E+03  0.38483161754E+03  0.00000000000E+00 0.  1.
</event>
<event>
 5    1  0.6336319E-005  0.1113433E+04  0.7818608E-02  0.8674765E-01
         21   -1    0    0  501  502  0.00000000000E+00  0.00000000000E+00  0.10833491016E+04  0.10833491016E+04  0.00000000000E+00 0. -1.
          4   -1    0    0  502    0 -0.00000000000E+00 -0.00000000000E+00 -0.16359249943E+04  0.16359249943E+04  0.00000000000E+00 0.  1.
        -13    1    1    2    0    0 -0.10117056329E+04  0.50210248714E+03 -0.62987268895E+03  0.12932110464E+04  0.10566000000E+00 0.  1.
         13    1    1    2    0    0  0.10897799744E+04 -0.21784363695E+03 -0.31646495170E+02  0.11117903375E+04  0.10566000000E+00 0. -1.
          4    1    1    2  501    0 -0.78074341534E+02 -0.28425885019E+03  0.10894329138E+03  0.31427271191E+03  0.00000000000E+00 0.  1.
</event>
<event>
 5    1  0.6336319E-005  0.4920328E+03  0.7818608E-02  0.9495608E-01
         21   -1    0    0  501  502  0.00000000000E+00  0.00000000000E+00  0.25545045156E+03  0.25545045156E+03  0.00000000000E+00 0. -1.
          4   -1    0    0  502    0 -0.00000000000E+00 -0.00000000000E+00 -0.15432344585E+04  0.15432344585E+04  0.00000000000E+00 0.  1.
        -13    1    1    2    0    0  0.38635448161E+03  0.32206584605E+03 -0.10153299563E+04  0.11330891959E+04  0.10566000000E+00 0.  1.
         13    1    1    2    0    0 -0.34330375001E+03 -0.32150828177E+03 -0.34356822078E+03  0.58246388172E+03  0.10566000000E+00 0. -1.
          4    1    1    2  501    0 -0.43050731600E+02 -0.55756428032E+00  0.71114170118E+02  0.83131832416E+02  0.00000000000E+00 0.  1.
</event>
<event>
 5    1  0.6336319E-005  0.4934826E+03  0.7818608E-02  0.9767086E-01
         21   -1    0    0  501  502  0.00000000000E+00  0.00000000000E+00  0.12852948650E+03  0.12852948650E+03  0.00000000000E+00 0.  1.
          4   -1    0    0  502    0 -0.00000000000E+00 -0.00000000000E+00 -0.28466073206E+04  0.28466073206E+04  0.00000000000E+00 0.  1.
        -13    1    1    2    0    0  0.57968493276E+03 -0.96695647181E+02 -0.13759571887E+04  0.14962094993E+04  0.10566000000E+00 0.  1.
         13    1    1    2    0    0 -0.14586062416E+03  0.11674007607E+03 -0.41752604386E+03  0.45741838125E+03  0.10566000000E+00 0. -1.
          4    1    1    2  501    0 -0.43382430860E+03 -0.20044428893E+02 -0.92459460156E+03  0.10215089266E+04  0.00000000000E+00 0.  1.
</event>
<event>
 5    1  0.6336319E-005  0.5743662E+03  0.7818608E-02  0.9328362E-01
         -4   -1    0    0    0  501 -0.00000000000E+00  0.00000000000E+00  0.12106887495E+04  0.12106887495E+04  0.00000000000E+00 0. -1.
         21   -1    0    0  501  502  0.00000000000E+00 -0.00000000000E+00 -0.34122492408E+03  0.34122492408E+03  0.00000000000E+00 0.  1.
        -13    1    1    2    0    0 -0.32318102370E+03  0.49690081140E+03  0.69756953735E+03  0.91540136610E+03  0.10566000000E+00 0.  1.
         13    1    1    2    0    0  0.30615744032E+03 -0.44784198165E+03  0.19912114277E+03  0.57787893148E+03  0.10566000000E+00 0. -1.
         -4    1    1    2    0  502  0.17023583379E+02 -0.49058829756E+02 -0.27226854673E+02  0.58633376019E+02  0.00000000000E+00 0. -1.
</event>
<event>
 5    1  0.6336319E-005  0.4556299E+03  0.7818608E-02  0.9786938E-01
         21   -1    0    0  501  502  0.00000000000E+00  0.00000000000E+00  0.21252816075E+03  0.21252816075E+03  0.00000000000E+00 0. -1.
         -4   -1    0    0    0  501 -0.00000000000E+00 -0.00000000000E+00 -0.19498893712E+04  0.19498893712E+04  0.00000000000E+00 0. -1.
        -13    1    1    2    0    0 -0.15047387418E+02 -0.22122916096E+03 -0.55109686503E+03  0.59403411630E+03  0.10566000000E+00 0.  1.
         13    1    1    2    0    0 -0.25116897508E+03 -0.21634540678E+03 -0.94645388428E+03  0.10028290758E+04  0.10566000000E+00 0. -1.
         -4    1    1    2    0  502  0.26621636250E+03  0.43757456774E+03 -0.23981046109E+03  0.56555433978E+03  0.00000000000E+00 0. -1.
</event>
<event>
 5    1  0.6336319E-005  0.5233152E+03  0.7818608E-02  0.9428284E-01
         21   -1    0    0  501  502  0.00000000000E+00  0.00000000000E+00  0.90309972811E+03  0.90309972811E+03  0.00000000000E+00 0.  1.
         -4   -1    0    0    0  501 -0.00000000000E+00 -0.00000000000E+00 -0.82982491096E+03  0.82982491096E+03  0.00000000000E+00 0. -1.
        -13    1    1    2    0    0  0.51435547386E+03  0.11465278503E+03 -0.18317983328E+03  0.55790830527E+03  0.10566000000E+00 0.  1.
         13    1    1    2    0    0 -0.52909105418E+03  0.21185293624E+03 -0.20833654557E+03  0.60681392337E+03  0.10566000000E+00 0. -1.
         -4    1    1    2    0  502  0.14735580323E+02 -0.32650572127E+03  0.46479119600E+03  0.56820241044E+03  0.00000000000E+00 0. -1.
</event>
<event>
 5    1  0.6336319E-005  0.1476568E+03  0.7818608E-02  0.1103446E+00
         21   -1    0    0  501  502  0.00000000000E+00  0.00000000000E+00  0.75052524604E+03  0.75052524604E+03  0.00000000000E+00 0. -1.
          4   -1    0    0  502    0 -0.00000000000E+00 -0.00000000000E+00 -0.15919231330E+03  0.15919231330E+03  0.00000000000E+00 0.  1.
        -13    1    1    2    0    0  0.14377774715E+03 -0.11863197905E+02 -0.89688890483E+02  0.16987314173E+03  0.10566000000E+00 0.  1.
         13    1    1    2    0    0 -0.16596530036E+03  0.47384948138E+02  0.23349124314E+03  0.29035837515E+03  0.10566000000E+00 0. -1.
          4    1    1    2  501    0  0.22187553201E+02 -0.35521750233E+02  0.44753058008E+03  0.44948604246E+03  0.00000000000E+00 0.  1.
</event>
<event>
 5    1  0.6336319E-005  0.3574001E+03  0.7818608E-02  0.9860852E-01
         -4   -1    0    0    0  501 -0.00000000000E+00  0.00000000000E+00  0.16200996939E+04  0.16200996939E+04  0.00000000000E+00 0. -1.
         21   -1    0    0  501  502  0.00000000000E+00 -0.00000000000E+00 -0.20798393838E+03  0.20798393838E+03  0.00000000000E+00 0. -1.
        -13    1    1    2    0    0  0.21773200008E+03  0.24354707005E+03  0.47064055353E+03  0.57290919087E+03  0.10566000000E+00 0.  1.
         13    1    1    2    0    0 -0.37563461860E+03 -0.13603194227E+03  0.98176784262E+03  0.10599406417E+04  0.10566000000E+00 0. -1.
         -4    1    1    2    0  502  0.15790261852E+03 -0.10751512778E+03 -0.40292640655E+02  0.19523379966E+03  0.00000000000E+00 0. -1.
</event>
<event>
 5    1  0.6336319E-005  0.5362128E+03  0.7818608E-02  0.9401947E-01
         21   -1    0    0  501  502  0.00000000000E+00  0.00000000000E+00  0.34884362796E+03  0.34884362796E+03  0.00000000000E+00 0. -1.
         -4   -1    0    0    0  501 -0.00000000000E+00 -0.00000000000E+00 -0.22305611026E+04  0.22305611026E+04  0.00000000000E+00 0. -1.
        -13    1    1    2    0    0 -0.55170833943E+03 -0.38735202610E+02 -0.90243885725E+03  0.10584320526E+04  0.10566000000E+00 0.  1.
         13    1    1    2    0    0  0.52043010193E+03 -0.11754612496E+03 -0.11619231295E+04  0.12785655839E+04  0.10566000000E+00 0. -1.
         -4    1    1    2    0  502  0.31278237508E+02  0.15628132757E+03  0.18264451203E+03  0.24240709408E+03  0.00000000000E+00 0. -1.
</event>
<event>
 5    1  0.6336319E-005  0.6535335E+02  0.7818608E-02  0.1239473E+00
         21   -1    0    0  501  502  0.00000000000E+00  0.00000000000E+00  0.32674985388E+03  0.32674985388E+03  0.00000000000E+00 0. -1.
          4   -1    0    0  502    0 -0.00000000000E+00 -0.00000000000E+00 -0.17656556758E+02  0.17656556758E+02  0.00000000000E+00 0.  1.
        -13    1    1    2    0    0 -0.92680503855E+01 -0.69847984002E+02  0.18035226352E+03  0.19362744575E+03  0.10566000000E+00 0.  1.
         13    1    1    2    0    0  0.12422201057E+01  0.62883801804E+02  0.84846502148E+02  0.10561655046E+03  0.10566000000E+00 0. -1.
          4    1    1    2  501    0  0.80258302799E+01  0.69641821980E+01  0.43894531458E+02  0.45162414431E+02  0.00000000000E+00 0.  1.
</event>
<event>
 5    1  0.6336319E-005  0.8441986E+03  0.7818608E-02  0.8936616E-01
         -4   -1    0    0    0  501 -0.00000000000E+00  0.00000000000E+00  0.15605710538E+04  0.15605710538E+04  0.00000000000E+00 0. -1.
         21   -1    0    0  501  502  0.00000000000E+00 -0.00000000000E+00 -0.58784501830E+03  0.58784501830E+03  0.00000000000E+00 0.  1.
        -13    1    1    2    0    0 -0.52351565137E+03 -0.66306120429E+03  0.16332517078E+03  0.86046145784E+03  0.10566000000E+00 0.  1.
         13    1    1    2    0    0  0.51469167174E+03  0.66879664627E+03  0.87842992069E+03  0.12181279111E+04  0.10566000000E+00 0. -1.
         -4    1    1    2    0  502  0.88239796254E+01 -0.57354419861E+01 -0.69029055962E+02  0.69826703189E+02  0.00000000000E+00 0. -1.
</event>
<event>
 5    1  0.6336319E-005  0.4452326E+03  0.7818608E-02  0.9606836E-01
         21   -1    0    0  501  502  0.00000000000E+00  0.00000000000E+00  0.22727193682E+03  0.22727193682E+03  0.00000000000E+00 0.  1.
         -4   -1    0    0    0  501 -0.00000000000E+00 -0.00000000000E+00 -0.95991374413E+03  0.95991374413E+03  0.00000000000E+00 0. -1.
        -13    1    1    2    0    0  0.19866681152E+03 -0.40999239135E+03 -0.28252711244E+03  0.53608193720E+03  0.10566000000E+00 0.  1.
         13    1    1    2    0    0 -0.18562088517E+03  0.39676637361E+03 -0.45531189962E+03  0.63181295123E+03  0.10566000000E+00 0. -1.
         -4    1    1    2    0  502 -0.13045926345E+02  0.13226017740E+02  0.51972047411E+01  0.19290792533E+02  0.00000000000E+00 0. -1.
</event>
<event>
 5    1  0.6336319E-005  0.4752538E+03  0.7818608E-02  0.1001075E+00
         -4   -1    0    0    0  501 -0.00000000000E+00  0.00000000000E+00  0.78378930447E+03  0.78378930447E+03  0.00000000000E+00 0. -1.
         21   -1    0    0  501  502  0.00000000000E+00 -0.00000000000E+00 -0.59898327446E+03  0.59898327446E+03  0.00000000000E+00 0. -1.
        -13    1    1    2    0    0 -0.92377687531E+02  0.16747786379E+01  0.34094901631E+03  0.35324592697E+03  0.10566000000E+00 0.  1.
         13    1    1    2    0    0  0.27115800915E+03 -0.41016894481E+03 -0.28118993077E+03  0.56642123684E+03  0.10566000000E+00 0. -1.
         -4    1    1    2    0  502 -0.17878032162E+03  0.40849416617E+03  0.12504694448E+03  0.46310541512E+03  0.00000000000E+00 0. -1.
</event>
<event>
 5    1  0.6336319E-005  0.4120328E+03  0.7818608E-02  0.9913540E-01
         21   -1    0    0  501  502  0.00000000000E+00  0.00000000000E+00  0.22957585181E+03  0.22957585181E+03  0.00000000000E+00 0.  1.
          4   -1    0    0  502    0 -0.00000000000E+00 -0.00000000000E+00 -0.20515908556E+04  0.20515908556E+04  0.00000000000E+00 0.  1.
        -13    1    1    2    0    0 -0.45225909862E+03  0.93421354022E+02 -0.89384791800E+03  0.10060963937E+04  0.10566000000E+00 0.  1.
         13    1    1    2    0    0  0.12531027606E+03  0.15001509159E+03 -0.83414891638E+03  0.85674478047E+03  0.10566000000E+00 0. -1.
          4    1    1    2  501    0  0.32694882256E+03 -0.24343644561E+03 -0.94018169421E+02  0.41832553330E+03  0.00000000000E+00 0.  1.
</event>
<event>
 5    1  0.6336319E-005  0.4762704E+03  0.7818608E-02  0.9531556E-01
         -4   -1    0    0    0  501 -0.00000000000E+00  0.00000000000E+00  0.57163856596E+03  0.57163856596E+03  0.00000000000E+00 0. -1.
         21   -1    0    0  501  502  0.00000000000E+00 -0.00000000000E+00 -0.85255327369E+03  0.85255327369E+03  0.00000000000E+00 0. -1.
        -13    1    1    2    0    0 -0.70394690573E+02 -0.48197241256E+03 -0.54280681713E+03  0.72930931080E+03  0.10566000000E+00 0.  1.
         13    1    1    2    0    0  0.62511211735E+02  0.47013781387E+03  0.36020018543E+03  0.59555134151E+03  0.10566000000E+00 0. -1.
         -4    1    1    2    0  502  0.78834788374E+01  0.11834598690E+02 -0.98308076041E+02  0.99331187346E+02  0.00000000000E+00 0. -1.
</event>
<event>
 5    1  0.6336319E-005  0.1717739E+03  0.7818608E-02  0.1081421E+00
         -4   -1    0    0    0  501 -0.00000000000E+00  0.00000000000E+00  0.33049706911E+03  0.33049706911E+03  0.00000000000E+00 0. -1.
         21   -1    0    0  501  502  0.00000000000E+00 -0.00000000000E+00 -0.21515576687E+03  0.21515576687E+03  0.00000000000E+00 0.  1.
        -13    1    1    2    0    0  0.13704271810E+02  0.17015073552E+03 -0.90276937210E+02  0.19310364166E+03  0.10566000000E+00 0.  1.
         13    1    1    2    0    0  0.15323139442E+02 -0.17168884096E+03  0.24747516303E+03  0.30158883301E+03  0.10566000000E+00 0. -1.
         -4    1    1    2    0  502 -0.29027411252E+02  0.15381054410E+01 -0.41856923585E+02  0.50960361305E+02  0.00000000000E+00 0. -1.
</event>
<event>
 5    1  0.6336319E-005  0.4608703E+03  0.7818608E-02  0.9838113E-01
         -4   -1    0    0    0  501 -0.00000000000E+00  0.00000000000E+00  0.27353723729E+04  0.27353723729E+04  0.00000000000E+00 0. -1.
         21   -1    0    0  501  502  0.00000000000E+00 -0.00000000000E+00 -0.16145648608E+03  0.16145648608E+03  0.00000000000E+00 0. -1.
        -13    1    1    2    0    0 -0.17725383408E+03 -0.31293978840E+02  0.88528108331E+02  0.20058781602E+03  0.10566000000E+00 0.  1.
         13    1    1    2    0    0 -0.29784375278E+02 -0.41035364212E+03  0.18501164657E+04  0.18953121559E+04  0.10566000000E+00 0. -1.
         -4    1    1    2    0  502  0.20703820935E+03  0.44164762096E+03  0.63527131282E+03  0.80092888705E+03  0.00000000000E+00 0. -1.
</event>
<event>
 5    1  0.6336319E-005  0.3434760E+02  0.7818608E-02  0.1404469E+00
         21   -1    0    0  501  502  0.00000000000E+00  0.00000000000E+00  0.80265502716E+02  0.80265502716E+02  0.00000000000E+00 0. -1.
         -4   -1    0    0    0  501 -0.00000000000E+00 -0.00000000000E+00 -0.19858359913E+03  0.19858359913E+03  0.00000000000E+00 0. -1.
        -13    1    1    2    0    0  0.20127381693E+02  0.57818036201E+00  0.12143635527E+02  0.23514353790E+02  0.10566000000E+00 0.  1.
         13    1    1    2    0    0 -0.27356667932E+02 -0.34027689331E+02 -0.18547570686E+03  0.19054532248E+03  0.10566000000E+00 0. -1.
         -4    1    1    2    0  502  0.72292862392E+01  0.33449508969E+02  0.55013974918E+02  0.64789425573E+02  0.00000000000E+00 0. -1.
</event>
<event>
 5    1  0.6336319E-005  0.5151811E+03  0.7818608E-02  0.9445305E-01
         21   -1    0    0  501  502  0.00000000000E+00  0.00000000000E+00  0.23880556014E+03  0.23880556014E+03  0.00000000000E+00 0. -1.
         -4   -1    0    0    0  501 -0.00000000000E+00 -0.00000000000E+00 -0.27328196504E+04  0.27328196504E+04  0.00000000000E+00 0. -1.
        -13    1    1    2    0    0  0.19697479232E+03 -0.45556859871E+03 -0.85329980098E+03  0.98714861011E+03  0.10566000000E+00 0.  1.
         13    1    1    2    0    0  0.74473396564E+02  0.55521241848E+03 -0.15965365334E+04  0.16919621834E+04  0.10566000000E+00 0. -1.
         -4    1    1    2    0  502 -0.27144818888E+03 -0.99643819769E+02 -0.44177755905E+02  0.29251441705E+03  0.00000000000E+00 0. -1.
</event>
<event>
 5    1  0.6336319E-005  0.3709562E+03  0.7818608E-02  0.9939785E-01
          4   -1    0    0  502    0 -0.00000000000E+00  0.00000000000E+00  0.24959172490E+04  0.24959172490E+04  0.00000000000E+00 0.  1.
         21   -1    0    0  501  502  0.00000000000E+00 -0.00000000000E+00 -0.23855445631E+03  0.23855445631E+03  0.00000000000E+00 0.  1.
        -13    1    1    2    0    0  0.30001337172E+03 -0.47531134309E+03  0.89322595598E+03  0.10553584773E+04  0.10566000000E+00 0.  1.
         13    1    1    2    0    0 -0.64440280841E+02  0.23684736848E+03  0.13181068077E+04  0.13407664948E+04  0.10566000000E+00 0. -1.
          4    1    1    2  501    0 -0.23557309088E+03  0.23846397461E+03  0.46030029025E+02  0.33834673326E+03  0.00000000000E+00 0.  1.
</event>
<event>
 5    1  0.6336319E-005  0.1485389E+03  0.7818608E-02  0.1102562E+00
         21   -1    0    0  501  502  0.00000000000E+00  0.00000000000E+00  0.55564060029E+02  0.55564060029E+02  0.00000000000E+00 0.  1.
         -4   -1    0    0    0  501 -0.00000000000E+00 -0.00000000000E+00 -0.70599878589E+03  0.70599878589E+03  0.00000000000E+00 0. -1.
        -13    1    1    2    0    0 -0.13578435898E+03  0.44398767311E+02 -0.18588048109E+03  0.23443593388E+03  0.10566000000E+00 0.  1.
         13    1    1    2    0    0  0.11168070784E+03 -0.11228314834E+03 -0.40071213841E+03  0.43087157592E+03  0.10566000000E+00 0. -1.
         -4    1    1    2    0  502  0.24103651144E+02  0.67884381024E+02 -0.63842106358E+02  0.96255336111E+02  0.00000000000E+00 0. -1.
</event>
<event>
 5    1  0.6336319E-005  0.1075173E+03  0.7818608E-02  0.1152683E+00
         21   -1    0    0  501  502  0.00000000000E+00  0.00000000000E+00  0.93135336269E+02  0.93135336269E+02  0.00000000000E+00 0. -1.
          4   -1    0    0  502    0 -0.00000000000E+00 -0.00000000000E+00 -0.48245503753E+03  0.48245503753E+03  0.00000000000E+00 0.  1.
        -13    1    1    2    0    0 -0.99110698343E+02  0.43072926194E+02 -0.43859267376E+03  0.45170980966E+03  0.10566000000E+00 0.  1.
         13    1    1    2    0    0  0.89366851464E+02 -0.48457596428E+02  0.39488786671E+02  0.10905937937E+03  0.10566000000E+00 0. -1.
          4    1    1    2  501    0  0.97438468796E+01  0.53846702338E+01  0.97841858333E+01  0.14821184769E+02  0.00000000000E+00 0.  1.
</event>
<event>
 5    1  0.6336319E-005  0.4529047E+03  0.7818608E-02  0.9587637E-01
          4   -1    0    0  502    0 -0.00000000000E+00  0.00000000000E+00  0.33998632010E+04  0.33998632010E+04  0.00000000000E+00 0.  1.
         21   -1    0    0  501  502  0.00000000000E+00 -0.00000000000E+00 -0.29944947482E+03  0.29944947482E+03  0.00000000000E+00 0. -1.
        -13    1    1    2    0    0 -0.30435083600E+03 -0.67510813217E+03  0.65086107695E+03  0.98591103764E+03  0.10566000000E+00 0.  1.
         13    1    1    2    0    0  0.23945995838E+03  0.34673367336E+03  0.23143557010E+04  0.23524046492E+04  0.10566000000E+00 0. -1.
          4    1    1    2  501    0  0.64890877621E+02  0.32837445881E+03  0.13519694823E+03  0.36099698892E+03  0.00000000000E+00 0.  1.
</event>
<event>
 5    1  0.6336319E-005  0.2620626E+03  0.7818608E-02  0.1024325E+00
          4   -1    0    0  502    0 -0.00000000000E+00  0.00000000000E+00  0.59852595611E+02  0.59852595611E+02  0.00000000000E+00 0.  1.
         21   -1    0    0  501  502  0.00000000000E+00 -0.00000000000E+00 -0.20426827774E+04  0.20426827774E+04  0.00000000000E+00 0. -1.
        -13    1    1    2    0    0 -0.26638815538E+03  0.37896206555E+02 -0.73493620273E+03  0.78264296141E+03  0.10566000000E+00 0.  1.
         13    1    1    2    0    0  0.25504126928E+03 -0.37591639942E+02 -0.42607521555E+03  0.49799526193E+03  0.10566000000E+00 0. -1.
          4    1    1    2  501    0  0.11346886100E+02 -0.30456661388E+00 -0.82181876354E+03  0.82189714970E+03  0.00000000000E+00 0.  1.
</event>
<event>
 5    1  0.6336319E-005  0.3459031E+03  0.7818608E-02  0.9996867E-01
         -4   -1    0    0    0  501 -0.00000000000E+00  0.00000000000E+00  0.28663149394E+04  0.28663149394E+04  0.00000000000E+00 0. -1.
         21   -1    0    0  501  502  0.00000000000E+00 -0.00000000000E+00 -0.14372878721E+03  0.14372878721E+03  0.00000000000E+00 0. -1.
        -13    1    1    2    0    0  0.13276051058E+03 -0.21276165785E+03  0.74920636926E+03  0.79006523220E+03  0.10566000000E+00 0.  1.
         13    1    1    2    0    0 -0.27911022465E+03 -0.12162219822E+03  0.17820381236E+04  0.18078590547E+04  0.10566000000E+00 0. -1.
         -4    1    1    2    0  502  0.14634971407E+03  0.33438385607E+03  0.19134165939E+03  0.41211943976E+03  0.00000000000E+00 0. -1.
</event>
<event>
 5    1  0.6336319E-005  0.1824011E+03  0.7818608E-02  0.1072920E+00
         21   -1    0    0  501  502  0.00000000000E+00  0.00000000000E+00  0.10410420294E+03  0.10410420294E+03  0.00000000000E+00 0. -1.
          4   -1    0    0  502    0 -0.00000000000E+00 -0.00000000000E+00 -0.50178728977E+03  0.50178728977E+03  0.00000000000E+00 0.  1.
        -13    1    1    2    0    0  0.67335151693E+02 -0.17248591170E+03 -0.35336034695E+03  0.39893477957E+03  0.10566000000E+00 0.  1.
         13    1    1    2    0    0 -0.66826397006E+02  0.16168942533E+03 -0.62521144690E+02  0.18579058721E+03  0.10566000000E+00 0. -1.
          4    1    1    2  501    0 -0.50875468678E+00  0.10796486371E+02  0.18198404812E+02  0.21166125932E+02  0.00000000000E+00 0.  1.
</event>
<event>
 5    1  0.6336319E-005  0.5293551E+03  0.7818608E-02  0.9645378E-01
         21   -1    0    0  501  502  0.00000000000E+00  0.00000000000E+00  0.70203344665E+03  0.70203344665E+03  0.00000000000E+00 0. -1.
          4   -1    0    0  502    0 -0.00000000000E+00 -0.00000000000E+00 -0.62319170521E+03  0.62319170521E+03  0.00000000000E+00 0.  1.
        -13    1    1    2    0    0  0.40259630170E+03 -0.25912157840E+03 -0.51041268168E+02  0.48149039113E+03  0.10566000000E+00 0.  1.
         13    1    1    2    0    0  0.18453002788E+03  0.13920666888E+03  0.69934074946E+02  0.24149661251E+03  0.10566000000E+00 0. -1.
          4    1    1    2  501    0 -0.58712632958E+03  0.11991490952E+03  0.59948934664E+02  0.60223814823E+03  0.00000000000E+00 0.  1.
</event>
<event>
 5    1  0.6336319E-005  0.3834972E+03  0.7818608E-02  0.9777954E-01
         21   -1    0    0  501  502  0.00000000000E+00  0.00000000000E+00  0.15826742758E+04  0.15826742758E+04  0.00000000000E+00 0.  1.
          4   -1    0    0  502    0 -0.00000000000E+00 -0.00000000000E+00 -0.38646539015E+03  0.38646539015E+03  0.00000000000E+00 0.  1.
        -13    1    1    2    0    0  0.31821513828E+02  0.38429633621E+03 -0.17748427155E+02  0.38601981892E+03  0.10566000000E+00 0.  1.
         13    1    1    2    0    0  0.61760189406E+02 -0.38217936481E+03  0.22286574202E+02  0.38777840377E+03  0.10566000000E+00 0. -1.
          4    1    1    2  501    0 -0.93581703235E+02 -0.21169714029E+01  0.11916707386E+04  0.11953414433E+04  0.00000000000E+00 0.  1.
</event>
<event>
 5    1  0.6336319E-005  0.3348071E+03  0.7818608E-02  0.1021277E+00
         -4   -1    0    0    0  501 -0.00000000000E+00  0.00000000000E+00  0.14726249544E+04  0.14726249544E+04  0.00000000000E+00 0. -1.
         21   -1    0    0  501  502  0.00000000000E+00 -0.00000000000E+00 -0.28342403131E+03  0.28342403131E+03  0.00000000000E+00 0. -1.
        -13    1    1    2    0    0 -0.77043884600E+02  0.11481257604E+03  0.59419621324E+03  0.61007117516E+03  0.10566000000E+00 0.  1.
         13    1    1    2    0    0 -0.26333913978E+03 -0.40788319946E+02  0.72635703772E+03  0.77369615935E+03  0.10566000000E+00 0. -1.
         -4    1    1    2    0  502  0.34038302438E+03 -0.74024256091E+02 -0.13135232787E+03  0.37228165119E+03  0.00000000000E+00 0. -1.
</event>
<event>
 5    1  0.6336319E-005  0.7312245E+02  0.7818608E-02  0.1245268E+00
         21   -1    0    0  501  502  0.00000000000E+00  0.00000000000E+00  0.16342851750E+03  0.16342851750E+03  0.00000000000E+00 0.  1.
         -4   -1    0    0    0  501 -0.00000000000E+00 -0.00000000000E+00 -0.18491535543E+03  0.18491535543E+03  0.00000000000E+00 0. -1.
        -13    1    1    2    0    0  0.10104842294E+02  0.39996996564E+02  0.10672896860E+03  0.11442443565E+03  0.10566000000E+00 0.  1.
         13    1    1    2    0    0  0.63988159616E+02 -0.21926723058E+02 -0.14119246981E+03  0.15655858472E+03  0.10566000000E+00 0. -1.
         -4    1    1    2    0  502 -0.74093001910E+02 -0.18070273506E+02  0.12976663277E+02  0.77360852545E+02  0.00000000000E+00 0. -1.
</event>
<event>
 5    1  0.6336319E-005  0.3900987E+03  0.7818608E-02  0.1005914E+00
         -4   -1    0    0    0  501 -0.00000000000E+00  0.00000000000E+00  0.11259879750E+04  0.11259879750E+04  0.00000000000E+00 0. -1.
         21   -1    0    0  501  502  0.00000000000E+00 -0.00000000000E+00 -0.43894646775E+03  0.43894646775E+03  0.00000000000E+00 0. -1.
        -13    1    1    2    0    0 -0.13167650338E+03  0.55071783453E+02  0.52701936829E+03  0.54600460491E+03  0.10566000000E+00 0.  1.
         13    1    1    2    0    0  0.15731627026E+03  0.34215482884E+03  0.40380573973E+03  0.55215706315E+03  0.10566000000E+00 0. -1.
         -4    1    1    2    0  502 -0.25639766881E+02 -0.39722661229E+03 -0.24378360079E+03  0.46677277467E+03  0.00000000000E+00 0. -1.
</event>
<event>
 5    1  0.6336319E-005  0.2826690E+03  0.7818608E-02  0.1014727E+00
         -4   -1    0    0    0  501 -0.00000000000E+00  0.00000000000E+00  0.22466608590E+04  0.22466608590E+04  0.00000000000E+00 0. -1.
         21   -1    0    0  501  502  0.00000000000E+00 -0.00000000000E+00 -0.57300022657E+02  0.57300022657E+02  0.00000000000E+00 0.  1.
        -13    1    1    2    0    0 -0.28872608799E+03 -0.10890902675E+02  0.49392492259E+03  0.57222653379E+03  0.10566000000E+00 0.  1.
         13    1    1    2    0    0  0.28086744413E+03 -0.54861684213E+01  0.16893935148E+04  0.17125907504E+04  0.10566000000E+00 0. -1.
         -4    1    1    2    0  502  0.78586438609E+01  0.16377071096E+02  0.60423989765E+01  0.19143597531E+02  0.00000000000E+00 0. -1.
</event>
<event>
 5    1  0.6336319E-005  0.4716570E+03  0.7818608E-02  0.9889116E-01
          4   -1    0    0  502    0 -0.00000000000E+00  0.00000000000E+00  0.17375704382E+04  0.17375704382E+04  0.00000000000E+00 0.  1.
         21   -1    0    0  501  502  0.00000000000E+00 -0.00000000000E+00 -0.18794825282E+03  0.18794825282E+03  0.00000000000E+00 0.  1.
        -13    1    1    2    0    0  0.25617918410E+03 -0.30621618980E+03  0.87273044232E+03  0.95971587742E+03  0.10566000000E+00 0.  1.
         13    1    1    2    0    0  0.13938977758E+03 -0.23787391411E+02  0.28631435605E+03  0.31932940943E+03  0.10566000000E+00 0. -1.
          4    1    1    2  501    0 -0.39556896168E+03  0.33000358121E+03  0.39057738705E+03  0.64647340420E+03  0.00000000000E+00 0.  1.
</event>
<event>
 5    1  0.6336319E-005  0.4964412E+03  0.7818608E-02  0.9568069E-01
         -4   -1    0    0    0  501 -0.00000000000E+00  0.00000000000E+00  0.28248239265E+04  0.28248239265E+04  0.00000000000E+00 0. -1.
         21   -1    0    0  501  502  0.00000000000E+00 -0.00000000000E+00 -0.19520007252E+03  0.19520007252E+03  0.00000000000E+00 0. -1.
        -13    1    1    2    0    0  0.24489830716E+03  0.27575660511E+03  0.10075994415E+04  0.10729741525E+04  0.10566000000E+00 0.  1.
         13    1    1    2    0    0  0.47754422524E+02  0.29251599516E+03  0.10439917110E+04  0.10852487255E+04  0.10566000000E+00 0. -1.
         -4    1    1    2    0  502 -0.29265272968E+03 -0.56827260027E+03  0.57803270146E+03  0.86180112113E+03  0.00000000000E+00 0. -1.
</event>
<event>
 5    1  0.6336319E-005  0.3957877E+03  0.7818608E-02  0.9741290E-01
         -4   -1    0    0    0  501 -0.00000000000E+00  0.00000000000E+00  0.11044199183E+04  0.11044199183E+04  0.00000000000E+00 0. -1.
         21   -1    0    0  501  502  0.00000000000E+00 -0.00000000000E+00 -0.65074411904E+03  0.65074411904E+03  0.00000000000E+00 0. -1.
        -13    1    1    2    0    0 -0.39021807552E+03 -0.48996847668E+01  0.51994152484E+03  0.65010257174E+03  0.10566000000E+00 0.  1.
         13    1    1    2    0    0  0.35358155024E+03  0.34888030350E+03  0.31661731086E+03  0.58905340296E+03  0.10566000000E+00 0. -1.
         -4    1    1    2    0  502  0.36636525279E+02 -0.34398061873E+03 -0.38288303648E+03  0.51600806260E+03  0.00000000000E+00 0. -1.
</event>
<event>
 5    1  0.6336319E-005  0.3904298E+03  0.7818608E-02  0.9802521E-01
         -4   -1    0    0    0  501 -0.00000000000E+00  0.00000000000E+00  0.18937379429E+04  0.18937379429E+04  0.00000000000E+00 0. -1.
         21   -1    0    0  501  502  0.00000000000E+00 -0.00000000000E+00 -0.25302852358E+03  0.25302852358E+03  0.00000000000E+00 0. -1.
        -13    1    1    2    0    0 -0.32665691153E+03  0.70300938113E+02  0.43935392102E+03  0.55197720862E+03  0.10566000000E+00 0.  1.
         13    1    1    2    0    0  0.55098849996E+03  0.20826548293E+03  0.10550796258E+04  0.12083690936E+04  0.10566000000E+00 0. -1.
         -4    1    1    2    0  502 -0.22433158842E+03 -0.27856642104E+03  0.14627587258E+03  0.38642016432E+03  0.00000000000E+00 0. -1.
</event>
<event>
 5    1  0.6336319E-005  0.5401334E+03  0.7818608E-02  0.9445874E-01
         21   -1    0    0  501  502  0.00000000000E+00  0.00000000000E+00  0.13672657454E+04  0.13672657454E+04  0.00000000000E+00 0. -1.
         -4   -1    0    0    0  501 -0.00000000000E+00 -0.00000000000E+00 -0.91508795978E+03  0.91508795978E+03  0.00000000000E+00 0. -1.
        -13    1    1    2    0    0  0.52640198875E+03 -0.27594310855E+03 -0.50939278818E+03  0.78276731966E+03  0.10566000000E+00 0.  1.
         13    1    1    2    0    0  0.21151348635E+03 -0.64737806952E+02 -0.23565464802E+02  0.22245062565E+03  0.10566000000E+00 0. -1.
         -4    1    1    2    0  502 -0.73791547510E+03  0.34068091550E+03  0.98513603861E+03  0.12771357599E+04  0.00000000000E+00 0. -1.
</event>
<event>
 5    1  0.6336319E-005  0.2376247E+03  0.7818608E-02  0.1056768E+00
         -4   -1    0    0    0  501 -0.00000000000E+00  0.00000000000E+00  0.31720692105E+04  0.31720692105E+04  0.00000000000E+00 0. -1.
         21   -1    0    0  501  502  0.00000000000E+00 -0.00000000000E+00 -0.10282321782E+03  0.10282321782E+03  0.00000000000E+00 0.  1.
        -13    1    1    2    0    0  0.12530887966E+03  0.40203693499E+02  0.27802297348E+03  0.30759622436E+03  0.10566000000E+00 0.  1.
         13    1    1    2    0    0  0.15574107742E+03  0.17020198187E+03  0.96952327805E+02  0.25024740330E+03  0.10566000000E+00 0. -1.
         -4    1    1    2    0  502 -0.28104995708E+03 -0.21040567537E+03  0.26942706914E+04  0.27170488007E+04  0.00000000000E+00 0. -1.
</event>
<event>
 5    1  0.6336319E-005  0.7301486E+02  0.7818608E-02  0.1219032E+00
         -4   -1    0    0    0  501 -0.00000000000E+00  0.00000000000E+00  0.10802653629E+02  0.10802653629E+02  0.00000000000E+00 0. -1.
         21   -1    0    0  501  502  0.00000000000E+00 -0.00000000000E+00 -0.92008156257E+03  0.92008156257E+03  0.00000000000E+00 0.  1.
        -13    1    1    2    0    0  0.60405931618E+02  0.36614445175E+01 -0.35983092930E+03  0.36488435373E+03  0.10566000000E+00 0.  1.
         13    1    1    2    0    0 -0.79497044902E+02 -0.81220198664E+01 -0.19135276100E+03  0.20736836225E+03  0.10566000000E+00 0. -1.
         -4    1    1    2    0  502  0.19091113284E+02  0.44605753489E+01 -0.35809521865E+03  0.35863150023E+03  0.00000000000E+00 0. -1.
</event>
<event>
 5    1  0.6336319E-005  0.4808264E+03  0.7818608E-02  0.9618957E-01
         -4   -1    0    0    0  501 -0.00000000000E+00  0.00000000000E+00  0.58406474758E+03  0.58406474758E+03  0.00000000000E+00 0. -1.
         21   -1    0    0  501  502  0.00000000000E+00 -0.00000000000E+00 -0.93838370986E+03  0.93838370986E+03  0.00000000000E+00 0. -1.
        -13    1    1    2    0    0  0.89772668830E+02  0.32649981186E+03  0.11757017966E+03  0.35844667319E+03  0.10566000000E+00 0.  1.
         13    1    1    2    0    0 -0.29356184291E+03  0.20687299674E+03  0.82146792159E+02  0.36840616040E+03  0.10566000000E+00 0. -1.
         -4    1    1    2    0  502  0.20378917408E+03 -0.53337280860E+03 -0.55403593410E+03  0.79559562385E+03  0.00000000000E+00 0. -1.
</event>
<event>
 5    1  0.6336319E-005  0.8900171E+03  0.7818608E-02  0.8885418E-01
         21   -1    0    0  501  502  0.00000000000E+00  0.00000000000E+00  0.69082205340E+03  0.69082205340E+03  0.00000000000E+00 0.  1.
         -4   -1    0    0    0  501 -0.00000000000E+00 -0.00000000000E+00 -0.15815137558E+04  0.15815137558E+04  0.00000000000E+00 0. -1.
        -13    1    1    2    0    0 -0.73901876452E+03 -0.13571941384E+03 -0.30791817431E+02  0.75200840473E+03  0.10566000000E+00 0.  1.
         13    1    1    2    0    0  0.99080120757E+03  0.10177433276E+03 -0.63654855184E+03  0.11820486952E+04  0.10566000000E+00 0. -1.
         -4    1    1    2    0  502 -0.25178244305E+03  0.33945081083E+02 -0.22335133310E+03  0.33827870928E+03  0.00000000000E+00 0. -1.
</event>
<event>
 5    1  0.6336319E-005  0.2520801E+03  0.7818608E-02  0.1049666E+00
         21   -1    0    0  501  502  0.00000000000E+00  0.00000000000E+00  0.57730060328E+03  0.57730060328E+03  0.00000000000E+00 0.  1.
          4   -1    0    0  502    0 -0.00000000000E+00 -0.00000000000E+00 -0.86622950355E+03  0.86622950355E+03  0.00000000000E+00 0.  1.
        -13    1    1    2    0    0 -0.27892932262E+03  0.14549012806E+03 -0.38698157870E+03  0.49872206468E+03  0.10566000000E+00 0.  1.
         13    1    1    2    0    0  0.12581008214E+03  0.51609187124E+02 -0.38105280648E+03  0.40458983854E+03  0.10566000000E+00 0. -1.
          4    1    1    2  501    0  0.15311924048E+03 -0.19709931519E+03  0.47910548490E+03  0.54021820362E+03  0.00000000000E+00 0.  1.
</event>
<event>
 5    1  0.6336319E-005  0.2190890E+03  0.7818608E-02  0.1047783E+00
         -4   -1    0    0    0  501 -0.00000000000E+00  0.00000000000E+00  0.44842359858E+03  0.44842359858E+03  0.00000000000E+00 0. -1.
         21   -1    0    0  501  502  0.00000000000E+00 -0.00000000000E+00 -0.17949703153E+03  0.17949703153E+03  0.00000000000E+00 0.  1.
        -13    1    1    2    0    0  0.12678106464E+03 -0.17167012690E+03  0.30880149446E+02  0.21563317374E+03  0.10566000000E+00 0.  1.
         13    1    1    2    0    0 -0.12582652733E+03  0.18222029725E+03  0.28683141027E+03  0.36236558996E+03  0.10566000000E+00 0. -1.
         -4    1    1    2    0  502 -0.95453731395E+00 -0.10550170342E+02 -0.48784992672E+02  0.49921866409E+02  0.00000000000E+00 0. -1.
</event>
<event>
 5    1  0.6336319E-005  0.4493107E+03  0.7818608E-02  0.9790101E-01
         21   -1    0    0  501  502  0.00000000000E+00  0.00000000000E+00  0.25186477992E+03  0.25186477992E+03  0.00000000000E+00 0.  1.
          4   -1    0    0  502    0 -0.00000000000E+00 -0.00000000000E+00 -0.16037430915E+04  0.16037430915E+04  0.00000000000E+00 0.  1.
        -13    1    1    2    0    0  0.23799235571E+03  0.29006260478E+03 -0.25545086032E+03  0.45390729149E+03  0.10566000000E+00 0.  1.
         13    1    1    2    0    0  0.19743625207E+03  0.11550166964E+03 -0.54242473995E+03  0.58868184871E+03  0.10566000000E+00 0. -1.
          4    1    1    2  501    0 -0.43542860778E+03 -0.40556427442E+03 -0.55400271127E+03  0.81301873118E+03  0.00000000000E+00 0.  1.
</event>
<event>
 5    1  0.6336319E-005  0.4158625E+03  0.7818608E-02  0.9804706E-01
         21   -1    0    0  501  502  0.00000000000E+00  0.00000000000E+00  0.72567914684E+03  0.72567914684E+03  0.00000000000E+00 0.  1.
          4   -1    0    0  502    0 -0.00000000000E+00 -0.00000000000E+00 -0.57548384611E+03  0.57548384611E+03  0.00000000000E+00 0.  1.
        -13    1    1    2    0    0 -0.45165046543E+03 -0.41365560932E+03  0.31804479042E+01  0.61246161713E+03  0.10566000000E+00 0.  1.
         13    1    1    2    0    0  0.24156588067E+03  0.13026857548E+03 -0.58245545450E+02  0.28056466490E+03  0.10566000000E+00 0. -1.
          4    1    1    2  501    0  0.21008458476E+03  0.28338703384E+03  0.20526039828E+03  0.40813671092E+03  0.00000000000E+00 0.  1.
</event>
<event>
 5    1  0.6336319E-005  0.3884780E+03  0.7818608E-02  0.9762924E-01
         21   -1    0    0  501  502  0.00000000000E+00  0.00000000000E+00  0.10309341323E+04  0.10309341323E+04  0.00000000000E+00 0.  1.
          4   -1    0    0  502    0 -0.00000000000E+00 -0.00000000000E+00 -0.50737588950E+03  0.50737588950E+03  0.00000000000E+00 0.  1.
        -13    1    1    2    0    0  0.16805784566E+03 -0.55762029463E+03  0.70120331645E+03  0.91152067153E+03  0.10566000000E+00 0.  1.
         13    1    1    2    0    0 -0.61731340156E+02  0.34610213106E+03 -0.42319542860E+02  0.35410224280E+03  0.10566000000E+00 0. -1.
          4    1    1    2  501    0 -0.10632650550E+03  0.21151816357E+03 -0.13532553080E+03  0.27268710746E+03  0.00000000000E+00 0.  1.
</event>
<event>
 5    1  0.6336319E-005  0.4870782E+03  0.7818608E-02  0.9750933E-01
         -4   -1    0    0    0  501 -0.00000000000E+00  0.00000000000E+00  0.30740566033E+04  0.30740566033E+04  0.00000000000E+00 0. -1.
         21   -1    0    0  501  502  0.00000000000E+00 -0.00000000000E+00 -0.12442618163E+03  0.12442618163E+03  0.00000000000E+00 0. -1.
        -13    1    1    2    0    0  0.11904397612E+03  0.16738504318E+03  0.68458520176E+03  0.71473500723E+03  0.10566000000E+00 0.  1.
         13    1    1    2    0    0 -0.28671778288E+02 -0.58704921601E+03  0.13864283390E+04  0.15058659977E+04  0.10566000000E+00 0. -1.
         -4    1    1    2    0  502 -0.90372197829E+02  0.41966417283E+03  0.87861688092E+03  0.97788177994E+03  0.00000000000E+00 0. -1.
</event>
<event>
 5    1  0.6336319E-005  0.3564509E+03  0.7818608E-02  0.1013311E+00
          4   -1    0    0  502    0 -0.00000000000E+00  0.00000000000E+00  0.42469867523E+03  0.42469867523E+03  0.00000000000E+00 0.  1.
         21   -1    0    0  501  502  0.00000000000E+00 -0.00000000000E+00 -0.78756105642E+03  0.78756105642E+03  0.00000000000E+00 0.  1.
        -13    1    1    2    0    0 -0.37447879384E+02  0.48012341938E+03  0.13470181375E+03  0.50006542702E+03  0.10566000000E+00 0.  1.
         13    1    1    2    0    0  0.40511929364E+01 -0.14741881694E+03 -0.54740003642E+02  0.15730606764E+03  0.10566000000E+00 0. -1.
          4    1    1    2  501    0  0.33396686448E+02 -0.33270460244E+03 -0.44282419130E+03  0.55488823699E+03  0.00000000000E+00 0.  1.
</event>
<event>
 5    1  0.6336319E-005  0.3091756E+03  0.7818608E-02  0.1017131E+00
         -4   -1    0    0    0  501 -0.00000000000E+00  0.00000000000E+00  0.19276851333E+04  0.19276851333E+04  0.00000000000E+00 0. -1.
         21   -1    0    0  501  502  0.00000000000E+00 -0.00000000000E+00 -0.19685326663E+03  0.19685326663E+03  0.00000000000E+00 0.  1.
        -13    1    1    2    0    0  0.16953067173E+03  0.10637361135E+03  0.32802143880E+03  0.38425781622E+03  0.10566000000E+00 0.  1.
         13    1    1    2    0    0 -0.11052276232E+03  0.21116074335E+03  0.13970752111E+04  0.14172590790E+04  0.10566000000E+00 0. -1.
         -4    1    1    2    0  502 -0.59007909410E+02 -0.31753435471E+03  0.57352168106E+01  0.32302150471E+03  0.00000000000E+00 0. -1.
</event>
<event>
 5    1  0.6336319E-005  0.1570717E+03  0.7818608E-02  0.1094340E+00
         21   -1    0    0  501  502  0.00000000000E+00  0.00000000000E+00  0.65836627679E+02  0.65836627679E+02  0.00000000000E+00 0.  1.
         -4   -1    0    0    0  501 -0.00000000000E+00 -0.00000000000E+00 -0.11085080427E+04  0.11085080427E+04  0.00000000000E+00 0. -1.
        -13    1    1    2    0    0 -0.15981125555E+03  0.61237838468E+02 -0.10442052865E+03  0.20048283774E+03  0.10566000000E+00 0.  1.
         13    1    1    2    0    0  0.15021349511E+03 -0.39487734190E+02 -0.93728712769E+03  0.95006870602E+03  0.10566000000E+00 0. -1.
         -4    1    1    2    0  502  0.95977604378E+01 -0.21750104278E+02 -0.96375863352E+00  0.23793126575E+02  0.00000000000E+00 0. -1.
</event>
<event>
 5    1  0.6336319E-005  0.3124484E+03  0.7818608E-02  0.1002295E+00
         21   -1    0    0  501  502  0.00000000000E+00  0.00000000000E+00  0.99965621835E+02  0.99965621835E+02  0.00000000000E+00 0.  1.
          4   -1    0    0  502    0 -0.00000000000E+00 -0.00000000000E+00 -0.21230478544E+04  0.21230478544E+04  0.00000000000E+00 0.  1.
        -13    1    1    2    0    0 -0.22763061550E+03  0.21166072053E+03 -0.15952200736E+04  0.16252209241E+04  0.10566000000E+00 0.  1.
         13    1    1    2    0    0  0.20749669422E+03 -0.24300799525E+03 -0.45189383673E+03  0.55345805144E+03  0.10566000000E+00 0. -1.
          4    1    1    2  501    0  0.20133921280E+02  0.31347274714E+02  0.24031677750E+02  0.44334500714E+02  0.00000000000E+00 0.  1.
</event>
<event>
 5    1  0.6336319E-005  0.2905865E+03  0.7818608E-02  0.1014790E+00
         21   -1    0    0  501  502  0.00000000000E+00  0.00000000000E+00  0.58013832617E+03  0.58013832617E+03  0.00000000000E+00 0.  1.
          4   -1    0    0  502    0 -0.00000000000E+00 -0.00000000000E+00 -0.97847926044E+03  0.97847926044E+03  0.00000000000E+00 0.  1.
        -13    1    1    2    0    0  0.35047732305E+03 -0.15589485246E+03 -0.40615751035E+03  0.55866044551E+03  0.10566000000E+00 0.  1.
         13    1    1    2    0    0 -0.23495504494E+03 -0.11055788867E+03 -0.41348358887E+03  0.48825772837E+03  0.10566000000E+00 0. -1.
          4    1    1    2  501    0 -0.11552227812E+03  0.26645274113E+03  0.42130016495E+03  0.51169941273E+03  0.00000000000E+00 0.  1.
</event>
<event>
 5    1  0.6336319E-005  0.5029702E+03  0.7818608E-02  0.9523131E-01
          4   -1    0    0  502    0 -0.00000000000E+00  0.00000000000E+00  0.27274398290E+04  0.27274398290E+04  0.00000000000E+00 0.  1.
         21   -1    0    0  501  502  0.00000000000E+00 -0.00000000000E+00 -0.24125636325E+03  0.24125636325E+03  0.00000000000E+00 0.  1.
        -13    1    1    2    0    0 -0.12607054564E+02  0.35881738021E+03  0.49660456127E+03  0.61280090698E+03  0.10566000000E+00 0.  1.
         13    1    1    2    0    0 -0.11052565915E+03  0.40195515814E+03  0.11140711532E+04  0.11895118393E+04  0.10566000000E+00 0. -1.
          4    1    1    2  501    0  0.12313271372E+03 -0.76077253835E+03  0.87550775130E+03  0.11663834459E+04  0.00000000000E+00 0.  1.
</event>
<event>
 5    1  0.6336319E-005  0.4761335E+03  0.7818608E-02  0.9876958E-01
         21   -1    0    0  501  502  0.00000000000E+00  0.00000000000E+00  0.19102648299E+03  0.19102648299E+03  0.00000000000E+00 0.  1.
          4   -1    0    0  502    0 -0.00000000000E+00 -0.00000000000E+00 -0.17740000653E+04  0.17740000653E+04  0.00000000000E+00 0.  1.
        -13    1    1    2    0    0  0.40418387243E+03 -0.10255733769E+03 -0.93075953198E+03  0.10198999597E+04  0.10566000000E+00 0.  1.
         13    1    1    2    0    0  0.10677745560E+03  0.95389325005E+02 -0.27475841575E+03  0.30982696225E+03  0.10566000000E+00 0. -1.
          4    1    1    2  501    0 -0.51096132802E+03  0.71680126886E+01 -0.37745563456E+03  0.63529962632E+03  0.00000000000E+00 0.  1.
</event>
<event>
 5    1  0.6336319E-005  0.5034810E+03  0.7818608E-02  0.9659905E-01
         21   -1    0    0  501  502  0.00000000000E+00  0.00000000000E+00  0.48360842012E+03  0.48360842012E+03  0.00000000000E+00 0. -1.
         -4   -1    0    0    0  501 -0.00000000000E+00 -0.00000000000E+00 -0.10578490806E+04  0.10578490806E+04  0.00000000000E+00 0. -1.
        -13    1    1    2    0    0 -0.23349886067E+03 -0.10314374579E+03 -0.41329222438E+03  0.48576828235E+03  0.10566000000E+00 0.  1.
         13    1    1    2    0    0  0.60591471564E+03  0.10240827681E+03  0.68421313998E+02  0.61830541414E+03  0.10566000000E+00 0. -1.
         -4    1    1    2    0  502 -0.37241585497E+03  0.73546898767E+00 -0.22936975008E+03  0.43738380422E+03  0.00000000000E+00 0. -1.
</event>
<event>
 5    1  0.6336319E-005  0.2479485E+03  0.7818608E-02  0.1036010E+00
         -4   -1    0    0    0  501 -0.00000000000E+00  0.00000000000E+00  0.61754941673E+03  0.61754941673E+03  0.00000000000E+00 0. -1.
         21   -1    0    0  501  502  0.00000000000E+00 -0.00000000000E+00 -0.10025726140E+04  0.10025726140E+04  0.00000000000E+00 0. -1.
        -13    1    1    2    0    0  0.12993299057E+03 -0.17212616657E+03  0.31163184152E+03  0.37897811951E+03  0.10566000000E+00 0.  1.
         13    1    1    2    0    0 -0.27529315766E+03 -0.33555667068E+02  0.17893783021E+03  0.33004706285E+03  0.10566000000E+00 0. -1.
         -4    1    1    2    0  502  0.14536016709E+03  0.20568183364E+03 -0.87559286904E+03  0.91109684840E+03  0.00000000000E+00 0. -1.
</event>
<event>
 5    1  0.6336319E-005  0.8065613E+03  0.7818608E-02  0.8981280E-01
         21   -1    0    0  501  502  0.00000000000E+00  0.00000000000E+00  0.16728110922E+04  0.16728110922E+04  0.00000000000E+00 0. -1.
          4   -1    0    0  502    0 -0.00000000000E+00 -0.00000000000E+00 -0.21188882682E+04  0.21188882682E+04  0.00000000000E+00 0.  1.
        -13    1    1    2    0    0 -0.32708978065E+03  0.68643357166E+03 -0.11458019406E+04  0.13751512176E+04  0.10566000000E+00 0.  1.
         13    1    1    2    0    0  0.40792069801E+03 -0.80532769540E+03 -0.61606558131E+03  0.10929267151E+04  0.10566000000E+00 0. -1.
          4    1    1    2  501    0 -0.80830917359E+02  0.11889412374E+03  0.13157903459E+04  0.13236214278E+04  0.00000000000E+00 0.  1.
</event>
<event>
 5    1  0.6336319E-005  0.3816934E+03  0.7818608E-02  0.9916901E-01
          4   -1    0    0  502    0 -0.00000000000E+00  0.00000000000E+00  0.10295024967E+04  0.10295024967E+04  0.00000000000E+00 0.  1.
         21   -1    0    0  501  502  0.00000000000E+00 -0.00000000000E+00 -0.40047598371E+03  0.40047598371E+03  0.00000000000E+00 0.  1.
        -13    1    1    2    0    0  0.38959571888E+03 -0.22642549954E+03  0.62976197057E+03  0.77437296036E+03  0.10566000000E+00 0.  1.
         13    1    1    2    0    0 -0.10556331337E+02  0.24291028944E+03  0.10025305884E+03  0.26299720877E+03  0.10566000000E+00 0. -1.
          4    1    1    2  501    0 -0.37903938754E+03 -0.16484789905E+02 -0.10098851645E+03  0.39260831124E+03  0.00000000000E+00 0.  1.
</event>
<event>
 5    1  0.6336319E-005  0.4782560E+03  0.7818608E-02  0.9968898E-01
         21   -1    0    0  501  502  0.00000000000E+00  0.00000000000E+00  0.10133463919E+03  0.10133463919E+03  0.00000000000E+00 0.  1.
          4   -1    0    0  502    0 -0.00000000000E+00 -0.00000000000E+00 -0.31270100001E+04  0.31270100001E+04  0.00000000000E+00 0.  1.
        -13    1    1    2    0    0  0.47281031053E+03  0.12502102358E+03 -0.17374221982E+04  0.18049420357E+04  0.10566000000E+00 0.  1.
         13    1    1    2    0    0 -0.48656287253E+02  0.91942837804E+02 -0.42355927707E+03  0.43614606735E+03  0.10566000000E+00 0. -1.
          4    1    1    2  501    0 -0.42415402327E+03 -0.21696386138E+03 -0.86469388563E+03  0.98725653630E+03  0.00000000000E+00 0.  1.
</event>
<event>
 5    1  0.6336319E-005  0.4209616E+02  0.7818608E-02  0.1327802E+00
         -4   -1    0    0    0  501 -0.00000000000E+00  0.00000000000E+00  0.11648987386E+03  0.11648987386E+03  0.00000000000E+00 0. -1.
         21   -1    0    0  501  502  0.00000000000E+00 -0.00000000000E+00 -0.25100520933E+02  0.25100520933E+02  0.00000000000E+00 0.  1.
        -13    1    1    2    0    0 -0.38011020750E+02  0.25340719665E+02  0.74901796939E+02  0.87734144552E+02  0.10566000000E+00 0.  1.
         13    1    1    2    0    0  0.27068483040E+02 -0.24415622882E+02  0.20902026488E+02  0.42020605542E+02  0.10566000000E+00 0. -1.
         -4    1    1    2    0  502  0.10942537710E+02 -0.92509678263E+00 -0.44144705012E+01  0.11835644697E+02  0.00000000000E+00 0. -1.
</event>
<event>
 5    1  0.6336319E-005  0.4921127E+03  0.7818608E-02  0.9565537E-01
          4   -1    0    0  502    0 -0.00000000000E+00  0.00000000000E+00  0.33074251748E+04  0.33074251748E+04  0.00000000000E+00 0.  1.
         21   -1    0    0  501  502  0.00000000000E+00 -0.00000000000E+00 -0.37029281501E+03  0.37029281501E+03  0.00000000000E+00 0.  1.
        -13    1    1    2    0    0 -0.45896112331E+02  0.30455816094E+03  0.14079606832E+03  0.33865272853E+03  0.10566000000E+00 0.  1.
         13    1    1    2    0    0  0.15758979880E+03  0.53580682678E+03  0.22778651868E+04  0.23453343729E+04  0.10566000000E+00 0. -1.
          4    1    1    2  501    0 -0.11169368647E+03 -0.84036498771E+03  0.51847110469E+03  0.99373088841E+03  0.00000000000E+00 0.  1.
</event>
<event>
 5    1  0.6336319E-005  0.5278551E+03  0.7818608E-02  0.9458077E-01
         -4   -1    0    0    0  501 -0.00000000000E+00  0.00000000000E+00  0.13234648818E+04  0.13234648818E+04  0.00000000000E+00 0. -1.
         21   -1    0    0  501  502  0.00000000000E+00 -0.00000000000E+00 -0.73896907575E+03  0.73896907575E+03  0.00000000000E+00 0. -1.
        -13    1    1    2    0    0  0.48396281496E+03  0.29596279977E+03  0.71031484080E+03  0.90904409647E+03  0.10566000000E+00 0.  1.
         13    1    1    2    0    0  0.73908073909E+02 -0.51076310701E+03  0.77702522008E+02  0.52189946155E+03  0.10566000000E+00 0. -1.
         -4    1    1    2    0  502 -0.55787088887E+03  0.21480030725E+03 -0.20352155674E+03  0.63149039953E+03  0.00000000000E+00 0. -1.
</event>
<event>
 5    1  0.6336319E-005  0.6853546E+03  0.7818608E-02  0.9144498E-01
         21   -1    0    0  501  502  0.00000000000E+00  0.00000000000E+00  0.43188402713E+03  0.43188402713E+03  0.00000000000E+00 0.  1.
          4   -1    0    0  502    0 -0.00000000000E+00 -0.00000000000E+00 -0.22229266938E+04  0.22229266938E+04  0.00000000000E+00 0.  1.
        -13    1    1    2    0    0 -0.25159427526E+03  0.72145953073E+03 -0.89149226892E+03  0.11741218040E+04  0.10566000000E+00 0.  1.
         13    1    1    2    0    0  0.52321244381E+03 -0.41920863546E+03 -0.83238919240E+03  0.10688119199E+04  0.10566000000E+00 0. -1.
          4    1    1    2  501    0 -0.27161816855E+03 -0.30225089527E+03 -0.67161205352E+02  0.41187699703E+03  0.00000000000E+00 0.  1.
</event>
<event>
 5    1  0.6336319E-005  0.6855784E+02  0.7818608E-02  0.1230563E+00
         -4   -1    0    0    0  501 -0.00000000000E+00  0.00000000000E+00  0.51891535931E+02  0.51891535931E+02  0.00000000000E+00 0. -1.
         21   -1    0    0  501  502  0.00000000000E+00 -0.00000000000E+00 -0.14783688112E+03  0.14783688112E+03  0.00000000000E+00 0.  1.
        -13    1    1    2    0    0  0.71766331125E+02 -0.15731770747E+02 -0.78200546330E+02  0.10729972742E+03  0.10566000000E+00 0.  1.
         13    1    1    2    0    0 -0.67275746537E+02 -0.70090508080E+00  0.75044493768E+00  0.67283665712E+02  0.10566000000E+00 0. -1.
         -4    1    1    2    0  502 -0.44905845879E+01  0.16432675828E+02 -0.18495243800E+02  0.25145023922E+02  0.00000000000E+00 0. -1.
</event>
<event>
 5    1  0.6336319E-005  0.4506491E+03  0.7818608E-02  0.9689353E-01
         21   -1    0    0  501  502  0.00000000000E+00  0.00000000000E+00  0.10463419089E+04  0.10463419089E+04  0.00000000000E+00 0.  1.
          4   -1    0    0  502    0 -0.00000000000E+00 -0.00000000000E+00 -0.44897242786E+03  0.44897242786E+03  0.00000000000E+00 0.  1.
        -13    1    1    2    0    0 -0.36135028637E+03 -0.21835545306E+02  0.25585817216E+03  0.44329926227E+03  0.10566000000E+00 0.  1.
         13    1    1    2    0    0 -0.30404454321E+03  0.10327834695E+03  0.69331780447E+02  0.32850632893E+03  0.10566000000E+00 0. -1.
          4    1    1    2  501    0  0.66539482958E+03 -0.81442801640E+02  0.27217952840E+03  0.72350874553E+03  0.00000000000E+00 0.  1.
</event>
<event>
 5    1  0.6336319E-005  0.7164617E+03  0.7818608E-02  0.9104977E-01
         -4   -1    0    0    0  501 -0.00000000000E+00  0.00000000000E+00  0.28586372864E+04  0.28586372864E+04  0.00000000000E+00 0. -1.
         21   -1    0    0  501  502  0.00000000000E+00 -0.00000000000E+00 -0.55983293131E+03  0.55983293131E+03  0.00000000000E+00 0. -1.
        -13    1    1    2    0    0 -0.78778190896E+03  0.34540567438E+03  0.18428108648E+04  0.20336807297E+04  0.10566000000E+00 0.  1.
         13    1    1    2    0    0  0.64866639597E+02 -0.39115724804E+03 -0.16617216987E+03  0.42991263627E+03  0.10566000000E+00 0. -1.
         -4    1    1    2    0  502  0.72291526937E+03  0.45751573657E+02  0.62216566015E+03  0.95487685166E+03  0.00000000000E+00 0. -1.
</event>
<event>
 5    1  0.6336319E-005  0.4791379E+03  0.7818608E-02  0.9751653E-01
          4   -1    0    0  502    0 -0.00000000000E+00  0.00000000000E+00  0.28110103406E+03  0.28110103406E+03  0.00000000000E+00 0.  1.
         21   -1    0    0  501  502  0.00000000000E+00 -0.00000000000E+00 -0.18506598173E+04  0.18506598173E+04  0.00000000000E+00 0.  1.
        -13    1    1    2    0    0 -0.52114603196E+03 -0.18758863183E+03 -0.14139017825E+04  0.15185193259E+04  0.10566000000E+00 0.  1.
         13    1    1    2    0    0  0.20827506762E+03  0.54341041777E+02  0.42862559020E+02  0.21947360375E+03  0.10566000000E+00 0. -1.
          4    1    1    2  501    0  0.31287096435E+03  0.13324759005E+03 -0.19851955985E+03  0.39376792179E+03  0.00000000000E+00 0.  1.
</event>
<event>
 5    1  0.6336319E-005  0.4878964E+03  0.7818608E-02  0.9544836E-01
         -4   -1    0    0    0  501 -0.00000000000E+00  0.00000000000E+00  0.22392114182E+04  0.22392114182E+04  0.00000000000E+00 0. -1.
         21   -1    0    0  501  502  0.00000000000E+00 -0.00000000000E+00 -0.28074399094E+03  0.28074399094E+03  0.00000000000E+00 0.  1.
        -13    1    1    2    0    0 -0.60388418667E+02  0.52091948671E+03  0.60327268372E+03  0.79933836066E+03  0.10566000000E+00 0.  1.
         13    1    1    2    0    0 -0.29729083812E+03  0.39174814867E+01  0.87575034322E+03  0.92484369701E+03  0.10566000000E+00 0. -1.
         -4    1    1    2    0  502  0.35767925679E+03 -0.52483696820E+03  0.47944440035E+03  0.79577335150E+03  0.00000000000E+00 0. -1.
</event>
<event>
 5    1  0.6336319E-005  0.1487368E+03  0.7818608E-02  0.1102364E+00
         -4   -1    0    0    0  501 -0.00000000000E+00  0.00000000000E+00  0.35472361226E+03  0.35472361226E+03  0.00000000000E+00 0. -1.
         21   -1    0    0  501  502  0.00000000000E+00 -0.00000000000E+00 -0.43370655421E+03  0.43370655421E+03  0.00000000000E+00 0. -1.
        -13    1    1    2    0    0 -0.12637386993E+03  0.56584444950E+02  0.18411450243E+03  0.23036995373E+03  0.10566000000E+00 0.  1.
         13    1    1    2    0    0  0.14755517056E+03 -0.88181373421E+02  0.96044928032E+02  0.19690891890E+03  0.10566000000E+00 0. -1.
         -4    1    1    2    0  502 -0.21181300628E+02  0.31596928471E+02 -0.35914237241E+03  0.36115129385E+03  0.00000000000E+00 0. -1.
</event>
<event>
 5    1  0.6336319E-005  0.1382074E+03  0.7818608E-02  0.1113362E+00
         21   -1    0    0  501  502  0.00000000000E+00  0.00000000000E+00  0.76940833749E+03  0.76940833749E+03  0.00000000000E+00 0. -1.
         -4   -1    0    0    0  501 -0.00000000000E+00 -0.00000000000E+00 -0.23028023580E+03  0.23028023580E+03  0.00000000000E+00 0. -1.
        -13    1    1    2    0    0 -0.22160138549E+02  0.97145319838E+02  0.30800685904E+02  0.10429275298E+03  0.10566000000E+00 0.  1.
         13    1    1    2    0    0  0.58608789097E+02 -0.14561140949E+03 -0.16010828481E+03  0.22421495660E+03  0.10566000000E+00 0. -1.
         -4    1    1    2    0  502 -0.36448650549E+02  0.48466089656E+02  0.66843570060E+03  0.67118086371E+03  0.00000000000E+00 0. -1.
</event>
<event>
 5    1  0.6336319E-005  0.4188036E+03  0.7818608E-02  0.9685819E-01
         21   -1    0    0  501  502  0.00000000000E+00  0.00000000000E+00  0.56776005033E+03  0.56776005033E+03  0.00000000000E+00 0. -1.
         -4   -1    0    0    0  501 -0.00000000000E+00 -0.00000000000E+00 -0.23221849446E+04  0.23221849446E+04  0.00000000000E+00 0. -1.
        -13    1    1    2    0    0 -0.20687527804E+03  0.34821732584E+03 -0.17545549315E+04  0.18006986715E+04  0.10566000000E+00 0.  1.
         13    1    1    2    0    0 -0.25686715001E+03 -0.29321879471E+03 -0.33537228085E+03  0.51423007716E+03  0.10566000000E+00 0. -1.
         -4    1    1    2    0  502  0.46374242805E+03 -0.54998531134E+02  0.33550231812E+03  0.57501624626E+03  0.00000000000E+00 0. -1.
</event>
<event>
 5    1  0.6336319E-005  0.3587981E+02  0.7818608E-02  0.1363089E+00
         -4   -1    0    0    0  501 -0.00000000000E+00  0.00000000000E+00  0.20325365617E+02  0.20325365617E+02  0.00000000000E+00 0. -1.
         21   -1    0    0  501  502  0.00000000000E+00 -0.00000000000E+00 -0.31464743684E+03  0.31464743684E+03  0.00000000000E+00 0.  1.
        -13    1    1    2    0    0  0.52077637760E+02 -0.97719536127E+01 -0.20386306155E+03  0.21063648891E+03  0.10566000000E+00 0.  1.
         13    1    1    2    0    0 -0.34407927422E+02 -0.24578898463E+00 -0.29886071763E+01  0.34538512107E+02  0.10566000000E+00 0. -1.
         -4    1    1    2    0  502 -0.17669710338E+02  0.10017742597E+02 -0.87470402495E+02  0.89797801436E+02  0.00000000000E+00 0. -1.
</event>
<event>
 5    1  0.6336319E-005  0.2614122E+03  0.7818608E-02  0.1034480E+00
         -4   -1    0    0    0  501 -0.00000000000E+00  0.00000000000E+00  0.16499173180E+04  0.16499173180E+04  0.00000000000E+00 0. -1.
         21   -1    0    0  501  502  0.00000000000E+00 -0.00000000000E+00 -0.32039789823E+03  0.32039789823E+03  0.00000000000E+00 0. -1.
        -13    1    1    2    0    0  0.73587678083E+01 -0.19269896730E+03  0.78661543699E+03  0.80990795794E+03  0.10566000000E+00 0.  1.
         13    1    1    2    0    0 -0.12436887095E+03  0.41219816179E+03  0.73112505781E+03  0.84848028967E+03  0.10566000000E+00 0. -1.
         -4    1    1    2    0  502  0.11701010314E+03 -0.21949919449E+03 -0.18822107508E+03  0.31192696857E+03  0.00000000000E+00 0. -1.
</event>
<event>
 5    1  0.6336319E-005  0.4535685E+03  0.7818608E-02  0.9585994E-01
         21   -1    0    0  501  502  0.00000000000E+00  0.00000000000E+00  0.41013172116E+03  0.41013172116E+03  0.00000000000E+00 0. -1.
         -4   -1    0    0    0  501 -0.00000000000E+00 -0.00000000000E+00 -0.17228158136E+04  0.17228158136E+04  0.00000000000E+00 0. -1.
        -13    1    1    2    0    0  0.28041209867E+03  0.34169293522E+03 -0.86571952775E+03  0.97203668601E+03  0.10566000000E+00 0.  1.
         13    1    1    2    0    0 -0.81865965214E+02 -0.58646069936E+03  0.25815372725E+02  0.59270956866E+03  0.10566000000E+00 0. -1.
         -4    1    1    2    0  502 -0.19854613345E+03  0.24476776414E+03 -0.47277993743E+03  0.56820128010E+03  0.00000000000E+00 0. -1.
</event>
<event>
 5    1  0.6336319E-005  0.4797545E+03  0.7818608E-02  0.9678470E-01
         -4   -1    0    0    0  501 -0.00000000000E+00  0.00000000000E+00  0.29091026090E+04  0.29091026090E+04  0.00000000000E+00 0. -1.
         21   -1    0    0  501  502  0.00000000000E+00 -0.00000000000E+00 -0.16213565340E+03  0.16213565340E+03  0.00000000000E+00 0. -1.
        -13    1    1    2    0    0  0.27264274511E+03  0.45745627322E+02  0.10237279816E+04  0.10603988497E+04  0.10566000000E+00 0.  1.
         13    1    1    2    0    0  0.91153094284E+02  0.37049764733E+03  0.11620970731E+04  0.12231300060E+04  0.10566000000E+00 0. -1.
         -4    1    1    2    0  502 -0.36379583939E+03 -0.41624327465E+03  0.56114190096E+03  0.78770940674E+03  0.00000000000E+00 0. -1.
</event>
<event>
 5    1  0.6336319E-005  0.2390169E+03  0.7818608E-02  0.1062230E+00
         21   -1    0    0  501  502  0.00000000000E+00  0.00000000000E+00  0.27152526516E+03  0.27152526516E+03  0.00000000000E+00 0. -1.
         -4   -1    0    0    0  501 -0.00000000000E+00 -0.00000000000E+00 -0.28345197934E+04  0.28345197934E+04  0.00000000000E+00 0. -1.
        -13    1    1    2    0    0  0.36721426098E+02  0.35001579491E+03 -0.75530403867E+03  0.83327289756E+03  0.10566000000E+00 0.  1.
         13    1    1    2    0    0 -0.10846693323E+03  0.11598533984E+03  0.17411285627E+03  0.23565434973E+03  0.10566000000E+00 0. -1.
         -4    1    1    2    0  502  0.71745507136E+02 -0.46600113475E+03 -0.19818033458E+04  0.20371178112E+04  0.00000000000E+00 0. -1.
</event>
<event>
 5    1  0.6336319E-005  0.5894454E+02  0.7818608E-02  0.1259125E+00
         21   -1    0    0  501  502  0.00000000000E+00  0.00000000000E+00  0.15934823284E+03  0.15934823284E+03  0.00000000000E+00 0.  1.
         -4   -1    0    0    0  501 -0.00000000000E+00 -0.00000000000E+00 -0.77300530645E+02  0.77300530645E+02  0.00000000000E+00 0. -1.
        -13    1    1    2    0    0 -0.16678816193E+02 -0.74701515885E+02  0.58810008736E+02  0.96525269628E+02  0.10566000000E+00 0.  1.
         13    1    1    2    0    0 -0.14009745838E+02  0.55053997662E+02 -0.38365309623E+02  0.68550155241E+02  0.10566000000E+00 0. -1.
         -4    1    1    2    0  502  0.30688562032E+02  0.19647518223E+02  0.61603003084E+02  0.71573338618E+02  0.00000000000E+00 0. -1.
</event>
<event>
 5    1  0.6336319E-005  0.5954462E+03  0.7818608E-02  0.9290243E-01
          4   -1    0    0  502    0 -0.00000000000E+00  0.00000000000E+00  0.16839086962E+04  0.16839086962E+04  0.00000000000E+00 0.  1.
         21   -1    0    0  501  502  0.00000000000E+00 -0.00000000000E+00 -0.56605404043E+03  0.56605404043E+03  0.00000000000E+00 0.  1.
        -13    1    1    2    0    0 -0.29655914400E+03  0.67520547091E+03  0.32951719168E+03  0.80773222333E+03  0.10566000000E+00 0.  1.
         13    1    1    2    0    0  0.43429495051E+03 -0.36286365111E+03  0.91687461772E+03  0.10774698182E+04  0.10566000000E+00 0. -1.
          4    1    1    2  501    0 -0.13773580652E+03 -0.31234181979E+03 -0.12853715367E+03  0.36476069506E+03  0.00000000000E+00 0.  1.
</event>
<event>
 5    1  0.6336319E-005  0.6278365E+03  0.7818608E-02  0.9234799E-01
         -4   -1    0    0    0  501 -0.00000000000E+00  0.00000000000E+00  0.34252692775E+04  0.34252692775E+04  0.00000000000E+00 0. -1.
         21   -1    0    0  501  502  0.00000000000E+00 -0.00000000000E+00 -0.64637889412E+03  0.64637889412E+03  0.00000000000E+00 0. -1.
        -13    1    1    2    0    0  0.55283512385E+03  0.34684723653E+03  0.10708201077E+04  0.12540276687E+04  0.10566000000E+00 0.  1.
         13    1    1    2    0    0 -0.52333324738E+03 -0.32581615784E+03  0.22202072488E+04  0.23042035707E+04  0.10566000000E+00 0. -1.
         -4    1    1    2    0  502 -0.29501876472E+02 -0.21031078688E+02 -0.51213697314E+03  0.51341693218E+03  0.00000000000E+00 0. -1.
</event>
<event>
 5    1  0.6336319E-005  0.4224253E+02  0.7818608E-02  0.1327056E+00
         21   -1    0    0  501  502  0.00000000000E+00  0.00000000000E+00  0.94227699158E+02  0.94227699158E+02  0.00000000000E+00 0. -1.
         -4   -1    0    0    0  501 -0.00000000000E+00 -0.00000000000E+00 -0.19086688662E+03  0.19086688662E+03  0.00000000000E+00 0. -1.
        -13    1    1    2    0    0  0.27786052152E+02 -0.14062270168E+02 -0.13528828509E+02  0.33953681705E+02  0.10566000000E+00 0.  1.
         13    1    1    2    0    0 -0.44046095611E+02  0.12608242588E+02 -0.16314619789E+03  0.16945713136E+03  0.10566000000E+00 0. -1.
         -4    1    1    2    0  502  0.16260043459E+02  0.14540275799E+01  0.80035838938E+02  0.81683772709E+02  0.00000000000E+00 0. -1.
</event>
<event>
 5    1  0.6336319E-005  0.4892073E+03  0.7818608E-02  0.9660192E-01
         21   -1    0    0  501  502  0.00000000000E+00  0.00000000000E+00  0.36038654247E+03  0.36038654247E+03  0.00000000000E+00 0.  1.
          4   -1    0    0  502    0 -0.00000000000E+00 -0.00000000000E+00 -0.12286643796E+04  0.12286643796E+04  0.00000000000E+00 0.  1.
        -13    1    1    2    0    0  0.54151717944E+02 -0.53886816204E+03 -0.27655824159E+03  0.60810835940E+03  0.10566000000E+00 0.  1.
         13    1    1    2    0    0  0.23037794508E+03  0.15557247041E+03 -0.34666285515E+03  0.44435564297E+03  0.10566000000E+00 0. -1.
          4    1    1    2  501    0 -0.28452966303E+03  0.38329569163E+03 -0.24505674036E+03  0.53658691967E+03  0.00000000000E+00 0.  1.
</event>
<event>
 5    1  0.6336319E-005  0.4848013E+03  0.7818608E-02  0.9967451E-01
         21   -1    0    0  501  502  0.00000000000E+00  0.00000000000E+00  0.11202998960E+03  0.11202998960E+03  0.00000000000E+00 0.  1.
          4   -1    0    0  502    0 -0.00000000000E+00 -0.00000000000E+00 -0.26433637414E+04  0.26433637414E+04  0.00000000000E+00 0.  1.
        -13    1    1    2    0    0  0.48426700089E+03  0.51325096451E+02 -0.13377594267E+04  0.14236393815E+04  0.10566000000E+00 0.  1.
         13    1    1    2    0    0  0.91382929029E+00 -0.10034075276E+03 -0.15907568288E+03  0.18808026424E+03  0.10566000000E+00 0. -1.
          4    1    1    2  501    0 -0.48518083018E+03  0.49015656306E+02 -0.10344986423E+04  0.11436740853E+04  0.00000000000E+00 0.  1.
</event>
<event>
 5    1  0.6336319E-005  0.1814413E+03  0.7818608E-02  0.1073662E+00
         21   -1    0    0  501  502  0.00000000000E+00  0.00000000000E+00  0.87662505981E+02  0.87662505981E+02  0.00000000000E+00 0.  1.
          4   -1    0    0  502    0 -0.00000000000E+00 -0.00000000000E+00 -0.82466095535E+03  0.82466095535E+03  0.00000000000E+00 0.  1.
        -13    1    1    2    0    0  0.12578647372E+03  0.11996859594E+03 -0.34627307230E+03  0.38745290391E+03  0.10566000000E+00 0.  1.
         13    1    1    2    0    0 -0.14638917255E+03 -0.11947158740E+03 -0.43596865665E+03  0.47515463881E+03  0.10566000000E+00 0. -1.
          4    1    1    2  501    0  0.20602698827E+02 -0.49700854668E+00  0.45243279581E+02  0.49715918614E+02  0.00000000000E+00 0.  1.
</event>
<event>
 5    1  0.6336319E-005  0.2569915E+03  0.7818608E-02  0.1033811E+00
          4   -1    0    0  502    0 -0.00000000000E+00  0.00000000000E+00  0.92512105294E+03  0.92512105294E+03  0.00000000000E+00 0.  1.
         21   -1    0    0  501  502  0.00000000000E+00 -0.00000000000E+00 -0.51639176281E+03  0.51639176281E+03  0.00000000000E+00 0.  1.
        -13    1    1    2    0    0 -0.97062889507E+02 -0.33985237018E+03  0.44403381077E+03  0.56752698113E+03  0.10566000000E+00 0.  1.
         13    1    1    2    0    0 -0.10121813573E+03  0.18076051473E+03  0.35333242684E+03  0.40958917186E+03  0.10566000000E+00 0. -1.
          4    1    1    2  501    0  0.19828102523E+03  0.15909185545E+03 -0.38863694748E+03  0.46439666277E+03  0.00000000000E+00 0.  1.
</event>
<event>
 5    1  0.6336319E-005  0.3304391E+03  0.7818608E-02  0.9954781E-01
         21   -1    0    0  501  502  0.00000000000E+00  0.00000000000E+00  0.51681983832E+03  0.51681983832E+03  0.00000000000E+00 0.  1.
          4   -1    0    0  502    0 -0.00000000000E+00 -0.00000000000E+00 -0.14341562209E+04  0.14341562209E+04  0.00000000000E+00 0.  1.
        -13    1    1    2    0    0  0.48317643430E+02  0.30562644444E+03 -0.54460762742E+03  0.62637017587E+03  0.10566000000E+00 0.  1.
         13    1    1    2    0    0 -0.45023138256E+02 -0.34604152346E+03 -0.81182214042E+03  0.88364416921E+03  0.10566000000E+00 0. -1.
          4    1    1    2  501    0 -0.32945051737E+01  0.40415079025E+02  0.43909338525E+03  0.44096171415E+03  0.00000000000E+00 0.  1.
</event>
<event>
 5    1  0.6336319E-005  0.4772451E+03  0.7818608E-02  0.9529291E-01
         21   -1    0    0  501  502  0.00000000000E+00  0.00000000000E+00  0.33000038692E+03  0.33000038692E+03  0.00000000000E+00 0. -1.
          4   -1    0    0  502    0 -0.00000000000E+00 -0.00000000000E+00 -0.83017432735E+03  0.83017432735E+03  0.00000000000E+00 0.  1.
        -13    1    1    2    0    0  0.30242145239E+03 -0.38391089967E+03 -0.40443302541E+03  0.63435983240E+03  0.10566000000E+00 0.  1.
         13    1    1    2    0    0 -0.27307003194E+03  0.37023010576E+03 -0.13061555555E+03  0.47822380542E+03  0.10566000000E+00 0. -1.
          4    1    1    2  501    0 -0.29351420455E+02  0.13680793907E+02  0.34874640538E+02  0.47591076446E+02  0.00000000000E+00 0.  1.
</event>
<event>
 5    1  0.6336319E-005  0.1542792E+03  0.7818608E-02  0.1096966E+00
          4   -1    0    0  502    0 -0.00000000000E+00  0.00000000000E+00  0.39356397945E+02  0.39356397945E+02  0.00000000000E+00 0.  1.
         21   -1    0    0  501  502  0.00000000000E+00 -0.00000000000E+00 -0.73083524978E+03  0.73083524978E+03  0.00000000000E+00 0. -1.
        -13    1    1    2    0    0  0.16532986252E+03 -0.14549242201E+02 -0.30353833748E+03  0.34594967463E+03  0.10566000000E+00 0.  1.
         13    1    1    2    0    0 -0.14305897769E+03  0.87971994248E+01 -0.28807234459E+03  0.32175914703E+03  0.10566000000E+00 0. -1.
          4    1    1    2  501    0 -0.22270884830E+02  0.57520427763E+01 -0.99868169761E+02  0.10248282607E+03  0.00000000000E+00 0.  1.
</event>
<event>
 5    1  0.6336319E-005  0.4664776E+03  0.7818608E-02  0.9727904E-01
         21   -1    0    0  501  502  0.00000000000E+00  0.00000000000E+00  0.17665854551E+03  0.17665854551E+03  0.00000000000E+00 0.  1.
          4   -1    0    0  502    0 -0.00000000000E+00 -0.00000000000E+00 -0.30673392475E+04  0.30673392475E+04  0.00000000000E+00 0.  1.
        -13    1    1    2    0    0 -0.46753299866E+03  0.27366453344E+03 -0.36912741807E+03  0.65554133633E+03  0.10566000000E+00 0.  1.
         13    1    1    2    0    0  0.16404418624E+03 -0.19287387646E+03 -0.14455203963E+04  0.14675285532E+04  0.10566000000E+00 0. -1.
          4    1    1    2  501    0  0.30348881243E+03 -0.80790656985E+02 -0.10760328876E+04  0.11209279034E+04  0.00000000000E+00 0.  1.
</event>
<event>
 5    1  0.6336319E-005  0.2690535E+02  0.7818608E-02  0.1431627E+00
         21   -1    0    0  501  502  0.00000000000E+00  0.00000000000E+00  0.15337203959E+03  0.15337203959E+03  0.00000000000E+00 0. -1.
         -4   -1    0    0    0  501 -0.00000000000E+00 -0.00000000000E+00 -0.55330464185E+02  0.55330464185E+02  0.00000000000E+00 0. -1.
        -13    1    1    2    0    0 -0.18736242854E+02  0.13729478889E+01  0.58772503841E+01  0.19684639145E+02  0.10566000000E+00 0.  1.
         13    1    1    2    0    0  0.29094481460E+02 -0.70404659609E+01 -0.43519868152E+02  0.52820896436E+02  0.10566000000E+00 0. -1.
         -4    1    1    2    0  502 -0.10358238606E+02  0.56675180720E+01  0.13568419317E+03  0.13619696819E+03  0.00000000000E+00 0. -1.
</event>
<event>
 5    1  0.6336319E-005  0.9451857E+02  0.7818608E-02  0.1173958E+00
         -4   -1    0    0    0  501 -0.00000000000E+00  0.00000000000E+00  0.12844918730E+03  0.12844918730E+03  0.00000000000E+00 0. -1.
         21   -1    0    0  501  502  0.00000000000E+00 -0.00000000000E+00 -0.15684233025E+03  0.15684233025E+03  0.00000000000E+00 0. -1.
        -13    1    1    2    0    0 -0.77081509442E+02  0.23777514315E+01 -0.76176829931E+02  0.10839803219E+03  0.10566000000E+00 0.  1.
         13    1    1    2    0    0  0.97392790783E+02 -0.17420704549E+02  0.85989330234E+02  0.13108399110E+03  0.10566000000E+00 0. -1.
         -4    1    1    2    0  502 -0.20311281341E+02  0.15042953118E+02 -0.38205643252E+02  0.45809494262E+02  0.00000000000E+00 0. -1.
</event>
<event>
 5    1  0.6336319E-005  0.3173300E+02  0.7818608E-02  0.1391510E+00
         21   -1    0    0  501  502  0.00000000000E+00  0.00000000000E+00  0.39140603763E+02  0.39140603763E+02  0.00000000000E+00 0.  1.
          4   -1    0    0  502    0 -0.00000000000E+00 -0.00000000000E+00 -0.18125001515E+03  0.18125001515E+03  0.00000000000E+00 0.  1.
        -13    1    1    2    0    0 -0.16593649401E+02 -0.32178075731E+02 -0.12157974059E+03  0.12685591135E+03  0.10566000000E+00 0.  1.
         13    1    1    2    0    0 -0.86415357546E+00  0.27930537472E+02 -0.51004439744E+02  0.58157765797E+02  0.10566000000E+00 0. -1.
          4    1    1    2  501    0  0.17457802977E+02  0.42475382591E+01  0.30474768949E+02  0.35376941764E+02  0.00000000000E+00 0.  1.
</event>
<event>
 5    1  0.6336319E-005  0.4596719E+03  0.7818608E-02  0.9792638E-01
         21   -1    0    0  501  502  0.00000000000E+00  0.00000000000E+00  0.34836195938E+03  0.34836195938E+03  0.00000000000E+00 0. -1.
         -4   -1    0    0    0  501 -0.00000000000E+00 -0.00000000000E+00 -0.11470346031E+04  0.11470346031E+04  0.00000000000E+00 0. -1.
        -13    1    1    2    0    0 -0.18444555835E+03 -0.10405457557E+03 -0.34884138563E+03  0.40809048284E+03  0.10566000000E+00 0.  1.
         13    1    1    2    0    0  0.53623912924E+02  0.52289013454E+03 -0.36619439253E+03  0.64061529885E+03  0.10566000000E+00 0. -1.
         -4    1    1    2    0  502  0.13082164542E+03 -0.41883555897E+03 -0.83636865568E+02  0.44669078080E+03  0.00000000000E+00 0. -1.
</event>
<event>
 5    1  0.6336319E-005  0.3050781E+03  0.7818608E-02  0.1005231E+00
         21   -1    0    0  501  502  0.00000000000E+00  0.00000000000E+00  0.41866784061E+02  0.41866784061E+02  0.00000000000E+00 0.  1.
         -4   -1    0    0    0  501 -0.00000000000E+00 -0.00000000000E+00 -0.24740467191E+04  0.24740467191E+04  0.00000000000E+00 0. -1.
        -13    1    1    2    0    0 -0.26807596510E+03 -0.13476411718E+03 -0.11536112013E+04  0.11919919905E+04  0.10566000000E+00 0.  1.
         13    1    1    2    0    0  0.28169537568E+03  0.12956634690E+03 -0.12693559197E+04  0.13066767714E+04  0.10566000000E+00 0. -1.
         -4    1    1    2    0  502 -0.13619410574E+02  0.51977702816E+01 -0.92128140568E+01  0.17244741318E+02  0.00000000000E+00 0. -1.
</event>
<event>
 5    1  0.6336319E-005  0.3421421E+03  0.7818608E-02  0.1006720E+00
         21   -1    0    0  501  502  0.00000000000E+00  0.00000000000E+00  0.30806419398E+03  0.30806419398E+03  0.00000000000E+00 0.  1.
          4   -1    0    0  502    0 -0.00000000000E+00 -0.00000000000E+00 -0.18106744043E+04  0.18106744043E+04  0.00000000000E+00 0.  1.
        -13    1    1    2    0    0  0.30566804977E+03 -0.76160221968E+02  0.87104188016E+02  0.32683403555E+03  0.10566000000E+00 0.  1.
         13    1    1    2    0    0  0.16500002525E+03 -0.12350755501E+03 -0.95448147000E+03  0.97648042080E+03  0.10566000000E+00 0. -1.
          4    1    1    2  501    0 -0.47066807502E+03  0.19966777697E+03 -0.63523292837E+03  0.81542414196E+03  0.00000000000E+00 0.  1.
</event>
<event>
 5    1  0.6336319E-005  0.1599390E+03  0.7818608E-02  0.1091703E+00
         -4   -1    0    0    0  501 -0.00000000000E+00  0.00000000000E+00  0.10824551926E+04  0.10824551926E+04  0.00000000000E+00 0. -1.
         21   -1    0    0  501  502  0.00000000000E+00 -0.00000000000E+00 -0.35117329478E+02  0.35117329478E+02  0.00000000000E+00 0.  1.
        -13    1    1    2    0    0 -0.63766873119E+02 -0.16116560249E+03  0.31314363599E+03  0.35790992366E+03  0.10566000000E+00 0.  1.
         13    1    1    2    0    0  0.39907814116E+02  0.14993370514E+03  0.69705268415E+03  0.71411147954E+03  0.10566000000E+00 0. -1.
         -4    1    1    2    0  502  0.23859059003E+02  0.11231897353E+02  0.37141542941E+02  0.45551118830E+02  0.00000000000E+00 0. -1.
</event>
<event>
 5    1  0.6336319E-005  0.3926590E+03  0.7818608E-02  0.9750489E-01
         21   -1    0    0  501  502  0.00000000000E+00  0.00000000000E+00  0.13287048446E+04  0.13287048446E+04  0.00000000000E+00 0. -1.
          4   -1    0    0  502    0 -0.00000000000E+00 -0.00000000000E+00 -0.17537356770E+03  0.17537356770E+03  0.00000000000E+00 0.  1.
        -13    1    1    2    0    0 -0.42892954116E+03 -0.50488422526E+02  0.83910889663E+03  0.94373374617E+03  0.10566000000E+00 0.  1.
         13    1    1    2    0    0  0.37312443825E+03  0.68028005169E+02  0.19257694529E+03  0.42536519243E+03  0.10566000000E+00 0. -1.
          4    1    1    2  501    0  0.55805102902E+02 -0.17539582643E+02  0.12164543500E+03  0.13497947372E+03  0.00000000000E+00 0.  1.
</event>
<event>
 5    1  0.6336319E-005  0.3307210E+03  0.7818608E-02  0.9953750E-01
         -4   -1    0    0    0  501 -0.00000000000E+00  0.00000000000E+00  0.24711816001E+04  0.24711816001E+04  0.00000000000E+00 0. -1.
         21   -1    0    0  501  502  0.00000000000E+00 -0.00000000000E+00 -0.28646223533E+03  0.28646223533E+03  0.00000000000E+00 0. -1.
        -13    1    1    2    0    0  0.78073293889E+02 -0.27670693565E+03  0.24529130265E+03  0.37792856703E+03  0.10566000000E+00 0.  1.
         13    1    1    2    0    0 -0.26200948183E+03  0.23005380813E+03  0.21014595824E+04  0.21301892195E+04  0.10566000000E+00 0. -1.
         -4    1    1    2    0  502  0.18393618794E+03  0.46653127521E+02 -0.16203152026E+03  0.24952604894E+03  0.00000000000E+00 0. -1.
</event>
<event>
 5    1  0.6336319E-005  0.5518968E+02  0.7818608E-02  0.1299165E+00
          4   -1    0    0  502    0 -0.00000000000E+00  0.00000000000E+00  0.56845818701E+02  0.56845818701E+02  0.00000000000E+00 0.  1.
         21   -1    0    0  501  502  0.00000000000E+00 -0.00000000000E+00 -0.33294731272E+03  0.33294731272E+03  0.00000000000E+00 0.  1.
        -13    1    1    2    0    0  0.54917651004E+02  0.98533436800E+01 -0.28293551483E+03  0.28838438496E+03  0.10566000000E+00 0.  1.
         13    1    1    2    0    0 -0.57586975133E+01 -0.31670600100E+02 -0.23320013702E+02  0.39749512083E+02  0.10566000000E+00 0. -1.
          4    1    1    2  501    0 -0.49158953490E+02  0.21817256420E+02  0.30154034517E+02  0.61659234374E+02  0.00000000000E+00 0.  1.
</event>
<event>
 5    1  0.6526684E-005  0.4971499E+03  0.7818608E-02  0.9489885E-01
         21   -1    0    0  501  502  0.00000000000E+00  0.00000000000E+00  0.49238095960E+03  0.49238095960E+03  0.00000000000E+00 0.  1.
          4   -1    0    0  502    0 -0.00000000000E+00 -0.00000000000E+00 -0.22199916501E+04  0.22199916501E+04  0.00000000000E+00 0.  1.
        -13    1    1    2    0    0 -0.22172037153E+03  0.90155641211E+02 -0.36264925352E+03  0.43451404469E+03  0.10566000000E+00 0.  1.
         13    1    1    2    0    0 -0.26490733023E+03  0.40868466305E+03 -0.14920095052E+04  0.15694876305E+04  0.10566000000E+00 0. -1.
          4    1    1    2  501    0  0.48662770176E+03 -0.49884030427E+03  0.12704806821E+03  0.70837093455E+03  0.00000000000E+00 0.  1.
</event>
<event>
 5    1  0.6336319E-005  0.4730424E+03  0.7818608E-02  0.9990513E-01
         21   -1    0    0  501  502  0.00000000000E+00  0.00000000000E+00  0.12917043341E+03  0.12917043341E+03  0.00000000000E+00 0. -1.
         -4   -1    0    0    0  501 -0.00000000000E+00 -0.00000000000E+00 -0.24368151078E+04  0.24368151078E+04  0.00000000000E+00 0. -1.
        -13    1    1    2    0    0 -0.68174083244E+02  0.73322528681E+02 -0.11779112662E+03  0.15459191283E+03  0.10566000000E+00 0.  1.
         13    1    1    2    0    0 -0.42050182121E+02  0.41586316565E+03 -0.15089315301E+04  0.15657537367E+04  0.10566000000E+00 0. -1.
         -4    1    1    2    0  502  0.11022426536E+03 -0.48918569434E+03 -0.68092201770E+03  0.84563989168E+03  0.00000000000E+00 0. -1.
</event>
<event>
 5    1  0.1052030E-004  0.3281778E+03  0.7818608E-02  0.1004658E+00
         21   -1    0    0  501  502  0.00000000000E+00  0.00000000000E+00  0.61825176787E+03  0.61825176787E+03  0.00000000000E+00 0.  1.
          4   -1    0    0  502    0 -0.00000000000E+00 -0.00000000000E+00 -0.18634266800E+04  0.18634266800E+04  0.00000000000E+00 0.  1.
        -13    1    1    2    0    0 -0.77953266193E+02 -0.89826582457E+02 -0.38301705356E+03  0.40105810191E+03  0.10566000000E+00 0.  1.
         13    1    1    2    0    0 -0.47567822629E+02 -0.24511560037E+03 -0.14069308981E+04  0.14289152944E+04  0.10566000000E+00 0. -1.
          4    1    1    2  501    0  0.12552108882E+03  0.33494218282E+03  0.54477303957E+03  0.65170505155E+03  0.00000000000E+00 0.  1.
</event>
<event>
 5    1  0.6336319E-005  0.5039197E+03  0.7818608E-02  0.9875629E-01
          4   -1    0    0  502    0 -0.00000000000E+00  0.00000000000E+00  0.28939038445E+04  0.28939038445E+04  0.00000000000E+00 0.  1.
         21   -1    0    0  501  502  0.00000000000E+00 -0.00000000000E+00 -0.11518984052E+03  0.11518984052E+03  0.00000000000E+00 0.  1.
        -13    1    1    2    0    0  0.29117470807E+03  0.35357271430E+03  0.11330778273E+04  0.12221545519E+04  0.10566000000E+00 0.  1.
         13    1    1    2    0    0  0.12006395628E+03  0.17398352108E+02  0.49924592078E+03  0.51377481141E+03  0.10566000000E+00 0. -1.
          4    1    1    2  501    0 -0.41123866435E+03 -0.37097106641E+03  0.11463902559E+04  0.12731643217E+04  0.00000000000E+00 0.  1.
</event>
<event>
 5    1  0.6336319E-005  0.5236954E+03  0.7818608E-02  0.9487181E-01
         21   -1    0    0  501  502  0.00000000000E+00  0.00000000000E+00  0.41569785750E+03  0.41569785750E+03  0.00000000000E+00 0.  1.
          4   -1    0    0  502    0 -0.00000000000E+00 -0.00000000000E+00 -0.19630944242E+04  0.19630944242E+04  0.00000000000E+00 0.  1.
        -13    1    1    2    0    0  0.26544252575E+03 -0.71146664321E+02 -0.54613422169E+03  0.61137891817E+03  0.10566000000E+00 0.  1.
         13    1    1    2    0    0  0.20681462492E+03  0.54640589584E+03 -0.92367797648E+03  0.10929376503E+04  0.10566000000E+00 0. -1.
          4    1    1    2  501    0 -0.47225715067E+03 -0.47525923152E+03 -0.77584368552E+02  0.67447571323E+03  0.00000000000E+00 0.  1.
</event>
<event>
 5    1  0.6336319E-005  0.7439697E+02  0.7818608E-02  0.1215642E+00
         21   -1    0    0  501  502  0.00000000000E+00  0.00000000000E+00  0.34834807932E+03  0.34834807932E+03  0.00000000000E+00 0. -1.
         -4   -1    0    0    0  501 -0.00000000000E+00 -0.00000000000E+00 -0.30566182898E+03  0.30566182898E+03  0.00000000000E+00 0. -1.
        -13    1    1    2    0    0 -0.16928966975E+02  0.84898097591E+02  0.30493580525E+02  0.91783149405E+02  0.10566000000E+00 0.  1.
         13    1    1    2    0    0 -0.98228147156E+01 -0.73100049437E+02 -0.26930096429E+03  0.27921877703E+03  0.10566000000E+00 0. -1.
         -4    1    1    2    0  502  0.26751781690E+02 -0.11798048154E+02  0.28149363410E+03  0.28300798187E+03  0.00000000000E+00 0. -1.
</event>
<event>
 5    1  0.6336319E-005  0.4465075E+03  0.7818608E-02  0.9648456E-01
         21   -1    0    0  501  502  0.00000000000E+00  0.00000000000E+00  0.27961154413E+03  0.27961154413E+03  0.00000000000E+00 0. -1.
         -4   -1    0    0    0  501 -0.00000000000E+00 -0.00000000000E+00 -0.28940160366E+04  0.28940160366E+04  0.00000000000E+00 0. -1.
        -13    1    1    2    0    0 -0.22895169657E+03 -0.42570097085E+03 -0.16769485701E+04  0.17452211075E+04  0.10566000000E+00 0.  1.
         13    1    1    2    0    0 -0.32938862906E+03  0.25156594321E+03 -0.13594181639E+03  0.43619087719E+03  0.10566000000E+00 0. -1.
         -4    1    1    2    0  502  0.55834032563E+03  0.17413502764E+03 -0.80151410600E+03  0.99221559613E+03  0.00000000000E+00 0. -1.
</event>
<event>
 5    1  0.6336319E-005  0.8002432E+02  0.7818608E-02  0.1202637E+00
         21   -1    0    0  501  502  0.00000000000E+00  0.00000000000E+00  0.39959490413E+03  0.39959490413E+03  0.00000000000E+00 0. -1.
          4   -1    0    0  502    0 -0.00000000000E+00 -0.00000000000E+00 -0.81344732764E+02  0.81344732764E+02  0.00000000000E+00 0.  1.
        -13    1    1    2    0    0 -0.15532763834E+02  0.78734800979E+02 -0.41711981453E+02  0.90445211031E+02  0.10566000000E+00 0.  1.
         13    1    1    2    0    0 -0.85979538045E+00 -0.80392750723E+02  0.92626753504E+02  0.12265178452E+03  0.10566000000E+00 0. -1.
          4    1    1    2  501    0  0.16392559215E+02  0.16579497440E+01  0.26733539931E+03  0.26784264134E+03  0.00000000000E+00 0.  1.
</event>
<event>
 5    1  0.6336319E-005  0.4926631E+03  0.7818608E-02  0.9494199E-01
         21   -1    0    0  501  502  0.00000000000E+00  0.00000000000E+00  0.64245694741E+03  0.64245694741E+03  0.00000000000E+00 0.  1.
         -4   -1    0    0    0  501 -0.00000000000E+00 -0.00000000000E+00 -0.17402332105E+04  0.17402332105E+04  0.00000000000E+00 0. -1.
        -13    1    1    2    0    0 -0.27076120438E+03 -0.49777941950E+03 -0.10688860688E+04  0.12097989170E+04  0.10566000000E+00 0.  1.
         13    1    1    2    0    0  0.47625071249E+03  0.97231777080E+02 -0.36767794871E+03  0.60947177519E+03  0.10566000000E+00 0. -1.
         -4    1    1    2    0  502 -0.20548950811E+03  0.40054764242E+03  0.33878775445E+03  0.56341946572E+03  0.00000000000E+00 0. -1.
</event>
<event>
 5    1  0.6336319E-005  0.4683683E+03  0.7818608E-02  0.9965073E-01
         -4   -1    0    0    0  501 -0.00000000000E+00  0.00000000000E+00  0.20054317946E+03  0.20054317946E+03  0.00000000000E+00 0. -1.
         21   -1    0    0  501  502  0.00000000000E+00 -0.00000000000E+00 -0.16049521558E+04  0.16049521558E+04  0.00000000000E+00 0. -1.
        -13    1    1    2    0    0  0.96466081610E+02 -0.57217587459E+02 -0.66755592412E+02  0.13052155952E+03  0.10566000000E+00 0.  1.
         13    1    1    2    0    0  0.19464882478E+03  0.42882103832E+03 -0.96418808405E+03  0.10730490765E+04  0.10566000000E+00 0. -1.
         -4    1    1    2    0  502 -0.29111490639E+03 -0.37160345086E+03 -0.37346529989E+03  0.60192469930E+03  0.00000000000E+00 0. -1.
</event>
<event>
 5    1  0.6336319E-005  0.4212172E+03  0.7818608E-02  0.9729006E-01
         -4   -1    0    0    0  501 -0.00000000000E+00  0.00000000000E+00  0.16283786559E+04  0.16283786559E+04  0.00000000000E+00 0. -1.
         21   -1    0    0  501  502  0.00000000000E+00 -0.00000000000E+00 -0.51753047158E+03  0.51753047158E+03  0.00000000000E+00 0.  1.
        -13    1    1    2    0    0  0.87976652239E+02 -0.33110710938E+03 -0.24594987425E+03  0.42173826129E+03  0.10566000000E+00 0.  1.
         13    1    1    2    0    0  0.14466828512E+03  0.61982746063E+03  0.11074977733E+04  0.12773669491E+04  0.10566000000E+00 0. -1.
         -4    1    1    2    0  502 -0.23264493736E+03 -0.28872035125E+03  0.24930028534E+03  0.44680391714E+03  0.00000000000E+00 0. -1.
</event>
<event>
 5    1  0.6336319E-005  0.2020121E+03  0.7818608E-02  0.1136753E+00
         -4   -1    0    0    0  501 -0.00000000000E+00  0.00000000000E+00  0.88741896540E+03  0.88741896540E+03  0.00000000000E+00 0. -1.
         21   -1    0    0  501  502  0.00000000000E+00 -0.00000000000E+00 -0.54508539316E+02  0.54508539316E+02  0.00000000000E+00 0. -1.
        -13    1    1    2    0    0  0.97423407852E+01  0.22093226505E+02  0.11311629762E+03  0.11566473885E+03  0.10566000000E+00 0.  1.
         13    1    1    2    0    0  0.74337584412E+02 -0.19625988517E+03  0.32911159827E+03  0.39033123659E+03  0.10566000000E+00 0. -1.
         -4    1    1    2    0  502 -0.84079925197E+02  0.17416665867E+03  0.39068253020E+03  0.43593152927E+03  0.00000000000E+00 0. -1.
</event>
<event>
 5    1  0.6336319E-005  0.3305021E+03  0.7818608E-02  0.1012901E+00
         21   -1    0    0  501  502  0.00000000000E+00  0.00000000000E+00  0.24528553446E+03  0.24528553446E+03  0.00000000000E+00 0.  1.
          4   -1    0    0  502    0 -0.00000000000E+00 -0.00000000000E+00 -0.18709038303E+04  0.18709038303E+04  0.00000000000E+00 0.  1.
        -13    1    1    2    0    0  0.21083613987E+03  0.23497366788E+03  0.42825747056E+02  0.31858838373E+03  0.10566000000E+00 0.  1.
         13    1    1    2    0    0  0.18713635437E+03 -0.10834376291E+02 -0.73320890835E+03  0.75679106316E+03  0.10566000000E+00 0. -1.
          4    1    1    2  501    0 -0.39797249424E+03 -0.22413929159E+03 -0.93523513453E+03  0.10408099178E+04  0.00000000000E+00 0.  1.
</event>
<event>
 5    1  0.6336319E-005  0.2007400E+03  0.7818608E-02  0.1091933E+00
          4   -1    0    0  502    0 -0.00000000000E+00  0.00000000000E+00  0.17745895441E+04  0.17745895441E+04  0.00000000000E+00 0.  1.
         21   -1    0    0  501  502  0.00000000000E+00 -0.00000000000E+00 -0.37048777476E+03  0.37048777476E+03  0.00000000000E+00 0.  1.
        -13    1    1    2    0    0  0.12187342800E+03 -0.13234412757E+02 -0.27493002716E+03  0.30102294452E+03  0.10566000000E+00 0.  1.
         13    1    1    2    0    0  0.31243552704E+03  0.54904901802E+02  0.84916694417E+03  0.90648497893E+03  0.10566000000E+00 0. -1.
          4    1    1    2  501    0 -0.43430895504E+03 -0.41670489045E+02  0.82986485236E+03  0.93756939544E+03  0.00000000000E+00 0.  1.
</event>
<event>
 5    1  0.6336319E-005  0.4062179E+03  0.7818608E-02  0.1030798E+00
         21   -1    0    0  501  502  0.00000000000E+00  0.00000000000E+00  0.30565154264E+03  0.30565154264E+03  0.00000000000E+00 0. -1.
         -4   -1    0    0    0  501 -0.00000000000E+00 -0.00000000000E+00 -0.98721883194E+03  0.98721883194E+03  0.00000000000E+00 0. -1.
        -13    1    1    2    0    0 -0.49828348139E+02  0.28795615181E+02 -0.15893190707E+03  0.16903080779E+03  0.10566000000E+00 0.  1.
         13    1    1    2    0    0  0.41282774479E+03  0.50547930871E+02  0.72550645038E+02  0.42219124510E+03  0.10566000000E+00 0. -1.
         -4    1    1    2    0  502 -0.36299939665E+03 -0.79343546052E+02 -0.59518602727E+03  0.70164832169E+03  0.00000000000E+00 0. -1.
</event>
<event>
 5    1  0.6336319E-005  0.3959426E+03  0.7818608E-02  0.9900812E-01
         -4   -1    0    0    0  501 -0.00000000000E+00  0.00000000000E+00  0.43191287599E+03  0.43191287599E+03  0.00000000000E+00 0. -1.
         21   -1    0    0  501  502  0.00000000000E+00 -0.00000000000E+00 -0.90501910115E+03  0.90501910115E+03  0.00000000000E+00 0. -1.
        -13    1    1    2    0    0  0.18925654006E+03  0.13042543641E+03 -0.34432289014E+02  0.23241003875E+03  0.10566000000E+00 0.  1.
         13    1    1    2    0    0 -0.43401290671E+03 -0.20228237838E+02 -0.63679884240E+03  0.77090152526E+03  0.10566000000E+00 0. -1.
         -4    1    1    2    0  502  0.24475636664E+03 -0.11019719858E+03  0.19812490625E+03  0.33362041314E+03  0.00000000000E+00 0. -1.
</event>
<event>
 5    1  0.6336319E-005  0.4217801E+03  0.7818608E-02  0.9668170E-01
         -4   -1    0    0    0  501 -0.00000000000E+00  0.00000000000E+00  0.17302544987E+04  0.17302544987E+04  0.00000000000E+00 0. -1.
         21   -1    0    0  501  502  0.00000000000E+00 -0.00000000000E+00 -0.46621584300E+03  0.46621584300E+03  0.00000000000E+00 0. -1.
        -13    1    1    2    0    0  0.21575096149E+03  0.32620000103E+03  0.10034928085E+04  0.10770110240E+04  0.10566000000E+00 0.  1.
         13    1    1    2    0    0 -0.12745247182E+03 -0.69609395683E+03  0.14941874367E+03  0.72326820850E+03  0.10566000000E+00 0. -1.
         -4    1    1    2    0  502 -0.88298489663E+02  0.36989395579E+03  0.11112710350E+03  0.39619110912E+03  0.00000000000E+00 0. -1.
</event>
<event>
 5    1  0.6336319E-005  0.1461838E+03  0.7818608E-02  0.1104937E+00
         21   -1    0    0  501  502  0.00000000000E+00  0.00000000000E+00  0.28908853445E+03  0.28908853445E+03  0.00000000000E+00 0.  1.
         -4   -1    0    0    0  501 -0.00000000000E+00 -0.00000000000E+00 -0.12569847682E+03  0.12569847682E+03  0.00000000000E+00 0. -1.
        -13    1    1    2    0    0 -0.23123435685E+02  0.13989501059E+03  0.11399636445E+03  0.18193539935E+03  0.10566000000E+00 0.  1.
         13    1    1    2    0    0 -0.32119819134E+02 -0.14820075227E+03 -0.91672560746E+01  0.15191838434E+03  0.10566000000E+00 0. -1.
         -4    1    1    2    0  502  0.55243254819E+02  0.83057416805E+01  0.58560949254E+02  0.80933227573E+02  0.00000000000E+00 0. -1.
</event>
<event>
 5    1  0.6336319E-005  0.4952723E+03  0.7818608E-02  0.9918469E-01
          4   -1    0    0  502    0 -0.00000000000E+00  0.00000000000E+00  0.17852449481E+04  0.17852449481E+04  0.00000000000E+00 0.  1.
         21   -1    0    0  501  502  0.00000000000E+00 -0.00000000000E+00 -0.17237797261E+03  0.17237797261E+03  0.00000000000E+00 0.  1.
        -13    1    1    2    0    0 -0.44444261065E+03 -0.17655404330E+03  0.71413052668E+03  0.85946668619E+03  0.10566000000E+00 0.  1.
         13    1    1    2    0    0  0.13281400627E+02 -0.10991319801E+03  0.19946865222E+03  0.22813386659E+03  0.10566000000E+00 0. -1.
          4    1    1    2  501    0  0.43116121002E+03  0.28646724131E+03  0.69926779659E+03  0.87002236794E+03  0.00000000000E+00 0.  1.
</event>
<event>
 5    1  0.1202667E-004  0.2550886E+03  0.7818608E-02  0.1047451E+00
          4   -1    0    0  502    0 -0.00000000000E+00  0.00000000000E+00  0.83169671029E+03  0.83169671029E+03  0.00000000000E+00 0.  1.
         21   -1    0    0  501  502  0.00000000000E+00 -0.00000000000E+00 -0.46202409812E+03  0.46202409812E+03  0.00000000000E+00 0.  1.
        -13    1    1    2    0    0 -0.13004002219E+02 -0.22746035245E+03  0.52129894150E+03  0.56891116493E+03  0.10566000000E+00 0.  1.
         13    1    1    2    0    0 -0.13914002383E+03  0.17109549468E+02  0.22636243753E+03  0.26625673175E+03  0.10566000000E+00 0. -1.
          4    1    1    2  501    0  0.15214402605E+03  0.21035080299E+03 -0.37798876686E+03  0.45855291172E+03  0.00000000000E+00 0.  1.
</event>
<event>
 5    1  0.6336319E-005  0.6464080E+02  0.7818608E-02  0.1241532E+00
         21   -1    0    0  501  502  0.00000000000E+00  0.00000000000E+00  0.28804096572E+03  0.28804096572E+03  0.00000000000E+00 0.  1.
         -4   -1    0    0    0  501 -0.00000000000E+00 -0.00000000000E+00 -0.56691532838E+02  0.56691532838E+02  0.00000000000E+00 0. -1.
        -13    1    1    2    0    0 -0.53030167359E+02  0.32293825401E+02  0.11505305492E+03  0.13073754786E+03  0.10566000000E+00 0.  1.
         13    1    1    2    0    0  0.65815333957E+02  0.22689173315E+02 -0.14879035894E+02  0.71188858979E+02  0.10566000000E+00 0. -1.
         -4    1    1    2    0  502 -0.12785166598E+02 -0.54982998716E+02  0.13117541385E+03  0.14280609172E+03  0.00000000000E+00 0. -1.
</event>
<event>
 5    1  0.6336319E-005  0.2742223E+03  0.7818608E-02  0.1018552E+00
         -4   -1    0    0    0  501 -0.00000000000E+00  0.00000000000E+00  0.66088796015E+03  0.66088796015E+03  0.00000000000E+00 0. -1.
         21   -1    0    0  501  502  0.00000000000E+00 -0.00000000000E+00 -0.13706662179E+03  0.13706662179E+03  0.00000000000E+00 0.  1.
        -13    1    1    2    0    0 -0.15443063071E+03  0.21989341182E+03  0.13731072760E+03  0.30175516456E+03  0.10566000000E+00 0.  1.
         13    1    1    2    0    0  0.13794058072E+03 -0.24102491086E+03  0.37593604052E+03  0.46738477638E+03  0.10566000000E+00 0. -1.
         -4    1    1    2    0  502  0.16490049995E+02  0.21131499036E+02  0.10574570237E+02  0.28814641001E+02  0.00000000000E+00 0. -1.
</event>
<event>
 5    1  0.6336319E-005  0.5080619E+03  0.7818608E-02  0.9684869E-01
          4   -1    0    0  502    0 -0.00000000000E+00  0.00000000000E+00  0.56922969951E+03  0.56922969951E+03  0.00000000000E+00 0.  1.
         21   -1    0    0  501  502  0.00000000000E+00 -0.00000000000E+00 -0.74708940254E+03  0.74708940254E+03  0.00000000000E+00 0.  1.
        -13    1    1    2    0    0  0.34283315342E+03  0.30513100193E+03 -0.41408587541E+02  0.46081903358E+03  0.10566000000E+00 0.  1.
         13    1    1    2    0    0 -0.90583737539E+02  0.20882117399E+03  0.83117110585E+02  0.24232243282E+03  0.10566000000E+00 0. -1.
          4    1    1    2  501    0 -0.25224941588E+03 -0.51395217592E+03 -0.21956822607E+03  0.61317763564E+03  0.00000000000E+00 0.  1.
</event>
<event>
 5    1  0.6336319E-005  0.2652332E+03  0.7818608E-02  0.1022788E+00
          4   -1    0    0  502    0 -0.00000000000E+00  0.00000000000E+00  0.20740357305E+04  0.20740357305E+04  0.00000000000E+00 0.  1.
         21   -1    0    0  501  502  0.00000000000E+00 -0.00000000000E+00 -0.74189644842E+02  0.74189644842E+02  0.00000000000E+00 0.  1.
        -13    1    1    2    0    0  0.24488836489E+03 -0.28275164565E+03  0.86320604229E+03  0.94076749890E+03  0.10566000000E+00 0.  1.
         13    1    1    2    0    0 -0.98155591878E+02  0.20257987357E+03  0.80738772986E+03  0.83818141407E+03  0.10566000000E+00 0. -1.
          4    1    1    2  501    0 -0.14673277302E+03  0.80171772084E+02  0.32925231352E+03  0.36927646239E+03  0.00000000000E+00 0.  1.
</event>
<event>
 5    1  0.6336319E-005  0.4838443E+03  0.7818608E-02  0.9824569E-01
         21   -1    0    0  501  502  0.00000000000E+00  0.00000000000E+00  0.27330323142E+03  0.27330323142E+03  0.00000000000E+00 0. -1.
         -4   -1    0    0    0  501 -0.00000000000E+00 -0.00000000000E+00 -0.18770588628E+04  0.18770588628E+04  0.00000000000E+00 0. -1.
        -13    1    1    2    0    0 -0.13577180116E+03 -0.89954888305E+02 -0.94349276806E+03  0.95744685412E+03  0.10566000000E+00 0.  1.
         13    1    1    2    0    0  0.56155154052E+03  0.21912679881E+02 -0.38966265289E+03  0.68385473050E+03  0.10566000000E+00 0. -1.
         -4    1    1    2    0  502 -0.42577973937E+03  0.68042208424E+02 -0.27060021047E+03  0.50906050965E+03  0.00000000000E+00 0. -1.
</event>
<event>
 5    1  0.6336319E-005  0.5084390E+03  0.7818608E-02  0.9489944E-01
         -4   -1    0    0    0  501 -0.00000000000E+00  0.00000000000E+00  0.86902088436E+03  0.86902088436E+03  0.00000000000E+00 0. -1.
         21   -1    0    0  501  502  0.00000000000E+00 -0.00000000000E+00 -0.79816536935E+03  0.79816536935E+03  0.00000000000E+00 0. -1.
        -13    1    1    2    0    0 -0.50705879712E+03 -0.17785419098E+03  0.16192480967E+03  0.56121332142E+03  0.10566000000E+00 0.  1.
         13    1    1    2    0    0 -0.23220519551E+03  0.68186144402E+02  0.18982495746E+03  0.30757459054E+03  0.10566000000E+00 0. -1.
         -4    1    1    2    0  502  0.73926399263E+03  0.10966804657E+03 -0.28089425212E+03  0.79839834175E+03  0.00000000000E+00 0. -1.
</event>
<event>
 5    1  0.6336319E-005  0.3900829E+03  0.7818608E-02  0.9972934E-01
         -4   -1    0    0    0  501 -0.00000000000E+00  0.00000000000E+00  0.25164958893E+04  0.25164958893E+04  0.00000000000E+00 0. -1.
         21   -1    0    0  501  502  0.00000000000E+00 -0.00000000000E+00 -0.15776134468E+03  0.15776134468E+03  0.00000000000E+00 0. -1.
        -13    1    1    2    0    0  0.11380702990E+03 -0.15111330225E+03  0.68067186951E+03  0.70647114256E+03  0.10566000000E+00 0.  1.
         13    1    1    2    0    0 -0.48301467140E+03  0.11384623623E+03  0.14491811608E+04  0.15317931278E+04  0.10566000000E+00 0. -1.
         -4    1    1    2    0  502  0.36920764150E+03  0.37267066023E+02  0.22888151427E+03  0.43599296362E+03  0.00000000000E+00 0. -1.
</event>
<event>
 5    1  0.6336319E-005  0.7465249E+02  0.7818608E-02  0.1228879E+00
         -4   -1    0    0    0  501 -0.00000000000E+00  0.00000000000E+00  0.47622199341E+02  0.47622199341E+02  0.00000000000E+00 0. -1.
         21   -1    0    0  501  502  0.00000000000E+00 -0.00000000000E+00 -0.11564238994E+04  0.11564238994E+04  0.00000000000E+00 0.  1.
        -13    1    1    2    0    0 -0.11448185546E+03  0.47833935154E+02 -0.29250118130E+03  0.31772807998E+03  0.10566000000E+00 0.  1.
         13    1    1    2    0    0  0.27797670019E+02 -0.54157850860E+02  0.43944094367E+01  0.61033640450E+02  0.10566000000E+00 0. -1.
         -4    1    1    2    0  502  0.86684185446E+02  0.63239157060E+01 -0.82069492824E+03  0.82528437835E+03  0.00000000000E+00 0. -1.
</event>
<event>
 5    1  0.6336319E-005  0.3374211E+03  0.7818608E-02  0.1002769E+00
         21   -1    0    0  501  502  0.00000000000E+00  0.00000000000E+00  0.74421515672E+03  0.74421515672E+03  0.00000000000E+00 0. -1.
         -4   -1    0    0    0  501 -0.00000000000E+00 -0.00000000000E+00 -0.75245882125E+03  0.75245882125E+03  0.00000000000E+00 0. -1.
        -13    1    1    2    0    0  0.27335865523E+03  0.28729445304E+03  0.44098762749E+02  0.39900848259E+03  0.10566000000E+00 0.  1.
         13    1    1    2    0    0  0.19935414725E+03 -0.20568088577E+03  0.36350972872E+03  0.46280237341E+03  0.10566000000E+00 0. -1.
         -4    1    1    2    0  502 -0.47271280248E+03 -0.81613567273E+02 -0.41585215599E+03  0.63486312197E+03  0.00000000000E+00 0. -1.
</event>
<event>
 5    1  0.6336319E-005  0.4406050E+03  0.7818608E-02  0.9716052E-01
         21   -1    0    0  501  502  0.00000000000E+00  0.00000000000E+00  0.55342571114E+03  0.55342571114E+03  0.00000000000E+00 0. -1.
         -4   -1    0    0    0  501 -0.00000000000E+00 -0.00000000000E+00 -0.13703157725E+04  0.13703157725E+04  0.00000000000E+00 0. -1.
        -13    1    1    2    0    0  0.23955065311E+03  0.20158247278E+03 -0.80776138254E+03  0.86631314836E+03  0.10566000000E+00 0.  1.
         13    1    1    2    0    0  0.85551668985E+02 -0.50290663327E+03 -0.23301169522E+03  0.56082852203E+03  0.10566000000E+00 0. -1.
         -4    1    1    2    0  502 -0.32510232209E+03  0.30132416049E+03  0.22388301637E+03  0.49659981327E+03  0.00000000000E+00 0. -1.
</event>
<event>
 5    1  0.6336319E-005  0.4927574E+03  0.7818608E-02  0.9846568E-01
         21   -1    0    0  501  502  0.00000000000E+00  0.00000000000E+00  0.25697963752E+03  0.25697963752E+03  0.00000000000E+00 0. -1.
         -4   -1    0    0    0  501 -0.00000000000E+00 -0.00000000000E+00 -0.19465402193E+04  0.19465402193E+04  0.00000000000E+00 0. -1.
        -13    1    1    2    0    0 -0.93653276048E+02 -0.10820977654E+03 -0.69323748769E+03  0.70785487026E+03  0.10566000000E+00 0.  1.
         13    1    1    2    0    0 -0.33797681132E+03 -0.20043696176E+03 -0.86344404064E+03  0.94865110715E+03  0.10566000000E+00 0. -1.
         -4    1    1    2    0  502  0.43163008737E+03  0.30864673830E+03 -0.13287905342E+03  0.54701387937E+03  0.00000000000E+00 0. -1.
</event>
<event>
 5    1  0.6336319E-005  0.5331912E+03  0.7818608E-02  0.9457901E-01
         21   -1    0    0  501  502  0.00000000000E+00  0.00000000000E+00  0.23145242832E+03  0.23145242832E+03  0.00000000000E+00 0.  1.
          4   -1    0    0  502    0 -0.00000000000E+00 -0.00000000000E+00 -0.33035549501E+04  0.33035549501E+04  0.00000000000E+00 0.  1.
        -13    1    1    2    0    0 -0.29601830994E+03 -0.14427537370E+03 -0.12628489931E+04  0.13050784703E+04  0.10566000000E+00 0.  1.
         13    1    1    2    0    0  0.26161872365E+03 -0.52265585607E+03 -0.11579436732E+04  0.12970917708E+04  0.10566000000E+00 0. -1.
          4    1    1    2  501    0  0.34399586299E+02  0.66693122976E+03 -0.65130985546E+03  0.93283713723E+03  0.00000000000E+00 0.  1.
</event>
<event>
 5    1  0.6336319E-005  0.4632686E+03  0.7818608E-02  0.9562331E-01
         -4   -1    0    0    0  501 -0.00000000000E+00  0.00000000000E+00  0.14608091013E+04  0.14608091013E+04  0.00000000000E+00 0. -1.
         21   -1    0    0  501  502  0.00000000000E+00 -0.00000000000E+00 -0.30042688231E+03  0.30042688231E+03  0.00000000000E+00 0. -1.
        -13    1    1    2    0    0 -0.40139647277E+03 -0.27131845734E+02  0.61311523079E+03  0.73332500489E+03  0.10566000000E+00 0.  1.
         13    1    1    2    0    0  0.58302010681E+03  0.18463113975E+02  0.60177626201E+03  0.83808592173E+03  0.10566000000E+00 0. -1.
         -4    1    1    2    0  502 -0.18162363404E+03  0.86687317590E+01 -0.54509273772E+02  0.18982505704E+03  0.00000000000E+00 0. -1.
</event>
<event>
 5    1  0.6336319E-005  0.3244075E+03  0.7818608E-02  0.9977108E-01
         21   -1    0    0  501  502  0.00000000000E+00  0.00000000000E+00  0.65841133679E+02  0.65841133679E+02  0.00000000000E+00 0. -1.
          4   -1    0    0  502    0 -0.00000000000E+00 -0.00000000000E+00 -0.21814261836E+04  0.21814261836E+04  0.00000000000E+00 0.  1.
        -13    1    1    2    0    0 -0.20182619829E+03  0.25987591282E+03 -0.14078880798E+04  0.14458278462E+04  0.10566000000E+00 0.  1.
         13    1    1    2    0    0  0.19772634316E+03 -0.24687265921E+03 -0.71784826143E+03  0.78444117322E+03  0.10566000000E+00 0. -1.
          4    1    1    2  501    0  0.40998551256E+01 -0.13003253606E+02  0.10151291291E+02  0.16998297894E+02  0.00000000000E+00 0.  1.
</event>
<event>
 5    1  0.6336319E-005  0.4600711E+02  0.7818608E-02  0.1308959E+00
          4   -1    0    0  502    0 -0.00000000000E+00  0.00000000000E+00  0.24299382581E+02  0.24299382581E+02  0.00000000000E+00 0.  1.
         21   -1    0    0  501  502  0.00000000000E+00 -0.00000000000E+00 -0.73636613124E+03  0.73636613124E+03  0.00000000000E+00 0.  1.
        -13    1    1    2    0    0  0.33663639865E+02 -0.23064850351E+02 -0.14245099568E+02  0.43222239604E+02  0.10566000000E+00 0.  1.
         13    1    1    2    0    0 -0.63732736145E+02  0.30532925136E+02 -0.12352490444E+03  0.14231139924E+03  0.10566000000E+00 0. -1.
          4    1    1    2  501    0  0.30069096281E+02 -0.74680747850E+01 -0.57429674465E+03  0.57513187497E+03  0.00000000000E+00 0.  1.
</event>
<event>
 5    1  0.6336319E-005  0.4315971E+03  0.7818608E-02  0.1007159E+00
         21   -1    0    0  501  502  0.00000000000E+00  0.00000000000E+00  0.13389166418E+04  0.13389166418E+04  0.00000000000E+00 0. -1.
         -4   -1    0    0    0  501 -0.00000000000E+00 -0.00000000000E+00 -0.25359092920E+03  0.25359092920E+03  0.00000000000E+00 0. -1.
        -13    1    1    2    0    0  0.97039176159E+02 -0.28828036460E+02 -0.25841210512E+02  0.10447696742E+03  0.10566000000E+00 0.  1.
         13    1    1    2    0    0 -0.12062274940E+03  0.45017901267E+03  0.24966419074E+03  0.52871846045E+03  0.10566000000E+00 0. -1.
         -4    1    1    2    0  502  0.23583573246E+02 -0.42135097621E+03  0.86150273234E+03  0.95931214311E+03  0.00000000000E+00 0. -1.
</event>
<event>
 5    1  0.6336319E-005  0.8531294E+02  0.7818608E-02  0.1191448E+00
         -4   -1    0    0    0  501 -0.00000000000E+00  0.00000000000E+00  0.98016178004E+02  0.98016178004E+02  0.00000000000E+00 0. -1.
         21   -1    0    0  501  502  0.00000000000E+00 -0.00000000000E+00 -0.11979287322E+03  0.11979287322E+03  0.00000000000E+00 0.  1.
        -13    1    1    2    0    0  0.35835117179E+00 -0.76452494760E+02 -0.38686121618E+02  0.85683951476E+02  0.10566000000E+00 0.  1.
         13    1    1    2    0    0  0.14490814918E+02  0.88492388786E+02  0.43267815414E+02  0.99564057796E+02  0.10566000000E+00 0. -1.
         -4    1    1    2    0  502 -0.14849166090E+02 -0.12039894026E+02 -0.26358389014E+02  0.32561041954E+02  0.00000000000E+00 0. -1.
</event>
<event>
 5    1  0.6336319E-005  0.8848161E+03  0.7818608E-02  0.8891066E-01
         -4   -1    0    0    0  501 -0.00000000000E+00  0.00000000000E+00  0.25563853449E+04  0.25563853449E+04  0.00000000000E+00 0. -1.
         21   -1    0    0  501  502  0.00000000000E+00 -0.00000000000E+00 -0.53971770400E+03  0.53971770400E+03  0.00000000000E+00 0. -1.
        -13    1    1    2    0    0  0.94160470246E+03  0.15227891529E+02  0.10899123935E+04  0.14404028398E+04  0.10566000000E+00 0.  1.
         13    1    1    2    0    0 -0.79580219801E+03  0.35230024939E+03  0.91114333177E+03  0.12599995184E+04  0.10566000000E+00 0. -1.
         -4    1    1    2    0  502 -0.14580250446E+03 -0.36752814092E+03  0.15611915608E+02  0.39570069066E+03  0.00000000000E+00 0. -1.
</event>
<event>
 5    1  0.6336319E-005  0.2741426E+03  0.7818608E-02  0.1018589E+00
          4   -1    0    0  502    0 -0.00000000000E+00  0.00000000000E+00  0.21952456051E+03  0.21952456051E+03  0.00000000000E+00 0.  1.
         21   -1    0    0  501  502  0.00000000000E+00 -0.00000000000E+00 -0.67230986210E+03  0.67230986210E+03  0.00000000000E+00 0. -1.
        -13    1    1    2    0    0  0.29860635681E+03 -0.50005522400E+01  0.19917455211E+02  0.29931167374E+03  0.10566000000E+00 0.  1.
         13    1    1    2    0    0 -0.19543157800E+03 -0.40942309197E+02 -0.42567829146E+03  0.47018272336E+03  0.10566000000E+00 0. -1.
          4    1    1    2  501    0 -0.10317477881E+03  0.45942861437E+02 -0.47024465339E+02  0.12234002550E+03  0.00000000000E+00 0.  1.
</event>
<event>
 5    1  0.6336319E-005  0.5135379E+03  0.7818608E-02  0.9471914E-01
         -4   -1    0    0    0  501 -0.00000000000E+00  0.00000000000E+00  0.16199037801E+04  0.16199037801E+04  0.00000000000E+00 0. -1.
         21   -1    0    0  501  502  0.00000000000E+00 -0.00000000000E+00 -0.42812280204E+03  0.42812280204E+03  0.00000000000E+00 0.  1.
        -13    1    1    2    0    0 -0.10742798052E+03 -0.52488205117E+03  0.39047990349E+03  0.66296040970E+03  0.10566000000E+00 0.  1.
         13    1    1    2    0    0  0.43743883300E+03 -0.73492049844E+02  0.36372164889E+03  0.57362641418E+03  0.10566000000E+00 0. -1.
         -4    1    1    2    0  502 -0.33001085248E+03  0.59837410102E+03  0.43757942569E+03  0.81143975827E+03  0.00000000000E+00 0. -1.
</event>
<event>
 5    1  0.6336319E-005  0.3943128E+03  0.7818608E-02  0.9788187E-01
          4   -1    0    0  502    0 -0.00000000000E+00  0.00000000000E+00  0.22965839949E+04  0.22965839949E+04  0.00000000000E+00 0.  1.
         21   -1    0    0  501  502  0.00000000000E+00 -0.00000000000E+00 -0.31951238607E+03  0.31951238607E+03  0.00000000000E+00 0.  1.
        -13    1    1    2    0    0  0.26182113578E+03  0.10984567503E+03  0.71149126462E+03  0.76605235478E+03  0.10566000000E+00 0.  1.
         13    1    1    2    0    0  0.13192257890E+03 -0.31406313091E+03  0.13553466755E+04  0.13974991374E+04  0.10566000000E+00 0. -1.
          4    1    1    2  501    0 -0.39374371468E+03  0.20421745588E+03 -0.89766331312E+02  0.45254488880E+03  0.00000000000E+00 0.  1.
</event>
<event>
 5    1  0.6336319E-005  0.4592522E+03  0.7818608E-02  0.9572054E-01
          4   -1    0    0  502    0 -0.00000000000E+00  0.00000000000E+00  0.79803003332E+03  0.79803003332E+03  0.00000000000E+00 0.  1.
         21   -1    0    0  501  502  0.00000000000E+00 -0.00000000000E+00 -0.71217902902E+03  0.71217902902E+03  0.00000000000E+00 0.  1.
        -13    1    1    2    0    0  0.45173233008E+03 -0.52717701156E+03  0.77142183880E+02  0.69851888110E+03  0.10566000000E+00 0.  1.
         13    1    1    2    0    0 -0.21135057747E+03  0.31166514023E+03  0.21006679513E+03  0.43119867325E+03  0.10566000000E+00 0. -1.
          4    1    1    2  501    0 -0.24038175262E+03  0.21551187133E+03 -0.20135797471E+03  0.38049150799E+03  0.00000000000E+00 0.  1.
</event>
<event>
 5    1  0.6336319E-005  0.4853984E+03  0.7818608E-02  0.9782442E-01
         -4   -1    0    0    0  501 -0.00000000000E+00  0.00000000000E+00  0.45174464850E+03  0.45174464850E+03  0.00000000000E+00 0. -1.
         21   -1    0    0  501  502  0.00000000000E+00 -0.00000000000E+00 -0.79855583229E+03  0.79855583229E+03  0.00000000000E+00 0. -1.
        -13    1    1    2    0    0  0.15144440149E+03  0.10839678959E+03 -0.60297617995E+02  0.19575771923E+03  0.10566000000E+00 0.  1.
         13    1    1    2    0    0  0.22705414212E+03 -0.43147181464E+03 -0.15311693786E+02  0.48780730767E+03  0.10566000000E+00 0. -1.
         -4    1    1    2    0  502 -0.37849854361E+03  0.32307502505E+03 -0.27120187201E+03  0.56673545390E+03  0.00000000000E+00 0. -1.
</event>
<event>
 5    1  0.6336319E-005  0.1313451E+03  0.7818608E-02  0.1121120E+00
          4   -1    0    0  502    0 -0.00000000000E+00  0.00000000000E+00  0.80689161252E+03  0.80689161252E+03  0.00000000000E+00 0.  1.
         21   -1    0    0  501  502  0.00000000000E+00 -0.00000000000E+00 -0.15966623484E+03  0.15966623484E+03  0.00000000000E+00 0.  1.
        -13    1    1    2    0    0 -0.12318372830E+03 -0.44781835902E+02  0.59554550892E+03  0.60979841596E+03  0.10566000000E+00 0.  1.
         13    1    1    2    0    0  0.12053177850E+03  0.54991868392E+02  0.18249827547E+03  0.22551640058E+03  0.10566000000E+00 0. -1.
          4    1    1    2  501    0  0.26519497933E+01 -0.10210032489E+02 -0.13081840672E+03  0.13124303082E+03  0.00000000000E+00 0.  1.
</event>
<event>
 5    1  0.6336319E-005  0.2134356E+03  0.7818608E-02  0.1051296E+00
          4   -1    0    0  502    0 -0.00000000000E+00  0.00000000000E+00  0.78721644002E+03  0.78721644002E+03  0.00000000000E+00 0.  1.
         21   -1    0    0  501  502  0.00000000000E+00 -0.00000000000E+00 -0.28487539697E+03  0.28487539697E+03  0.00000000000E+00 0. -1.
        -13    1    1    2    0    0 -0.14827299851E+03  0.16658016588E+03  0.68286209716E+03  0.71835540553E+03  0.10566000000E+00 0.  1.
         13    1    1    2    0    0  0.12551382600E+03 -0.11150852143E+03 -0.45547050491E+01  0.16795424189E+03  0.10566000000E+00 0. -1.
          4    1    1    2  501    0  0.22759172508E+02 -0.55071644456E+02 -0.17596634906E+03  0.18578218956E+03  0.00000000000E+00 0.  1.
</event>
<event>
 5    1  0.6336319E-005  0.4148018E+02  0.7818608E-02  0.1330980E+00
          4   -1    0    0  502    0 -0.00000000000E+00  0.00000000000E+00  0.15185508344E+02  0.15185508344E+02  0.00000000000E+00 0.  1.
         21   -1    0    0  501  502  0.00000000000E+00 -0.00000000000E+00 -0.27986696319E+03  0.27986696319E+03  0.00000000000E+00 0. -1.
        -13    1    1    2    0    0  0.51986182962E+02 -0.81244126350E+01 -0.60449151070E+02  0.80141626691E+02  0.10566000000E+00 0.  1.
         13    1    1    2    0    0 -0.30102946139E+02  0.12679436084E+02 -0.54650813938E+02  0.63668501583E+02  0.10566000000E+00 0. -1.
          4    1    1    2  501    0 -0.21883236822E+02 -0.45550234494E+01 -0.14958148984E+03  0.15124234326E+03  0.00000000000E+00 0.  1.
</event>
<event>
 5    1  0.6336319E-005  0.3833694E+03  0.7818608E-02  0.9838129E-01
         21   -1    0    0  501  502  0.00000000000E+00  0.00000000000E+00  0.21792659918E+03  0.21792659918E+03  0.00000000000E+00 0. -1.
         -4   -1    0    0    0  501 -0.00000000000E+00 -0.00000000000E+00 -0.21398563665E+04  0.21398563665E+04  0.00000000000E+00 0. -1.
        -13    1    1    2    0    0 -0.26818677366E+03 -0.16079184214E+03 -0.69671078736E+03  0.76366490979E+03  0.10566000000E+00 0.  1.
         13    1    1    2    0    0  0.39319015051E+03  0.46983527611E+03 -0.10545619099E+04  0.12196083445E+04  0.10566000000E+00 0. -1.
         -4    1    1    2    0  502 -0.12500337685E+03 -0.30904343397E+03 -0.17065707005E+03  0.37450971131E+03  0.00000000000E+00 0. -1.
</event>
<event>
 5    1  0.6336319E-005  0.7836250E+03  0.7818608E-02  0.9009769E-01
         21   -1    0    0  501  502  0.00000000000E+00  0.00000000000E+00  0.12351634460E+04  0.12351634460E+04  0.00000000000E+00 0. -1.
          4   -1    0    0  502    0 -0.00000000000E+00 -0.00000000000E+00 -0.11528595297E+04  0.11528595297E+04  0.00000000000E+00 0.  1.
        -13    1    1    2    0    0 -0.10726777767E+03 -0.80631706136E+03  0.34533783986E+03  0.88369214909E+03  0.10566000000E+00 0.  1.
         13    1    1    2    0    0 -0.36423372442E+03  0.72457330651E+03 -0.51782426033E+03  0.96219263054E+03  0.10566000000E+00 0. -1.
          4    1    1    2  501    0  0.47150150209E+03  0.81743754846E+02  0.25479033678E+03  0.54213819608E+03  0.00000000000E+00 0.  1.
</event>
<event>
 5    1  0.6336319E-005  0.7405292E+02  0.7818608E-02  0.1216478E+00
         -4   -1    0    0    0  501 -0.00000000000E+00  0.00000000000E+00  0.15962930600E+03  0.15962930600E+03  0.00000000000E+00 0. -1.
         21   -1    0    0  501  502  0.00000000000E+00 -0.00000000000E+00 -0.31382946519E+03  0.31382946519E+03  0.00000000000E+00 0.  1.
        -13    1    1    2    0    0 -0.39009861910E+01 -0.42642058235E+02 -0.21982238667E+03  0.22395413742E+03  0.10566000000E+00 0.  1.
         13    1    1    2    0    0  0.38090797125E+02  0.65228304978E+02  0.14312591718E+03  0.16183534821E+03  0.10566000000E+00 0. -1.
         -4    1    1    2    0  502 -0.34189810934E+02 -0.22586246743E+02 -0.77503689697E+02  0.87669285558E+02  0.00000000000E+00 0. -1.
</event>
<event>
 5    1  0.6336319E-005  0.4074789E+03  0.7818608E-02  0.9766361E-01
         21   -1    0    0  501  502  0.00000000000E+00  0.00000000000E+00  0.42760826446E+03  0.42760826446E+03  0.00000000000E+00 0.  1.
          4   -1    0    0  502    0 -0.00000000000E+00 -0.00000000000E+00 -0.19774721104E+04  0.19774721104E+04  0.00000000000E+00 0.  1.
        -13    1    1    2    0    0 -0.35725451639E+03 -0.12775496140E+03  0.10731990520E+03  0.39429645301E+03  0.10566000000E+00 0.  1.
         13    1    1    2    0    0 -0.20812581588E+03  0.25952861513E+03 -0.12703181186E+04  0.13131563467E+04  0.10566000000E+00 0. -1.
          4    1    1    2  501    0  0.56538033227E+03 -0.13177365373E+03 -0.38686563250E+03  0.69762757510E+03  0.00000000000E+00 0.  1.
</event>
<event>
 5    1  0.6336319E-005  0.2492246E+03  0.7818608E-02  0.1052486E+00
          4   -1    0    0  502    0 -0.00000000000E+00  0.00000000000E+00  0.44500443751E+03  0.44500443751E+03  0.00000000000E+00 0.  1.
         21   -1    0    0  501  502  0.00000000000E+00 -0.00000000000E+00 -0.75012277612E+03  0.75012277612E+03  0.00000000000E+00 0.  1.
        -13    1    1    2    0    0  0.25011068635E+03  0.83913326699E+02  0.28506768468E+03  0.38840751516E+03  0.10566000000E+00 0.  1.
         13    1    1    2    0    0 -0.38744209620E+01 -0.12935410616E+03  0.34320445266E+02  0.13388577237E+03  0.10566000000E+00 0. -1.
          4    1    1    2  501    0 -0.24623626539E+03  0.45440779457E+02 -0.62450646855E+03  0.67283392609E+03  0.00000000000E+00 0.  1.
</event>
<event>
 5    1  0.6336319E-005  0.4972777E+03  0.7818608E-02  0.9630816E-01
         21   -1    0    0  501  502  0.00000000000E+00  0.00000000000E+00  0.26345824141E+03  0.26345824141E+03  0.00000000000E+00 0.  1.
          4   -1    0    0  502    0 -0.00000000000E+00 -0.00000000000E+00 -0.17639420148E+04  0.17639420148E+04  0.00000000000E+00 0.  1.
        -13    1    1    2    0    0 -0.31181374296E+03 -0.56161051805E+03 -0.52057275716E+03  0.82681932182E+03  0.10566000000E+00 0.  1.
         13    1    1    2    0    0  0.27297110603E+02  0.29225747795E+03 -0.51326662135E+03  0.59127168157E+03  0.10566000000E+00 0. -1.
          4    1    1    2  501    0  0.28451663236E+03  0.26935304010E+03 -0.46664439491E+03  0.60930925284E+03  0.00000000000E+00 0.  1.
</event>
<event>
 5    1  0.6336319E-005  0.4809605E+03  0.7818608E-02  0.9824851E-01
         21   -1    0    0  501  502  0.00000000000E+00  0.00000000000E+00  0.15026745979E+03  0.15026745979E+03  0.00000000000E+00 0. -1.
         -4   -1    0    0    0  501 -0.00000000000E+00 -0.00000000000E+00 -0.23310467972E+04  0.23310467972E+04  0.00000000000E+00 0. -1.
        -13    1    1    2    0    0  0.10815795759E+02  0.16530259132E+03 -0.25643998588E+03  0.30529232820E+03  0.10566000000E+00 0.  1.
         13    1    1    2    0    0  0.36892456720E+03 -0.36329887247E+03 -0.64623451785E+03  0.82807636740E+03  0.10566000000E+00 0. -1.
         -4    1    1    2    0  502 -0.37974036296E+03  0.19799628115E+03 -0.12781048337E+04  0.13479455614E+04  0.00000000000E+00 0. -1.
</event>
<event>
 5    1  0.6336319E-005  0.3663456E+03  0.7818608E-02  0.9831615E-01
         21   -1    0    0  501  502  0.00000000000E+00  0.00000000000E+00  0.27538508413E+03  0.27538508413E+03  0.00000000000E+00 0. -1.
         -4   -1    0    0    0  501 -0.00000000000E+00 -0.00000000000E+00 -0.25010805233E+04  0.25010805233E+04  0.00000000000E+00 0. -1.
        -13    1    1    2    0    0  0.41119668589E+03  0.70596516585E+02 -0.10466711209E+04  0.11267595259E+04  0.10566000000E+00 0.  1.
         13    1    1    2    0    0 -0.23799976653E+03 -0.28581352766E+03 -0.12970309835E+04  0.13493045041E+04  0.10566000000E+00 0. -1.
         -4    1    1    2    0  502 -0.17319691936E+03  0.21521701107E+03  0.11800666519E+03  0.30040157749E+03  0.00000000000E+00 0. -1.
</event>
<event>
 5    1  0.6336319E-005  0.2617275E+03  0.7818608E-02  0.1074413E+00
         21   -1    0    0  501  502  0.00000000000E+00  0.00000000000E+00  0.33592106144E+03  0.33592106144E+03  0.00000000000E+00 0.  1.
          4   -1    0    0  502    0 -0.00000000000E+00 -0.00000000000E+00 -0.13187471734E+04  0.13187471734E+04  0.00000000000E+00 0.  1.
        -13    1    1    2    0    0  0.19783909450E+02  0.27058311659E+03 -0.12136731039E+04  0.12436273720E+04  0.10566000000E+00 0.  1.
         13    1    1    2    0    0  0.55645742873E+02 -0.20127486110E+02 -0.42782569941E+01  0.59328568531E+02  0.10566000000E+00 0. -1.
          4    1    1    2  501    0 -0.75429652323E+02 -0.25045563048E+03  0.23512524894E+03  0.35171229432E+03  0.00000000000E+00 0.  1.
</event>
<event>
 5    1  0.6336319E-005  0.1812354E+03  0.7818608E-02  0.1073822E+00
         21   -1    0    0  501  502  0.00000000000E+00  0.00000000000E+00  0.69316085589E+02  0.69316085589E+02  0.00000000000E+00 0.  1.
          4   -1    0    0  502    0 -0.00000000000E+00 -0.00000000000E+00 -0.74478726741E+03  0.74478726741E+03  0.00000000000E+00 0.  1.
        -13    1    1    2    0    0 -0.21225446920E+02 -0.18632227900E+03 -0.35721167779E+03  0.40344355883E+03  0.10566000000E+00 0.  1.
         13    1    1    2    0    0  0.31825650674E+02  0.17272686545E+03 -0.34013694634E+03  0.38280621145E+03  0.10566000000E+00 0. -1.
          4    1    1    2  501    0 -0.10600203754E+02  0.13595413544E+02  0.21877442306E+02  0.27853582730E+02  0.00000000000E+00 0.  1.
</event>
<event>
 5    1  0.6336319E-005  0.2171952E+03  0.7818608E-02  0.1059923E+00
          4   -1    0    0  502    0 -0.00000000000E+00  0.00000000000E+00  0.92002176122E+03  0.92002176122E+03  0.00000000000E+00 0.  1.
         21   -1    0    0  501  502  0.00000000000E+00 -0.00000000000E+00 -0.14430962503E+03  0.14430962503E+03  0.00000000000E+00 0.  1.
        -13    1    1    2    0    0 -0.28414852593E+03  0.46089116299E+02  0.11310165773E+03  0.30928399178E+03  0.10566000000E+00 0.  1.
         13    1    1    2    0    0  0.15026045195E+03  0.45954821200E+02  0.50424604363E+03  0.52816108593E+03  0.10566000000E+00 0. -1.
          4    1    1    2  501    0  0.13388807398E+03 -0.92043937499E+02  0.15836443483E+03  0.22688630854E+03  0.00000000000E+00 0.  1.
</event>
<event>
 5    1  0.6336319E-005  0.4886273E+03  0.7818608E-02  0.9657220E-01
          4   -1    0    0  502    0 -0.00000000000E+00  0.00000000000E+00  0.22895196776E+04  0.22895196776E+04  0.00000000000E+00 0.  1.
         21   -1    0    0  501  502  0.00000000000E+00 -0.00000000000E+00 -0.22154771775E+03  0.22154771775E+03  0.00000000000E+00 0. -1.
        -13    1    1    2    0    0  0.60259273596E+03 -0.20367709210E+03  0.65841738041E+03  0.91548665816E+03  0.10566000000E+00 0.  1.
         13    1    1    2    0    0 -0.20668199601E+03  0.19171185491E+03  0.93955777532E+03  0.98093817701E+03  0.10566000000E+00 0. -1.
          4    1    1    2  501    0 -0.39591073994E+03  0.11965237189E+02  0.46999680409E+03  0.61464256016E+03  0.00000000000E+00 0.  1.
</event>
<event>
 5    1  0.6336319E-005  0.7046071E+02  0.7818608E-02  0.1248718E+00
         21   -1    0    0  501  502  0.00000000000E+00  0.00000000000E+00  0.44111539037E+03  0.44111539037E+03  0.00000000000E+00 0. -1.
         -4   -1    0    0    0  501 -0.00000000000E+00 -0.00000000000E+00 -0.58791812480E+02  0.58791812480E+02  0.00000000000E+00 0. -1.
        -13    1    1    2    0    0  0.26827446645E+02  0.33441779918E+02  0.13814714923E+03  0.14464684767E+03  0.10566000000E+00 0.  1.
         13    1    1    2    0    0 -0.87819141811E+02 -0.61721444221E+02  0.57020098111E+01  0.10749075507E+03  0.10566000000E+00 0. -1.
         -4    1    1    2    0  502  0.60991695166E+02  0.28279664302E+02  0.23847441885E+03  0.24776960011E+03  0.00000000000E+00 0. -1.
</event>
<event>
 5    1  0.6336319E-005  0.2139563E+03  0.7818608E-02  0.1059300E+00
         -4   -1    0    0    0  501 -0.00000000000E+00  0.00000000000E+00  0.82936727435E+03  0.82936727435E+03  0.00000000000E+00 0. -1.
         21   -1    0    0  501  502  0.00000000000E+00 -0.00000000000E+00 -0.52101459273E+03  0.52101459273E+03  0.00000000000E+00 0. -1.
        -13    1    1    2    0    0 -0.22602451387E+03 -0.11737241997E+03  0.17575694906E+03  0.30944124184E+03  0.10566000000E+00 0.  1.
         13    1    1    2    0    0  0.17990707158E+02  0.16736495302E+03  0.54821891483E+03  0.57347945280E+03  0.10566000000E+00 0. -1.
         -4    1    1    2    0  502  0.20803380672E+03 -0.49992533052E+02 -0.41562318227E+03  0.46746117244E+03  0.00000000000E+00 0. -1.
</event>
<event>
 5    1  0.6336319E-005  0.4483073E+03  0.7818608E-02  0.1003963E+00
         -4   -1    0    0    0  501 -0.00000000000E+00  0.00000000000E+00  0.37343640580E+03  0.37343640580E+03  0.00000000000E+00 0. -1.
         21   -1    0    0  501  502  0.00000000000E+00 -0.00000000000E+00 -0.94352664061E+03  0.94352664061E+03  0.00000000000E+00 0. -1.
        -13    1    1    2    0    0 -0.98932147238E+02 -0.15786987462E+02  0.71930035086E+02  0.12333182818E+03  0.10566000000E+00 0.  1.
         13    1    1    2    0    0  0.19378727711E+03  0.44270853090E+03 -0.93698721413E+02  0.49226396746E+03  0.10566000000E+00 0. -1.
         -4    1    1    2    0  502 -0.94855129870E+02 -0.42692154344E+03 -0.54832154848E+03  0.70136725076E+03  0.00000000000E+00 0. -1.
</event>
<event>
 5    1  0.6336319E-005  0.4274868E+02  0.7818608E-02  0.1324502E+00
          4   -1    0    0  502    0 -0.00000000000E+00  0.00000000000E+00  0.34650206420E+02  0.34650206420E+02  0.00000000000E+00 0.  1.
         21   -1    0    0  501  502  0.00000000000E+00 -0.00000000000E+00 -0.28519508941E+03  0.28519508941E+03  0.00000000000E+00 0. -1.
        -13    1    1    2    0    0 -0.37205963975E+02 -0.20072078271E+02  0.14016828774E+02  0.44538239013E+02  0.10566000000E+00 0.  1.
         13    1    1    2    0    0  0.32920440424E+02  0.36306423654E+02 -0.11780363764E+03  0.12759161415E+03  0.10566000000E+00 0. -1.
          4    1    1    2  501    0  0.42855235510E+01 -0.16234345383E+02 -0.14675807412E+03  0.14771544266E+03  0.00000000000E+00 0.  1.
</event>
<event>
 5    1  0.6336319E-005  0.4830481E+02  0.7818608E-02  0.1298849E+00
         21   -1    0    0  501  502  0.00000000000E+00  0.00000000000E+00  0.38745273710E+03  0.38745273710E+03  0.00000000000E+00 0. -1.
         -4   -1    0    0    0  501 -0.00000000000E+00 -0.00000000000E+00 -0.25571460024E+02  0.25571460024E+02  0.00000000000E+00 0. -1.
        -13    1    1    2    0    0 -0.34900697426E+02 -0.23985247903E+02  0.18402791109E+02  0.46173852800E+02  0.10566000000E+00 0.  1.
         13    1    1    2    0    0  0.52332799131E+02  0.57051799365E+02  0.14012230596E+03  0.16008716834E+03  0.10566000000E+00 0. -1.
         -4    1    1    2    0  502 -0.17432101705E+02 -0.33066551462E+02  0.20335618000E+03  0.20676317598E+03  0.00000000000E+00 0. -1.
</event>
<event>
 5    1  0.6336319E-005  0.4968436E+03  0.7818608E-02  0.9712229E-01
         21   -1    0    0  501  502  0.00000000000E+00  0.00000000000E+00  0.39727212062E+03  0.39727212062E+03  0.00000000000E+00 0.  1.
          4   -1    0    0  502    0 -0.00000000000E+00 -0.00000000000E+00 -0.14366401665E+04  0.14366401665E+04  0.00000000000E+00 0.  1.
        -13    1    1    2    0    0  0.28484957450E+03  0.28759200112E+03 -0.24777053711E+03  0.47459318308E+03  0.10566000000E+00 0.  1.
         13    1    1    2    0    0  0.22110071345E+03  0.85171350468E+01 -0.73821649479E+03  0.77066313745E+03  0.10566000000E+00 0. -1.
          4    1    1    2  501    0 -0.50595028795E+03 -0.29610913616E+03 -0.53381014026E+02  0.58865596663E+03  0.00000000000E+00 0.  1.
</event>
<event>
 5    1  0.6336319E-005  0.1924577E+03  0.7818608E-02  0.1078385E+00
         -4   -1    0    0    0  501 -0.00000000000E+00  0.00000000000E+00  0.61576538568E+03  0.61576538568E+03  0.00000000000E+00 0. -1.
         21   -1    0    0  501  502  0.00000000000E+00 -0.00000000000E+00 -0.96799809833E+03  0.96799809833E+03  0.00000000000E+00 0. -1.
        -13    1    1    2    0    0 -0.63442315246E+02  0.22264260414E+03  0.28912956582E+03  0.37039245880E+03  0.10566000000E+00 0.  1.
         13    1    1    2    0    0 -0.14729133427E+03 -0.64236024660E+02 -0.85752415010E+03  0.87244981700E+03  0.10566000000E+00 0. -1.
         -4    1    1    2    0  502  0.21073364951E+03 -0.15840657948E+03  0.21616187163E+03  0.34092120821E+03  0.00000000000E+00 0. -1.
</event>
<event>
 5    1  0.6336319E-005  0.4955684E+03  0.7818608E-02  0.9709713E-01
         -4   -1    0    0    0  501 -0.00000000000E+00  0.00000000000E+00  0.20655700912E+04  0.20655700912E+04  0.00000000000E+00 0. -1.
         21   -1    0    0  501  502  0.00000000000E+00 -0.00000000000E+00 -0.24057229248E+03  0.24057229248E+03  0.00000000000E+00 0.  1.
        -13    1    1    2    0    0  0.10922770552E+03  0.19663477578E+03  0.12413958727E+02  0.22527770470E+03  0.10566000000E+00 0.  1.
         13    1    1    2    0    0 -0.51269696695E+03  0.86396524280E+02  0.79041697721E+03  0.94608749508E+03  0.10566000000E+00 0. -1.
         -4    1    1    2    0  502  0.40346926143E+03 -0.28303130006E+03  0.10221668628E+04  0.11347771839E+04  0.00000000000E+00 0. -1.
</event>
<event>
 5    1  0.6336319E-005  0.1124367E+03  0.7818608E-02  0.1145473E+00
          4   -1    0    0  502    0 -0.00000000000E+00  0.00000000000E+00  0.43713846519E+02  0.43713846519E+02  0.00000000000E+00 0.  1.
         21   -1    0    0  501  502  0.00000000000E+00 -0.00000000000E+00 -0.58578689936E+03  0.58578689936E+03  0.00000000000E+00 0.  1.
        -13    1    1    2    0    0  0.45349831802E+02 -0.97585392397E+02 -0.84592786699E+02  0.13687756127E+03  0.10566000000E+00 0.  1.
         13    1    1    2    0    0 -0.42959662392E+02  0.11422905359E+03 -0.19793646627E+03  0.23253529866E+03  0.10566000000E+00 0. -1.
          4    1    1    2  501    0 -0.23901694100E+01 -0.16643661193E+02 -0.25954379987E+03  0.26008788595E+03  0.00000000000E+00 0.  1.
</event>
<event>
 5    1  0.6336319E-005  0.3439209E+02  0.7818608E-02  0.1372758E+00
         21   -1    0    0  501  502  0.00000000000E+00  0.00000000000E+00  0.82607581920E+02  0.82607581920E+02  0.00000000000E+00 0. -1.
          4   -1    0    0  502    0 -0.00000000000E+00 -0.00000000000E+00 -0.24150059772E+02  0.24150059772E+02  0.00000000000E+00 0.  1.
        -13    1    1    2    0    0  0.26201803599E+02  0.58883056647E+01  0.22780109432E+02  0.35215780627E+02  0.10566000000E+00 0.  1.
         13    1    1    2    0    0 -0.39881339367E+02 -0.11163027201E+02  0.11020803865E+02  0.42855614427E+02  0.10566000000E+00 0. -1.
          4    1    1    2  501    0  0.13679535768E+02  0.52747215363E+01  0.24656608852E+02  0.28686246638E+02  0.00000000000E+00 0.  1.
</event>
<event>
 5    1  0.6336319E-005  0.2608876E+02  0.7818608E-02  0.1453615E+00
         21   -1    0    0  501  502  0.00000000000E+00  0.00000000000E+00  0.67257146142E+02  0.67257146142E+02  0.00000000000E+00 0. -1.
          4   -1    0    0  502    0 -0.00000000000E+00 -0.00000000000E+00 -0.43219431444E+02  0.43219431444E+02  0.00000000000E+00 0.  1.
        -13    1    1    2    0    0  0.84977892701E+01 -0.19835546993E+02 -0.17069030589E+02  0.27514074876E+02  0.10566000000E+00 0.  1.
         13    1    1    2    0    0  0.11117529911E+02  0.41421294044E+02  0.23850187936E+02  0.49073064916E+02  0.10566000000E+00 0. -1.
          4    1    1    2  501    0 -0.19615319181E+02 -0.21585747051E+02  0.17256557351E+02  0.33889437793E+02  0.00000000000E+00 0.  1.
</event>
<event>
 5    1  0.6336319E-005  0.1417769E+03  0.7818608E-02  0.1109517E+00
         21   -1    0    0  501  502  0.00000000000E+00  0.00000000000E+00  0.41372316996E+03  0.41372316996E+03  0.00000000000E+00 0. -1.
         -4   -1    0    0    0  501 -0.00000000000E+00 -0.00000000000E+00 -0.10638522011E+04  0.10638522011E+04  0.00000000000E+00 0. -1.
        -13    1    1    2    0    0 -0.18759643949E+03  0.15713810880E+03 -0.28459007733E+03  0.37533496057E+03  0.10566000000E+00 0.  1.
         13    1    1    2    0    0  0.66224231623E+02 -0.11182496779E+03 -0.71646836126E+03  0.72816028190E+03  0.10566000000E+00 0. -1.
         -4    1    1    2    0  502  0.12137220787E+03 -0.45313141012E+02  0.35092940746E+03  0.37408012860E+03  0.00000000000E+00 0. -1.
</event>
<event>
 5    1  0.6336319E-005  0.3391254E+03  0.7818608E-02  0.1019180E+00
          4   -1    0    0  502    0 -0.00000000000E+00  0.00000000000E+00  0.22560561996E+04  0.22560561996E+04  0.00000000000E+00 0.  1.
         21   -1    0    0  501  502  0.00000000000E+00 -0.00000000000E+00 -0.14754974078E+03  0.14754974078E+03  0.00000000000E+00 0.  1.
        -13    1    1    2    0    0 -0.25457673359E+03 -0.24600394506E+03  0.12286716619E+03  0.37473137840E+03  0.10566000000E+00 0.  1.
         13    1    1    2    0    0  0.14201492709E+03  0.59358549598E+01  0.50228319295E+03  0.52200755835E+03  0.10566000000E+00 0. -1.
          4    1    1    2  501    0  0.11256180650E+03  0.24006809010E+03  0.14833560997E+04  0.15068670037E+04  0.00000000000E+00 0.  1.
</event>
<event>
 5    1  0.6336319E-005  0.1418625E+04  0.7818608E-02  0.8457926E-01
         21   -1    0    0  501  502  0.00000000000E+00  0.00000000000E+00  0.91972914020E+03  0.91972914020E+03  0.00000000000E+00 0. -1.
          4   -1    0    0  502    0 -0.00000000000E+00 -0.00000000000E+00 -0.25195021058E+04  0.25195021058E+04  0.00000000000E+00 0.  1.
        -13    1    1    2    0    0  0.12547821402E+04  0.73312775526E+03 -0.12447884755E+04  0.19134923268E+04  0.10566000000E+00 0.  1.
         13    1    1    2    0    0 -0.12104965362E+04 -0.62586224840E+03 -0.29182388267E+03  0.13936163775E+04  0.10566000000E+00 0. -1.
          4    1    1    2  501    0 -0.44285604010E+02 -0.10726550686E+03 -0.63160607507E+02  0.13212254170E+03  0.00000000000E+00 0.  1.
</event>
<event>
 5    1  0.6336319E-005  0.3518999E+03  0.7818608E-02  0.9879283E-01
         -4   -1    0    0    0  501 -0.00000000000E+00  0.00000000000E+00  0.12710552631E+04  0.12710552631E+04  0.00000000000E+00 0. -1.
         21   -1    0    0  501  502  0.00000000000E+00 -0.00000000000E+00 -0.26523698223E+03  0.26523698223E+03  0.00000000000E+00 0.  1.
        -13    1    1    2    0    0  0.78711060622E+02 -0.32580965774E+03  0.44177943243E+03  0.55454165057E+03  0.10566000000E+00 0.  1.
         13    1    1    2    0    0 -0.11957996547E+03  0.34534468103E+03  0.72641887170E+03  0.81317077246E+03  0.10566000000E+00 0. -1.
         -4    1    1    2    0  502  0.40868904850E+02 -0.19535023295E+02 -0.16238002328E+03  0.16857982228E+03  0.00000000000E+00 0. -1.
</event>
<event>
 5    1  0.6336319E-005  0.4866097E+03  0.7818608E-02  0.9771506E-01
          4   -1    0    0  502    0 -0.00000000000E+00  0.00000000000E+00  0.96414252752E+03  0.96414252752E+03  0.00000000000E+00 0.  1.
         21   -1    0    0  501  502  0.00000000000E+00 -0.00000000000E+00 -0.78913000882E+03  0.78913000882E+03  0.00000000000E+00 0.  1.
        -13    1    1    2    0    0 -0.42737551409E+03  0.28793276964E+03 -0.18027064975E+03  0.54594196413E+03  0.10566000000E+00 0.  1.
         13    1    1    2    0    0 -0.42281108409E+02 -0.18720209651E+03  0.62682881615E+03  0.65555067919E+03  0.10566000000E+00 0. -1.
          4    1    1    2  501    0  0.46965662250E+03 -0.10073067312E+03 -0.27154564769E+03  0.55177989302E+03  0.00000000000E+00 0.  1.
</event>
<event>
 5    1  0.6336319E-005  0.2728872E+03  0.7818608E-02  0.1019170E+00
         21   -1    0    0  501  502  0.00000000000E+00  0.00000000000E+00  0.25874590818E+03  0.25874590818E+03  0.00000000000E+00 0. -1.
          4   -1    0    0  502    0 -0.00000000000E+00 -0.00000000000E+00 -0.47951320496E+03  0.47951320496E+03  0.00000000000E+00 0.  1.
        -13    1    1    2    0    0 -0.14932644691E+03  0.26522482478E+03 -0.19053819524E+03  0.35909248173E+03  0.10566000000E+00 0.  1.
         13    1    1    2    0    0  0.19675835002E+02 -0.24544568464E+03 -0.29675038576E+02  0.24801480131E+03  0.10566000000E+00 0. -1.
          4    1    1    2  501    0  0.12965061190E+03 -0.19779140136E+02 -0.55406296209E+00  0.13115183010E+03  0.00000000000E+00 0.  1.
</event>
<event>
 5    1  0.6336319E-005  0.3337821E+03  0.7818608E-02  0.9942625E-01
         21   -1    0    0  501  502  0.00000000000E+00  0.00000000000E+00  0.80360087833E+03  0.80360087833E+03  0.00000000000E+00 0. -1.
          4   -1    0    0  502    0 -0.00000000000E+00 -0.00000000000E+00 -0.82327655533E+03  0.82327655533E+03  0.00000000000E+00 0.  1.
        -13    1    1    2    0    0  0.13801682394E+03 -0.30322689913E+03 -0.74177454424E+03  0.81315723061E+03  0.10566000000E+00 0.  1.
         13    1    1    2    0    0 -0.13627877562E+03  0.31729425791E+03  0.61192033603E+03  0.70263365959E+03  0.10566000000E+00 0. -1.
          4    1    1    2  501    0 -0.17380483138E+01 -0.14067358776E+02  0.11017853122E+03  0.11108654345E+03  0.00000000000E+00 0.  1.
</event>
<event>
 5    1  0.6336319E-005  0.1129461E+03  0.7818608E-02  0.1146474E+00
         21   -1    0    0  501  502  0.00000000000E+00  0.00000000000E+00  0.14173310425E+03  0.14173310425E+03  0.00000000000E+00 0. -1.
          4   -1    0    0  502    0 -0.00000000000E+00 -0.00000000000E+00 -0.35499499471E+03  0.35499499471E+03  0.00000000000E+00 0.  1.
        -13    1    1    2    0    0 -0.13288945841E+03  0.47005333532E+02 -0.22719944854E+03  0.26737372743E+03  0.10566000000E+00 0.  1.
         13    1    1    2    0    0  0.89930779848E+02  0.60136815904E+02  0.31301375528E+02  0.11262224054E+03  0.10566000000E+00 0. -1.
          4    1    1    2  501    0  0.42958678561E+02 -0.10714214944E+03 -0.17363817451E+02  0.11673213099E+03  0.00000000000E+00 0.  1.
</event>
<event>
 5    1  0.6336319E-005  0.3435946E+03  0.7818608E-02  0.1008366E+00
          4   -1    0    0  502    0 -0.00000000000E+00  0.00000000000E+00  0.29870274285E+04  0.29870274285E+04  0.00000000000E+00 0.  1.
         21   -1    0    0  501  502  0.00000000000E+00 -0.00000000000E+00 -0.15113902729E+03  0.15113902729E+03  0.00000000000E+00 0.  1.
        -13    1    1    2    0    0 -0.62605680723E+02 -0.41450306017E+03  0.16275597931E+04  0.16806793714E+04  0.10566000000E+00 0.  1.
         13    1    1    2    0    0  0.16878120806E+03  0.93532677490E+02  0.10780412063E+04  0.10951750142E+04  0.10566000000E+00 0. -1.
          4    1    1    2  501    0 -0.10617552734E+03  0.32097038268E+03  0.13028740177E+03  0.36231207022E+03  0.00000000000E+00 0.  1.
</event>
<event>
 5    1  0.6336319E-005  0.4919421E+03  0.7818608E-02  0.9655982E-01
         21   -1    0    0  501  502  0.00000000000E+00  0.00000000000E+00  0.11212832087E+04  0.11212832087E+04  0.00000000000E+00 0.  1.
          4   -1    0    0  502    0 -0.00000000000E+00 -0.00000000000E+00 -0.39915672391E+03  0.39915672391E+03  0.00000000000E+00 0.  1.
        -13    1    1    2    0    0  0.13624138731E+03  0.53148689628E+03  0.49721245810E+03  0.74044599816E+03  0.10566000000E+00 0.  1.
         13    1    1    2    0    0  0.18727359409E+03 -0.20471177332E+03  0.24959076279E+02  0.27857005552E+03  0.10566000000E+00 0. -1.
          4    1    1    2  501    0 -0.32351498140E+03 -0.32677512296E+03  0.19995495041E+03  0.50142387894E+03  0.00000000000E+00 0.  1.
</event>
<event>
 5    1  0.6336319E-005  0.4942124E+03  0.7818608E-02  0.1013563E+00
         21   -1    0    0  501  502  0.00000000000E+00  0.00000000000E+00  0.10419530141E+04  0.10419530141E+04  0.00000000000E+00 0.  1.
          4   -1    0    0  502    0 -0.00000000000E+00 -0.00000000000E+00 -0.26441954122E+03  0.26441954122E+03  0.00000000000E+00 0.  1.
        -13    1    1    2    0    0 -0.21333698315E+03 -0.45839662545E+03  0.41122679816E+03  0.65172664921E+03  0.10566000000E+00 0.  1.
         13    1    1    2    0    0  0.54873852532E+02  0.12670988603E+01  0.15512357716E+02  0.57038492592E+02  0.10566000000E+00 0. -1.
          4    1    1    2  501    0  0.15846313062E+03  0.45712952659E+03  0.35079431701E+03  0.59760741352E+03  0.00000000000E+00 0.  1.
</event>
<event>
 5    1  0.1049755E-004  0.1169361E+04  0.7818608E-02  0.8629999E-01
         -4   -1    0    0    0  501 -0.00000000000E+00  0.00000000000E+00  0.27424469371E+04  0.27424469371E+04  0.00000000000E+00 0. -1.
         21   -1    0    0  501  502  0.00000000000E+00 -0.00000000000E+00 -0.76682733692E+03  0.76682733692E+03  0.00000000000E+00 0. -1.
        -13    1    1    2    0    0  0.33792643744E+03  0.10702462843E+04  0.16103069724E+04  0.19628321229E+04  0.10566000000E+00 0.  1.
         13    1    1    2    0    0 -0.37739645264E+03 -0.12549179506E+04  0.28411754093E+03  0.13408840120E+04  0.10566000000E+00 0. -1.
         -4    1    1    2    0  502  0.39470015201E+02  0.18467166637E+03  0.81195086866E+02  0.20555813920E+03  0.00000000000E+00 0. -1.
</event>
<event>
 5    1  0.6336319E-005  0.7073323E+02  0.7818608E-02  0.1224816E+00
         -4   -1    0    0    0  501 -0.00000000000E+00  0.00000000000E+00  0.25655027798E+03  0.25655027798E+03  0.00000000000E+00 0. -1.
         21   -1    0    0  501  502  0.00000000000E+00 -0.00000000000E+00 -0.10725169286E+03  0.10725169286E+03  0.00000000000E+00 0.  1.
        -13    1    1    2    0    0 -0.35278704805E+02 -0.29528189461E+02 -0.83134129412E+02  0.95014712664E+02  0.10566000000E+00 0.  1.
         13    1    1    2    0    0  0.25721604169E+02  0.68114779965E+02  0.21186967096E+03  0.22403123177E+03  0.10566000000E+00 0. -1.
         -4    1    1    2    0  502  0.95571006366E+01 -0.38586590505E+02  0.20563043575E+02  0.44756026415E+02  0.00000000000E+00 0. -1.
</event>
<event>
 5    1  0.6336319E-005  0.5146261E+03  0.7818608E-02  0.9665674E-01
         21   -1    0    0  501  502  0.00000000000E+00  0.00000000000E+00  0.36284150431E+03  0.36284150431E+03  0.00000000000E+00 0.  1.
          4   -1    0    0  502    0 -0.00000000000E+00 -0.00000000000E+00 -0.17570811382E+04  0.17570811382E+04  0.00000000000E+00 0.  1.
        -13    1    1    2    0    0  0.15401035310E+03 -0.47889608055E+03 -0.21891822374E+03  0.54862176832E+03  0.10566000000E+00 0.  1.
         13    1    1    2    0    0 -0.22351794919E+03 -0.70076555753E+02 -0.94213560005E+03  0.97081949780E+03  0.10566000000E+00 0. -1.
          4    1    1    2  501    0  0.69507596088E+02  0.54897263630E+03 -0.23318581005E+03  0.60048137634E+03  0.00000000000E+00 0.  1.
</event>
<event>
 5    1  0.6336319E-005  0.4192929E+03  0.7818608E-02  0.9817563E-01
          4   -1    0    0  502    0 -0.00000000000E+00  0.00000000000E+00  0.14444902819E+04  0.14444902819E+04  0.00000000000E+00 0.  1.
         21   -1    0    0  501  502  0.00000000000E+00 -0.00000000000E+00 -0.33846023428E+03  0.33846023428E+03  0.00000000000E+00 0.  1.
        -13    1    1    2    0    0  0.97330520130E+02  0.50756663181E+03  0.57100093291E+03  0.77015530409E+03  0.10566000000E+00 0.  1.
         13    1    1    2    0    0 -0.22480308001E+03 -0.12309095314E+03  0.55071720261E+03  0.60743498083E+03  0.10566000000E+00 0. -1.
          4    1    1    2  501    0  0.12747255988E+03 -0.38447567867E+03 -0.15688087852E+02  0.40536023129E+03  0.00000000000E+00 0.  1.
</event>
<event>
 5    1  0.6336319E-005  0.4226762E+03  0.7818608E-02  0.9786294E-01
          4   -1    0    0  502    0 -0.00000000000E+00  0.00000000000E+00  0.26658529161E+04  0.26658529161E+04  0.00000000000E+00 0.  1.
         21   -1    0    0  501  502  0.00000000000E+00 -0.00000000000E+00 -0.19336730637E+03  0.19336730637E+03  0.00000000000E+00 0.  1.
        -13    1    1    2    0    0  0.20276197167E+03  0.45288206897E+03  0.11415805839E+04  0.12447573363E+04  0.10566000000E+00 0.  1.
         13    1    1    2    0    0 -0.27557483104E+03 -0.39318187322E+02  0.11011577683E+04  0.11357974508E+04  0.10566000000E+00 0. -1.
          4    1    1    2  501    0  0.72812859362E+02 -0.41356388165E+03  0.22974725751E+03  0.47866543538E+03  0.00000000000E+00 0.  1.
</event>
<event>
 5    1  0.6336319E-005  0.4530588E+03  0.7818608E-02  0.9828810E-01
         -4   -1    0    0    0  501 -0.00000000000E+00  0.00000000000E+00  0.92198880649E+03  0.92198880649E+03  0.00000000000E+00 0. -1.
         21   -1    0    0  501  502  0.00000000000E+00 -0.00000000000E+00 -0.58721425175E+03  0.58721425175E+03  0.00000000000E+00 0. -1.
        -13    1    1    2    0    0  0.31746236965E+02  0.19294485257E+03  0.44311350945E+03  0.48433989420E+03  0.10566000000E+00 0.  1.
         13    1    1    2    0    0 -0.42687346340E+03 -0.34181704375E+03  0.96901439208E+02  0.55538252155E+03  0.10566000000E+00 0. -1.
         -4    1    1    2    0  502  0.39512722644E+03  0.14887219118E+03 -0.20524039391E+03  0.46948064249E+03  0.00000000000E+00 0. -1.
</event>
<event>
 5    1  0.6336319E-005  0.4888541E+03  0.7818608E-02  0.9658239E-01
         21   -1    0    0  501  502  0.00000000000E+00  0.00000000000E+00  0.64965643673E+03  0.64965643673E+03  0.00000000000E+00 0.  1.
         -4   -1    0    0    0  501 -0.00000000000E+00 -0.00000000000E+00 -0.13609065382E+04  0.13609065382E+04  0.00000000000E+00 0. -1.
        -13    1    1    2    0    0 -0.63178693357E+03 -0.22841570311E+03 -0.38511887763E+03  0.77436749927E+03  0.10566000000E+00 0.  1.
         13    1    1    2    0    0  0.14391422223E+03  0.19745487815E+03 -0.61958761497E+03  0.66602444103E+03  0.10566000000E+00 0. -1.
         -4    1    1    2    0  502  0.48787271134E+03  0.30960824956E+02  0.29345639118E+03  0.57017103458E+03  0.00000000000E+00 0. -1.
</event>
<event>
 5    1  0.6336319E-005  0.7945471E+02  0.7818608E-02  0.1254478E+00
          4   -1    0    0  502    0 -0.00000000000E+00  0.00000000000E+00  0.14746460888E+02  0.14746460888E+02  0.00000000000E+00 0.  1.
         21   -1    0    0  501  502  0.00000000000E+00 -0.00000000000E+00 -0.87140616401E+03  0.87140616401E+03  0.00000000000E+00 0.  1.
        -13    1    1    2    0    0 -0.57579059511E+02 -0.81804052942E+02 -0.22322090643E+03  0.24461160112E+03  0.10566000000E+00 0.  1.
         13    1    1    2    0    0  0.10659308308E+02  0.24265434716E+02 -0.13186321861E+03  0.13450037830E+03  0.10566000000E+00 0. -1.
          4    1    1    2  501    0  0.46919751203E+02  0.57538618226E+02 -0.50157557809E+03  0.50704064548E+03  0.00000000000E+00 0.  1.
</event>
<event>
 5    1  0.6336319E-005  0.8304700E+02  0.7818608E-02  0.1196130E+00
         -4   -1    0    0    0  501 -0.00000000000E+00  0.00000000000E+00  0.14113427176E+03  0.14113427176E+03  0.00000000000E+00 0. -1.
         21   -1    0    0  501  502  0.00000000000E+00 -0.00000000000E+00 -0.21197368731E+03  0.21197368731E+03  0.00000000000E+00 0.  1.
        -13    1    1    2    0    0  0.88559751951E+02 -0.30709558711E+02 -0.13257093914E+03  0.16236062248E+03  0.10566000000E+00 0.  1.
         13    1    1    2    0    0 -0.75203400905E+02  0.32929323774E+02  0.11189891524E+03  0.13878497854E+03  0.10566000000E+00 0. -1.
         -4    1    1    2    0  502 -0.13356351046E+02 -0.22197650630E+01 -0.50167391645E+02  0.51962358056E+02  0.00000000000E+00 0. -1.
</event>
<event>
 5    1  0.6336319E-005  0.1577438E+03  0.7818608E-02  0.1093716E+00
         21   -1    0    0  501  502  0.00000000000E+00  0.00000000000E+00  0.35942096880E+03  0.35942096880E+03  0.00000000000E+00 0. -1.
          4   -1    0    0  502    0 -0.00000000000E+00 -0.00000000000E+00 -0.26675868900E+03  0.26675868900E+03  0.00000000000E+00 0.  1.
        -13    1    1    2    0    0  0.15245449294E+03  0.38855456689E+02 -0.18165973837E+03  0.24031727079E+03  0.10566000000E+00 0.  1.
         13    1    1    2    0    0 -0.15735970527E+03 -0.27486787355E+02  0.59161360429E+02  0.17034576031E+03  0.10566000000E+00 0. -1.
          4    1    1    2  501    0  0.49052123332E+01 -0.11368669334E+02  0.21516065773E+03  0.21551662670E+03  0.00000000000E+00 0.  1.
</event>
<event>
 5    1  0.6336319E-005  0.4959013E+03  0.7818608E-02  0.1010830E+00
         21   -1    0    0  501  502  0.00000000000E+00  0.00000000000E+00  0.16463627053E+03  0.16463627053E+03  0.00000000000E+00 0. -1.
         -4   -1    0    0    0  501 -0.00000000000E+00 -0.00000000000E+00 -0.19199882068E+04  0.19199882068E+04  0.00000000000E+00 0. -1.
        -13    1    1    2    0    0  0.19923195132E+01  0.59262666518E+02 -0.35394197861E+03  0.35887458584E+03  0.10566000000E+00 0.  1.
         13    1    1    2    0    0  0.14554254734E+03 -0.50818625710E+03 -0.83295237238E+03  0.98653209314E+03  0.10566000000E+00 0. -1.
         -4    1    1    2    0  502 -0.14753486685E+03  0.44892359058E+03 -0.56845758526E+03  0.73921779832E+03  0.00000000000E+00 0. -1.
</event>
<event>
 5    1  0.6336319E-005  0.3001240E+02  0.7818608E-02  0.1404809E+00
          4   -1    0    0  502    0 -0.00000000000E+00  0.00000000000E+00  0.16590969989E+03  0.16590969989E+03  0.00000000000E+00 0.  1.
         21   -1    0    0  501  502  0.00000000000E+00 -0.00000000000E+00 -0.28566100493E+02  0.28566100493E+02  0.00000000000E+00 0. -1.
        -13    1    1    2    0    0  0.17824403760E+02  0.25542281468E+02  0.14817853119E+03  0.15141666283E+03  0.10566000000E+00 0.  1.
         13    1    1    2    0    0 -0.22298082281E+02 -0.90124620899E+01 -0.30336196672E+01  0.24241348119E+02  0.10566000000E+00 0. -1.
          4    1    1    2  501    0  0.44736785206E+01 -0.16529819378E+02 -0.78013121307E+01  0.18817789433E+02  0.00000000000E+00 0.  1.
</event>
<event>
 5    1  0.6336319E-005  0.1981718E+03  0.7818608E-02  0.1075619E+00
         -4   -1    0    0    0  501 -0.00000000000E+00  0.00000000000E+00  0.25911293229E+03  0.25911293229E+03  0.00000000000E+00 0. -1.
         21   -1    0    0  501  502  0.00000000000E+00 -0.00000000000E+00 -0.13222557301E+04  0.13222557301E+04  0.00000000000E+00 0. -1.
        -13    1    1    2    0    0  0.61643915260E+02  0.11642124606E+03 -0.79904418815E+01  0.13197627494E+03  0.10566000000E+00 0.  1.
         13    1    1    2    0    0  0.14005315877E+03 -0.14247293738E+03 -0.11891685768E+04  0.12058338776E+04  0.10566000000E+00 0. -1.
         -4    1    1    2    0  502 -0.20169707403E+03  0.26051691324E+02  0.13401622084E+03  0.24355850989E+03  0.00000000000E+00 0. -1.
</event>
<event>
 5    1  0.6336319E-005  0.3263021E+03  0.7818608E-02  0.9970039E-01
         -4   -1    0    0    0  501 -0.00000000000E+00  0.00000000000E+00  0.35502663752E+03  0.35502663752E+03  0.00000000000E+00 0. -1.
         21   -1    0    0  501  502  0.00000000000E+00 -0.00000000000E+00 -0.50631686963E+03  0.50631686963E+03  0.00000000000E+00 0. -1.
        -13    1    1    2    0    0  0.26893918087E+03 -0.14679707232E+03  0.43661758801E+00  0.30639494977E+03  0.10566000000E+00 0.  1.
         13    1    1    2    0    0 -0.23313705634E+03  0.29758462533E+03 -0.12123328644E+03  0.39699750273E+03  0.10566000000E+00 0. -1.
         -4    1    1    2    0  502 -0.35802124533E+02 -0.15078755301E+03 -0.30493563270E+02  0.15795105465E+03  0.00000000000E+00 0. -1.
</event>
<event>
 5    1  0.6336319E-005  0.6817332E+03  0.7818608E-02  0.9149906E-01
         21   -1    0    0  501  502  0.00000000000E+00  0.00000000000E+00  0.23749328008E+04  0.23749328008E+04  0.00000000000E+00 0. -1.
          4   -1    0    0  502    0 -0.00000000000E+00 -0.00000000000E+00 -0.44098487917E+03  0.44098487917E+03  0.00000000000E+00 0.  1.
        -13    1    1    2    0    0 -0.57037020896E+03 -0.40018447024E+03  0.50937390812E+02  0.69861607084E+03  0.10566000000E+00 0.  1.
         13    1    1    2    0    0  0.66398152421E+03  0.12288156531E+03  0.12949354731E+04  0.14604209100E+04  0.10566000000E+00 0. -1.
          4    1    1    2  501    0 -0.93611315252E+02  0.27730290494E+03  0.58807505766E+03  0.65688069911E+03  0.00000000000E+00 0.  1.
</event>
<event>
 5    1  0.6336319E-005  0.4471845E+03  0.7818608E-02  0.9961829E-01
          4   -1    0    0  502    0 -0.00000000000E+00  0.00000000000E+00  0.98884370270E+03  0.98884370270E+03  0.00000000000E+00 0.  1.
         21   -1    0    0  501  502  0.00000000000E+00 -0.00000000000E+00 -0.41142899573E+03  0.41142899573E+03  0.00000000000E+00 0.  1.
        -13    1    1    2    0    0  0.39925329126E+03 -0.78312688415E+02  0.62510498306E+03  0.74585006453E+03  0.10566000000E+00 0.  1.
         13    1    1    2    0    0  0.20068637170E+02 -0.12869761646E+03 -0.12489382552E+03  0.18045582700E+03  0.10566000000E+00 0. -1.
          4    1    1    2  501    0 -0.41932192843E+03  0.20701030488E+03  0.77203549435E+02  0.47396680689E+03  0.00000000000E+00 0.  1.
</event>
<event>
 5    1  0.6336319E-005  0.2934674E+02  0.7818608E-02  0.1410232E+00
         21   -1    0    0  501  502  0.00000000000E+00  0.00000000000E+00  0.22522181624E+03  0.22522181624E+03  0.00000000000E+00 0.  1.
         -4   -1    0    0    0  501 -0.00000000000E+00 -0.00000000000E+00 -0.10152643094E+02  0.10152643094E+02  0.00000000000E+00 0. -1.
        -13    1    1    2    0    0 -0.16280905363E+02  0.20132363903E+02  0.40032957621E+02  0.47676291967E+02  0.10566000000E+00 0.  1.
         13    1    1    2    0    0  0.75239266033E+01 -0.34667957179E+02  0.48829366121E+02  0.60355570466E+02  0.10566000000E+00 0. -1.
         -4    1    1    2    0  502  0.87569787600E+01  0.14535593276E+02  0.12620684940E+03  0.12734259690E+03  0.00000000000E+00 0. -1.
</event>
<event>
 5    1  0.6336319E-005  0.2445017E+03  0.7818608E-02  0.1049848E+00
         -4   -1    0    0    0  501 -0.00000000000E+00  0.00000000000E+00  0.13096478999E+04  0.13096478999E+04  0.00000000000E+00 0. -1.
         21   -1    0    0  501  502  0.00000000000E+00 -0.00000000000E+00 -0.31889828274E+03  0.31889828274E+03  0.00000000000E+00 0. -1.
        -13    1    1    2    0    0  0.11915977996E+03  0.88148247769E+02  0.41829659642E+03  0.44378059949E+03  0.10566000000E+00 0.  1.
         13    1    1    2    0    0 -0.16647197364E+03 -0.32117651388E+03  0.78594557910E+03  0.86520386936E+03  0.10566000000E+00 0. -1.
         -4    1    1    2    0  502  0.47312193677E+02  0.23302826611E+03 -0.21349255833E+03  0.31956171382E+03  0.00000000000E+00 0. -1.
</event>
<event>
 5    1  0.6336319E-005  0.5050235E+03  0.7818608E-02  0.9509597E-01
         21   -1    0    0  501  502  0.00000000000E+00  0.00000000000E+00  0.24523907676E+03  0.24523907676E+03  0.00000000000E+00 0.  1.
          4   -1    0    0  502    0 -0.00000000000E+00 -0.00000000000E+00 -0.27140845066E+04  0.27140845066E+04  0.00000000000E+00 0.  1.
        -13    1    1    2    0    0 -0.27751138192E+03  0.15216188547E+03 -0.77588175563E+03  0.83794887456E+03  0.10566000000E+00 0.  1.
         13    1    1    2    0    0 -0.40472152482E+03 -0.15248192244E+03 -0.12114363868E+04  0.12863235907E+04  0.10566000000E+00 0. -1.
          4    1    1    2  501    0  0.68223290674E+03  0.32003696616E+00 -0.48152728738E+03  0.83505111817E+03  0.00000000000E+00 0.  1.
</event>
<event>
 5    1  0.6336319E-005  0.6974173E+03  0.7818608E-02  0.9126733E-01
         21   -1    0    0  501  502  0.00000000000E+00  0.00000000000E+00  0.80585618900E+03  0.80585618900E+03  0.00000000000E+00 0.  1.
         -4   -1    0    0    0  501 -0.00000000000E+00 -0.00000000000E+00 -0.10043389573E+04  0.10043389573E+04  0.00000000000E+00 0. -1.
        -13    1    1    2    0    0  0.54454241338E+03 -0.29533855768E+03 -0.16521317381E+03  0.64112924406E+03  0.10566000000E+00 0.  1.
         13    1    1    2    0    0 -0.59460916984E+03  0.60835618955E+03 -0.44805708659E+02  0.85185966035E+03  0.10566000000E+00 0. -1.
         -4    1    1    2    0  502  0.50066756464E+02 -0.31301763187E+03  0.11536114170E+02  0.31720624189E+03  0.00000000000E+00 0. -1.
</event>
<event>
 5    1  0.6336319E-005  0.5763628E+02  0.7818608E-02  0.1263481E+00
         -4   -1    0    0    0  501 -0.00000000000E+00  0.00000000000E+00  0.10089189308E+03  0.10089189308E+03  0.00000000000E+00 0. -1.
         21   -1    0    0  501  502  0.00000000000E+00 -0.00000000000E+00 -0.13620242788E+03  0.13620242788E+03  0.00000000000E+00 0.  1.
        -13    1    1    2    0    0 -0.45609244427E+02  0.24629448841E+02 -0.10919938396E+03  0.12087733265E+03  0.10566000000E+00 0.  1.
         13    1    1    2    0    0  0.55592527846E+02 -0.17141735370E+02  0.82576728182E+02  0.10101136295E+03  0.10566000000E+00 0. -1.
         -4    1    1    2    0  502 -0.99832834194E+01 -0.74877134702E+01 -0.86878790220E+01  0.15205625365E+02  0.00000000000E+00 0. -1.
</event>
<event>
 5    1  0.6336319E-005  0.4751396E+03  0.7818608E-02  0.9534191E-01
         -4   -1    0    0    0  501 -0.00000000000E+00  0.00000000000E+00  0.76802570490E+03  0.76802570490E+03  0.00000000000E+00 0. -1.
         21   -1    0    0  501  502  0.00000000000E+00 -0.00000000000E+00 -0.89135656521E+03  0.89135656521E+03  0.00000000000E+00 0.  1.
        -13    1    1    2    0    0  0.34700393254E+03  0.38203892703E+03 -0.13138190792E+03  0.53256613473E+03  0.10566000000E+00 0.  1.
         13    1    1    2    0    0 -0.68881414631E+02 -0.47875084440E+03  0.40619302475E+03  0.63161681803E+03  0.10566000000E+00 0. -1.
         -4    1    1    2    0  502 -0.27812251791E+03  0.96711917377E+02 -0.39814197715E+03  0.49519931735E+03  0.00000000000E+00 0. -1.
</event>
<event>
 5    1  0.6336319E-005  0.3918503E+03  0.7818608E-02  0.1007150E+00
          4   -1    0    0  502    0 -0.00000000000E+00  0.00000000000E+00  0.20105999919E+04  0.20105999919E+04  0.00000000000E+00 0.  1.
         21   -1    0    0  501  502  0.00000000000E+00 -0.00000000000E+00 -0.17345554214E+03  0.17345554214E+03  0.00000000000E+00 0.  1.
        -13    1    1    2    0    0 -0.38981401559E+03 -0.16691268283E+03  0.11447691605E+04  0.12207830489E+04  0.10566000000E+00 0.  1.
         13    1    1    2    0    0  0.30006155517E+01  0.13526865058E+03  0.52229431564E+03  0.53953496164E+03  0.10566000000E+00 0. -1.
          4    1    1    2  501    0  0.38681340004E+03  0.31644032244E+02  0.17008097359E+03  0.42373752348E+03  0.00000000000E+00 0.  1.
</event>
<event>
 5    1  0.6336319E-005  0.4818691E+03  0.7818608E-02  0.9738893E-01
         -4   -1    0    0    0  501 -0.00000000000E+00  0.00000000000E+00  0.23364266747E+04  0.23364266747E+04  0.00000000000E+00 0. -1.
         21   -1    0    0  501  502  0.00000000000E+00 -0.00000000000E+00 -0.20188475190E+03  0.20188475190E+03  0.00000000000E+00 0. -1.
        -13    1    1    2    0    0 -0.19765367418E+03 -0.99167534439E+02  0.95616572300E+03  0.98140413481E+03  0.10566000000E+00 0.  1.
         13    1    1    2    0    0 -0.24502874307E+03  0.37294846534E+03  0.79057463000E+03  0.90782041147E+03  0.10566000000E+00 0. -1.
         -4    1    1    2    0  502  0.44268241725E+03 -0.27378093090E+03  0.38780156980E+03  0.64908688032E+03  0.00000000000E+00 0. -1.
</event>
<event>
 5    1  0.6336319E-005  0.1792079E+03  0.7818608E-02  0.1075461E+00
         -4   -1    0    0    0  501 -0.00000000000E+00  0.00000000000E+00  0.13799703679E+04  0.13799703679E+04  0.00000000000E+00 0. -1.
         21   -1    0    0  501  502  0.00000000000E+00 -0.00000000000E+00 -0.25063100492E+03  0.25063100492E+03  0.00000000000E+00 0. -1.
        -13    1    1    2    0    0 -0.16519772133E+03  0.68757614801E+02  0.20627682738E+03  0.27307148772E+03  0.10566000000E+00 0.  1.
         13    1    1    2    0    0 -0.97139021162E+02  0.14435535023E+03 -0.15172111491E+03  0.23085442263E+03  0.10566000000E+00 0. -1.
         -4    1    1    2    0  502  0.26233674249E+03 -0.21311296503E+03  0.10747836505E+04  0.11266754625E+04  0.00000000000E+00 0. -1.
</event>
<event>
 5    1  0.6336319E-005  0.4756394E+03  0.7818608E-02  0.9633077E-01
         21   -1    0    0  501  502  0.00000000000E+00  0.00000000000E+00  0.63682223622E+03  0.63682223622E+03  0.00000000000E+00 0. -1.
         -4   -1    0    0    0  501 -0.00000000000E+00 -0.00000000000E+00 -0.71842698339E+03  0.71842698339E+03  0.00000000000E+00 0. -1.
        -13    1    1    2    0    0  0.17665056847E+03  0.28201257155E+03 -0.34539529220E+02  0.33455867063E+03  0.10566000000E+00 0.  1.
         13    1    1    2    0    0 -0.56970438939E+03 -0.25282177185E+03  0.37315522216E+01  0.62329437287E+03  0.10566000000E+00 0. -1.
         -4    1    1    2    0  502  0.39305382092E+03 -0.29190799693E+02 -0.50796770169E+02  0.39739617611E+03  0.00000000000E+00 0. -1.
</event>
<event>
 5    1  0.6336319E-005  0.4954657E+03  0.7818608E-02  0.9588120E-01
         21   -1    0    0  501  502  0.00000000000E+00  0.00000000000E+00  0.53905552582E+03  0.53905552582E+03  0.00000000000E+00 0.  1.
          4   -1    0    0  502    0 -0.00000000000E+00 -0.00000000000E+00 -0.10561647285E+04  0.10561647285E+04  0.00000000000E+00 0.  1.
        -13    1    1    2    0    0 -0.21919133252E+03 -0.32902255094E+03 -0.18149616372E+03  0.43501902015E+03  0.10566000000E+00 0.  1.
         13    1    1    2    0    0  0.19238876935E+03 -0.28677727836E+03 -0.41370213224E+03  0.53889155805E+03  0.10566000000E+00 0. -1.
          4    1    1    2  501    0  0.26802563167E+02  0.61579982930E+03  0.78089093283E+02  0.62130967613E+03  0.00000000000E+00 0.  1.
</event>
<event>
 5    1  0.6336319E-005  0.1135629E+03  0.7818608E-02  0.1143879E+00
          4   -1    0    0  502    0 -0.00000000000E+00  0.00000000000E+00  0.39206445647E+03  0.39206445647E+03  0.00000000000E+00 0.  1.
         21   -1    0    0  501  502  0.00000000000E+00 -0.00000000000E+00 -0.62856498267E+02  0.62856498267E+02  0.00000000000E+00 0. -1.
        -13    1    1    2    0    0 -0.77395103218E+02  0.86817007996E+02  0.26870189105E+03  0.29279329278E+03  0.10566000000E+00 0.  1.
         13    1    1    2    0    0  0.82784896594E+02 -0.69629319066E+02  0.80780125924E+02  0.13500748530E+03  0.10566000000E+00 0. -1.
          4    1    1    2  501    0 -0.53897933759E+01 -0.17187688930E+02 -0.20274058768E+02  0.27120176664E+02  0.00000000000E+00 0.  1.
</event>
<event>
 5    1  0.6336319E-005  0.1914144E+03  0.7818608E-02  0.1066186E+00
         21   -1    0    0  501  502  0.00000000000E+00  0.00000000000E+00  0.84470783518E+03  0.84470783518E+03  0.00000000000E+00 0.  1.
         -4   -1    0    0    0  501 -0.00000000000E+00 -0.00000000000E+00 -0.14881805567E+03  0.14881805567E+03  0.00000000000E+00 0. -1.
        -13    1    1    2    0    0 -0.13872352586E+03 -0.11748309803E+03  0.41677529212E+03  0.45469566771E+03  0.10566000000E+00 0.  1.
         13    1    1    2    0    0  0.14551982782E+03  0.12678314094E+03 -0.57992122162E+02  0.20152687789E+03  0.10566000000E+00 0. -1.
         -4    1    1    2    0  502 -0.67963019607E+01 -0.93000429108E+01  0.33710660956E+03  0.33730334526E+03  0.00000000000E+00 0. -1.
</event>
<event>
 5    1  0.6336319E-005  0.4883180E+03  0.7818608E-02  0.9870152E-01
         21   -1    0    0  501  502  0.00000000000E+00  0.00000000000E+00  0.42894605285E+03  0.42894605285E+03  0.00000000000E+00 0.  1.
          4   -1    0    0  502    0 -0.00000000000E+00 -0.00000000000E+00 -0.77256006431E+03  0.77256006431E+03  0.00000000000E+00 0.  1.
        -13    1    1    2    0    0  0.30821992764E+03 -0.44907788809E+03 -0.24507181148E+03  0.59726935072E+03  0.10566000000E+00 0.  1.
         13    1    1    2    0    0  0.24001409792E+02  0.13366328121E+03 -0.44765633767E+02  0.14298920779E+03  0.10566000000E+00 0. -1.
          4    1    1    2  501    0 -0.33222133744E+03  0.31541460688E+03 -0.53776566220E+02  0.46124755865E+03  0.00000000000E+00 0.  1.
</event>
<event>
 5    1  0.6336319E-005  0.8912048E+02  0.7818608E-02  0.1183930E+00
         -4   -1    0    0    0  501 -0.00000000000E+00  0.00000000000E+00  0.41116041860E+03  0.41116041860E+03  0.00000000000E+00 0. -1.
         21   -1    0    0  501  502  0.00000000000E+00 -0.00000000000E+00 -0.15807104021E+03  0.15807104021E+03  0.00000000000E+00 0. -1.
        -13    1    1    2    0    0 -0.15391913204E+02 -0.92349996144E+02  0.13712088761E+03  0.16603488116E+03  0.10566000000E+00 0.  1.
         13    1    1    2    0    0 -0.17391178011E+02  0.87096444347E+02  0.24989870474E+03  0.26521240070E+03  0.10566000000E+00 0. -1.
         -4    1    1    2    0  502  0.32783091216E+02  0.52535517973E+01 -0.13393021396E+03  0.13798417694E+03  0.00000000000E+00 0. -1.
</event>
<event>
 5    1  0.6336319E-005  0.4627102E+03  0.7818608E-02  0.9563676E-01
         21   -1    0    0  501  502  0.00000000000E+00  0.00000000000E+00  0.56766766217E+03  0.56766766217E+03  0.00000000000E+00 0.  1.
         -4   -1    0    0    0  501 -0.00000000000E+00 -0.00000000000E+00 -0.11118503891E+04  0.11118503891E+04  0.00000000000E+00 0. -1.
        -13    1    1    2    0    0  0.32706105116E+03 -0.25961296687E+03  0.39043190533E+02  0.41939504724E+03  0.10566000000E+00 0.  1.
         13    1    1    2    0    0 -0.54569573084E+03  0.10686439603E+03  0.64352486978E+02  0.55977234974E+03  0.10566000000E+00 0. -1.
         -4    1    1    2    0  502  0.21863467967E+03  0.15274857084E+03 -0.64757840444E+03  0.70035065428E+03  0.00000000000E+00 0. -1.
</event>
<event>
 5    1  0.6336319E-005  0.2463832E+03  0.7818608E-02  0.1032284E+00
         21   -1    0    0  501  502  0.00000000000E+00  0.00000000000E+00  0.27161194874E+03  0.27161194874E+03  0.00000000000E+00 0.  1.
          4   -1    0    0  502    0 -0.00000000000E+00 -0.00000000000E+00 -0.84246587286E+03  0.84246587286E+03  0.00000000000E+00 0.  1.
        -13    1    1    2    0    0  0.23824921345E+03 -0.10342853707E+03 -0.70094492046E+03  0.74751852330E+03  0.10566000000E+00 0.  1.
         13    1    1    2    0    0 -0.20014134161E+03  0.10054880438E+02 -0.19580467575E+01  0.20040334916E+03  0.10566000000E+00 0. -1.
          4    1    1    2  501    0 -0.38107871838E+02  0.93373656634E+02  0.13204904311E+03  0.16615594914E+03  0.00000000000E+00 0.  1.
</event>
<event>
 5    1  0.6336319E-005  0.9573800E+02  0.7818608E-02  0.1171806E+00
         21   -1    0    0  501  502  0.00000000000E+00  0.00000000000E+00  0.95451551626E+03  0.95451551626E+03  0.00000000000E+00 0. -1.
         -4   -1    0    0    0  501 -0.00000000000E+00 -0.00000000000E+00 -0.14299488723E+03  0.14299488723E+03  0.00000000000E+00 0. -1.
        -13    1    1    2    0    0  0.33728162977E+02  0.54220906903E+02  0.15044330689E+03  0.16343407073E+03  0.10566000000E+00 0.  1.
         13    1    1    2    0    0 -0.60646696692E+02 -0.78836158555E+02 -0.11789646986E+03  0.15424898860E+03  0.10566000000E+00 0. -1.
         -4    1    1    2    0  502  0.26918533714E+02  0.24615251651E+02  0.77897379200E+03  0.77982734415E+03  0.00000000000E+00 0. -1.
</event>
<event>
 5    1  0.6336319E-005  0.2964433E+02  0.7818608E-02  0.1407788E+00
         21   -1    0    0  501  502  0.00000000000E+00  0.00000000000E+00  0.45661244276E+02  0.45661244276E+02  0.00000000000E+00 0.  1.
         -4   -1    0    0    0  501 -0.00000000000E+00 -0.00000000000E+00 -0.15343066757E+03  0.15343066757E+03  0.00000000000E+00 0. -1.
        -13    1    1    2    0    0  0.53995170514E+01 -0.41902135965E+02 -0.68649726070E+01  0.42802836305E+02  0.10566000000E+00 0.  1.
         13    1    1    2    0    0 -0.22433616055E+02  0.18954584847E+02 -0.11892853846E+03  0.12250123200E+03  0.10566000000E+00 0. -1.
         -4    1    1    2    0  502  0.17034099003E+02  0.22947551118E+02  0.18024087775E+02  0.33787843544E+02  0.00000000000E+00 0. -1.
</event>
<event>
 5    1  0.6336319E-005  0.5013727E+03  0.7818608E-02  0.9856767E-01
          4   -1    0    0  502    0 -0.00000000000E+00  0.00000000000E+00  0.51564149764E+03  0.51564149764E+03  0.00000000000E+00 0.  1.
         21   -1    0    0  501  502  0.00000000000E+00 -0.00000000000E+00 -0.68646591444E+03  0.68646591444E+03  0.00000000000E+00 0.  1.
        -13    1    1    2    0    0  0.22396156485E+03  0.48655298543E+03  0.37803801711E+02  0.53695598400E+03  0.10566000000E+00 0.  1.
         13    1    1    2    0    0  0.75940874954E+02 -0.10705748125E+03 -0.11056483055E+03  0.17161851211E+03  0.10566000000E+00 0. -1.
          4    1    1    2  501    0 -0.29990243980E+03 -0.37949550419E+03 -0.98063387967E+02  0.49353291598E+03  0.00000000000E+00 0.  1.
</event>
<event>
 5    1  0.6336319E-005  0.2340808E+03  0.7818608E-02  0.1038989E+00
          4   -1    0    0  502    0 -0.00000000000E+00  0.00000000000E+00  0.44699137394E+03  0.44699137394E+03  0.00000000000E+00 0.  1.
         21   -1    0    0  501  502  0.00000000000E+00 -0.00000000000E+00 -0.40473005417E+03  0.40473005417E+03  0.00000000000E+00 0.  1.
        -13    1    1    2    0    0 -0.11109301494E+03  0.23790654147E+03  0.11769658241E+03  0.28773890442E+03  0.10566000000E+00 0.  1.
         13    1    1    2    0    0  0.92983026248E+02 -0.19684945783E+03  0.19353628233E+03  0.29129341901E+03  0.10566000000E+00 0. -1.
          4    1    1    2  501    0  0.18109988691E+02 -0.41057083639E+02 -0.26897154497E+03  0.27268910468E+03  0.00000000000E+00 0.  1.
</event>
<event>
 5    1  0.6336319E-005  0.1261393E+03  0.7818608E-02  0.1127355E+00
          4   -1    0    0  502    0 -0.00000000000E+00  0.00000000000E+00  0.73334825615E+02  0.73334825615E+02  0.00000000000E+00 0.  1.
         21   -1    0    0  501  502  0.00000000000E+00 -0.00000000000E+00 -0.64546600853E+03  0.64546600853E+03  0.00000000000E+00 0.  1.
        -13    1    1    2    0    0 -0.13774559240E+03  0.32034532074E+02 -0.31032804466E+02  0.14478641368E+03  0.10566000000E+00 0.  1.
         13    1    1    2    0    0  0.85205360229E+02  0.46508023620E+02 -0.27814959993E+03  0.29460169853E+03  0.10566000000E+00 0. -1.
          4    1    1    2  501    0  0.52540232170E+02 -0.78542555694E+02 -0.26294877853E+03  0.27941272194E+03  0.00000000000E+00 0.  1.
</event>
<event>
 5    1  0.6336319E-005  0.4861929E+03  0.7818608E-02  0.9988768E-01
         21   -1    0    0  501  502  0.00000000000E+00  0.00000000000E+00  0.16431403315E+03  0.16431403315E+03  0.00000000000E+00 0.  1.
          4   -1    0    0  502    0 -0.00000000000E+00 -0.00000000000E+00 -0.20612512145E+04  0.20612512145E+04  0.00000000000E+00 0.  1.
        -13    1    1    2    0    0  0.38643284748E+03 -0.36379021412E+03 -0.81878526798E+03  0.97574740160E+03  0.10566000000E+00 0.  1.
         13    1    1    2    0    0 -0.91304348847E+02  0.16273495191E+02 -0.52433625191E+03  0.53247518909E+03  0.10566000000E+00 0. -1.
          4    1    1    2  501    0 -0.29512849863E+03  0.34751671893E+03 -0.55381566148E+03  0.71734265699E+03  0.00000000000E+00 0.  1.
</event>
<event>
 5    1  0.6336319E-005  0.3053039E+03  0.7818608E-02  0.1005140E+00
         21   -1    0    0  501  502  0.00000000000E+00  0.00000000000E+00  0.24247638113E+03  0.24247638113E+03  0.00000000000E+00 0.  1.
         -4   -1    0    0    0  501 -0.00000000000E+00 -0.00000000000E+00 -0.11527505412E+04  0.11527505412E+04  0.00000000000E+00 0. -1.
        -13    1    1    2    0    0 -0.26916809632E+03  0.21344681431E+03 -0.10644330078E+02  0.34369218720E+03  0.10566000000E+00 0.  1.
         13    1    1    2    0    0  0.30404908910E+03 -0.35986973778E+02 -0.77109801030E+03  0.82965840170E+03  0.10566000000E+00 0. -1.
         -4    1    1    2    0  502 -0.34880992779E+02 -0.17745984053E+03 -0.12853181966E+03  0.22187633340E+03  0.00000000000E+00 0. -1.
</event>
<event>
 5    1  0.6336319E-005  0.1387058E+03  0.7818608E-02  0.1112818E+00
         21   -1    0    0  501  502  0.00000000000E+00  0.00000000000E+00  0.18191879857E+03  0.18191879857E+03  0.00000000000E+00 0.  1.
          4   -1    0    0  502    0 -0.00000000000E+00 -0.00000000000E+00 -0.29201506091E+03  0.29201506091E+03  0.00000000000E+00 0.  1.
        -13    1    1    2    0    0 -0.21513821155E+01  0.13300793419E+03 -0.16216487582E+03  0.20974555327E+03  0.10566000000E+00 0.  1.
         13    1    1    2    0    0 -0.42889656721E+02 -0.15237159109E+03 -0.36962209974E+02  0.16255103984E+03  0.10566000000E+00 0. -1.
          4    1    1    2  501    0  0.45041038837E+02  0.19363656901E+02  0.89030823456E+02  0.10163726636E+03  0.00000000000E+00 0.  1.
</event>
<event>
 5    1  0.6336319E-005  0.4423286E+03  0.7818608E-02  0.9877504E-01
          4   -1    0    0  502    0 -0.00000000000E+00  0.00000000000E+00  0.52871383613E+03  0.52871383613E+03  0.00000000000E+00 0.  1.
         21   -1    0    0  501  502  0.00000000000E+00 -0.00000000000E+00 -0.69123463860E+03  0.69123463860E+03  0.00000000000E+00 0.  1.
        -13    1    1    2    0    0  0.35894063232E+03 -0.26146931341E+03 -0.33417024199E+03  0.55576464549E+03  0.10566000000E+00 0.  1.
         13    1    1    2    0    0  0.91516681663E+02  0.15296660408E+03  0.44978725618E+02  0.18384009875E+03  0.10566000000E+00 0. -1.
          4    1    1    2  501    0 -0.45045731398E+03  0.10850270933E+03  0.12667071391E+03  0.48034373048E+03  0.00000000000E+00 0.  1.
</event>
<event>
 5    1  0.6336319E-005  0.1555840E+03  0.7818608E-02  0.1095732E+00
         21   -1    0    0  501  502  0.00000000000E+00  0.00000000000E+00  0.54833156597E+03  0.54833156597E+03  0.00000000000E+00 0. -1.
          4   -1    0    0  502    0 -0.00000000000E+00 -0.00000000000E+00 -0.29458653547E+03  0.29458653547E+03  0.00000000000E+00 0.  1.
        -13    1    1    2    0    0 -0.10060996117E+02 -0.15998959995E+03 -0.19073358331E+03  0.24915297851E+03  0.10566000000E+00 0.  1.
         13    1    1    2    0    0  0.31871678285E+02  0.14185850802E+03 -0.29634659321E+01  0.14542500977E+03  0.10566000000E+00 0. -1.
          4    1    1    2  501    0 -0.21810682168E+02  0.18131091929E+02  0.44744207974E+03  0.44834011316E+03  0.00000000000E+00 0.  1.
</event>
<event>
 5    1  0.6336319E-005  0.3711278E+03  0.7818608E-02  0.1021718E+00
         -4   -1    0    0    0  501 -0.00000000000E+00  0.00000000000E+00  0.71553688737E+03  0.71553688737E+03  0.00000000000E+00 0. -1.
         21   -1    0    0  501  502  0.00000000000E+00 -0.00000000000E+00 -0.43610145776E+03  0.43610145776E+03  0.00000000000E+00 0. -1.
        -13    1    1    2    0    0 -0.13365911487E+02  0.99222947047E+02  0.92233130336E+01  0.10054313243E+03  0.10566000000E+00 0.  1.
         13    1    1    2    0    0  0.23226046671E+03  0.21483347446E+03  0.50943268848E+03  0.59968326757E+03  0.10566000000E+00 0. -1.
         -4    1    1    2    0  502 -0.21889455522E+03 -0.31405642151E+03 -0.23922057189E+03  0.45141194514E+03  0.00000000000E+00 0. -1.
</event>
<event>
 5    1  0.6336319E-005  0.2364444E+03  0.7818608E-02  0.1052933E+00
          4   -1    0    0  502    0 -0.00000000000E+00  0.00000000000E+00  0.54970673932E+03  0.54970673932E+03  0.00000000000E+00 0.  1.
         21   -1    0    0  501  502  0.00000000000E+00 -0.00000000000E+00 -0.94153546686E+03  0.94153546686E+03  0.00000000000E+00 0.  1.
        -13    1    1    2    0    0  0.21503108449E+03  0.74761376900E+02 -0.76941572654E+03  0.80238905912E+03  0.10566000000E+00 0.  1.
         13    1    1    2    0    0  0.13698120000E+03  0.60044397472E+02  0.24921802794E+03  0.29065239623E+03  0.10566000000E+00 0. -1.
          4    1    1    2  501    0 -0.35201228449E+03 -0.13480577437E+03  0.12836897106E+03  0.39820075084E+03  0.00000000000E+00 0.  1.
</event>
<event>
 5    1  0.6336319E-005  0.4530265E+03  0.7818608E-02  0.9837814E-01
         -4   -1    0    0    0  501 -0.00000000000E+00  0.00000000000E+00  0.19405042008E+04  0.19405042008E+04  0.00000000000E+00 0. -1.
         21   -1    0    0  501  502  0.00000000000E+00 -0.00000000000E+00 -0.25332714471E+03  0.25332714471E+03  0.00000000000E+00 0. -1.
        -13    1    1    2    0    0  0.18543227496E+03 -0.40009127184E+02  0.83817396937E+03  0.85937272062E+03  0.10566000000E+00 0.  1.
         13    1    1    2    0    0 -0.43021952421E+03 -0.23740005207E+03  0.10343256383E+03  0.50214134480E+03  0.10566000000E+00 0. -1.
         -4    1    1    2    0  502  0.24478724925E+03  0.27740917925E+03  0.74557052294E+03  0.83231728013E+03  0.00000000000E+00 0. -1.
</event>
<event>
 5    1  0.6336319E-005  0.3218566E+03  0.7818608E-02  0.1018013E+00
          4   -1    0    0  502    0 -0.00000000000E+00  0.00000000000E+00  0.16519440073E+04  0.16519440073E+04  0.00000000000E+00 0.  1.
         21   -1    0    0  501  502  0.00000000000E+00 -0.00000000000E+00 -0.37023381396E+03  0.37023381396E+03  0.00000000000E+00 0.  1.
        -13    1    1    2    0    0  0.83198016805E+01 -0.24057691145E+03  0.96714904806E+03  0.99665629068E+03  0.10566000000E+00 0.  1.
         13    1    1    2    0    0 -0.43526132250E+03  0.13575455709E+03  0.36360570012E+03  0.58317307461E+03  0.10566000000E+00 0. -1.
          4    1    1    2  501    0  0.42694152082E+03  0.10482235436E+03 -0.49044554798E+02  0.44234845600E+03  0.00000000000E+00 0.  1.
</event>
<event>
 5    1  0.6336319E-005  0.9079230E+02  0.7818608E-02  0.1180760E+00
         21   -1    0    0  501  502  0.00000000000E+00  0.00000000000E+00  0.10561033778E+03  0.10561033778E+03  0.00000000000E+00 0. -1.
          4   -1    0    0  502    0 -0.00000000000E+00 -0.00000000000E+00 -0.63193516825E+03  0.63193516825E+03  0.00000000000E+00 0.  1.
        -13    1    1    2    0    0 -0.31167022989E+02 -0.82780470572E+02 -0.51979511017E+03  0.52726744385E+03  0.10566000000E+00 0.  1.
         13    1    1    2    0    0  0.14169028645E+02  0.14352856109E+03  0.11462161727E+02  0.14468103379E+03  0.10566000000E+00 0. -1.
          4    1    1    2  501    0  0.16997994344E+02 -0.60748090522E+02 -0.17991882034E+02  0.65597028385E+02  0.00000000000E+00 0.  1.
</event>
<event>
 5    1  0.6336319E-005  0.4704289E+02  0.7818608E-02  0.1304320E+00
          4   -1    0    0  502    0 -0.00000000000E+00  0.00000000000E+00  0.49729718680E+02  0.49729718680E+02  0.00000000000E+00 0.  1.
         21   -1    0    0  501  502  0.00000000000E+00 -0.00000000000E+00 -0.68013681740E+02  0.68013681740E+02  0.00000000000E+00 0. -1.
        -13    1    1    2    0    0 -0.30619758718E+02 -0.39955953136E+02  0.16632391721E+02  0.53015992241E+02  0.10566000000E+00 0.  1.
         13    1    1    2    0    0  0.21319337445E+02  0.35522554636E+02 -0.18560168346E+02  0.45396663424E+02  0.10566000000E+00 0. -1.
          4    1    1    2  501    0  0.93004212730E+01  0.44333984998E+01 -0.16356186434E+02  0.19330744755E+02  0.00000000000E+00 0.  1.
</event>
<event>
 5    1  0.8827242E-005  0.4990888E+03  0.7818608E-02  0.9718844E-01
          4   -1    0    0  502    0 -0.00000000000E+00  0.00000000000E+00  0.10438876129E+04  0.10438876129E+04  0.00000000000E+00 0.  1.
         21   -1    0    0  501  502  0.00000000000E+00 -0.00000000000E+00 -0.42825268931E+03  0.42825268931E+03  0.00000000000E+00 0.  1.
        -13    1    1    2    0    0  0.20613054981E+02 -0.39913029443E+03  0.17657349063E+03  0.43693031335E+03  0.10566000000E+00 0.  1.
         13    1    1    2    0    0  0.32724331110E+02 -0.21081066604E+03  0.35917139866E+03  0.41775126995E+03  0.10566000000E+00 0. -1.
          4    1    1    2  501    0 -0.53337386091E+02  0.60994096048E+03  0.79890034337E+02  0.61745871895E+03  0.00000000000E+00 0.  1.
</event>
<event>
 5    1  0.6336319E-005  0.3444733E+03  0.7818608E-02  0.9904745E-01
         21   -1    0    0  501  502  0.00000000000E+00  0.00000000000E+00  0.13489141185E+03  0.13489141185E+03  0.00000000000E+00 0.  1.
          4   -1    0    0  502    0 -0.00000000000E+00 -0.00000000000E+00 -0.22136529004E+04  0.22136529004E+04  0.00000000000E+00 0.  1.
        -13    1    1    2    0    0 -0.23946429888E+03 -0.24605400915E+03 -0.14019134898E+04  0.14433458248E+04  0.10566000000E+00 0.  1.
         13    1    1    2    0    0  0.25559039537E+03  0.23455615426E+03 -0.75163822714E+03  0.82783034214E+03  0.10566000000E+00 0. -1.
          4    1    1    2  501    0 -0.16126096493E+02  0.11497854890E+02  0.74790228371E+02  0.77368145351E+02  0.00000000000E+00 0.  1.
</event>
<event>
 5    1  0.6336319E-005  0.4867780E+03  0.7818608E-02  0.1005896E+00
         21   -1    0    0  501  502  0.00000000000E+00  0.00000000000E+00  0.98785571130E+02  0.98785571130E+02  0.00000000000E+00 0.  1.
          4   -1    0    0  502    0 -0.00000000000E+00 -0.00000000000E+00 -0.30277746485E+04  0.30277746485E+04  0.00000000000E+00 0.  1.
        -13    1    1    2    0    0  0.62621960151E+02 -0.49418180335E+03 -0.94296619061E+03  0.10664531928E+04  0.10566000000E+00 0.  1.
         13    1    1    2    0    0  0.61681922636E+02  0.39972906793E+02 -0.35139250739E+03  0.35899749062E+03  0.10566000000E+00 0. -1.
          4    1    1    2  501    0 -0.12430388279E+03  0.45420889656E+03 -0.16346303794E+04  0.17011095362E+04  0.00000000000E+00 0.  1.
</event>
<event>
 5    1  0.6336319E-005  0.5187876E+02  0.7818608E-02  0.1284323E+00
          4   -1    0    0  502    0 -0.00000000000E+00  0.00000000000E+00  0.40283330408E+03  0.40283330408E+03  0.00000000000E+00 0.  1.
         21   -1    0    0  501  502  0.00000000000E+00 -0.00000000000E+00 -0.13631019216E+02  0.13631019216E+02  0.00000000000E+00 0. -1.
        -13    1    1    2    0    0 -0.52559786498E+02 -0.16021623953E+02  0.32678293039E+03  0.33137036432E+03  0.10566000000E+00 0.  1.
         13    1    1    2    0    0  0.37672272264E+02  0.10893288749E+02  0.31142982039E+02  0.50077543187E+02  0.10566000000E+00 0. -1.
          4    1    1    2  501    0  0.14887514234E+02  0.51283352042E+01  0.31276372431E+02  0.35016415786E+02  0.00000000000E+00 0.  1.
</event>
<event>
 5    1  0.6336319E-005  0.4259110E+03  0.7818608E-02  0.9657064E-01
         -4   -1    0    0    0  501 -0.00000000000E+00  0.00000000000E+00  0.93118955838E+03  0.93118955838E+03  0.00000000000E+00 0. -1.
         21   -1    0    0  501  502  0.00000000000E+00 -0.00000000000E+00 -0.39472698918E+03  0.39472698918E+03  0.00000000000E+00 0. -1.
        -13    1    1    2    0    0  0.34721835240E+03  0.22802766934E+03  0.33721842343E+02  0.41676657261E+03  0.10566000000E+00 0.  1.
         13    1    1    2    0    0 -0.36166060584E+03 -0.23168127884E+03  0.64017663584E+03  0.77090903809E+03  0.10566000000E+00 0. -1.
         -4    1    1    2    0  502  0.14442253432E+02  0.36536094988E+01 -0.13743590898E+03  0.13824093686E+03  0.00000000000E+00 0. -1.
</event>
<event>
 5    1  0.6336319E-005  0.5007028E+03  0.7818608E-02  0.9781307E-01
         -4   -1    0    0    0  501 -0.00000000000E+00  0.00000000000E+00  0.98515099150E+03  0.98515099150E+03  0.00000000000E+00 0. -1.
         21   -1    0    0  501  502  0.00000000000E+00 -0.00000000000E+00 -0.59296128111E+03  0.59296128111E+03  0.00000000000E+00 0. -1.
        -13    1    1    2    0    0  0.44760499757E+02  0.16435382821E+03  0.49586795005E+03  0.52430975409E+03  0.10566000000E+00 0.  1.
         13    1    1    2    0    0  0.31978481253E+03  0.30926536911E+03 -0.10071509744E+03  0.45612600986E+03  0.10566000000E+00 0. -1.
         -4    1    1    2    0  502 -0.36454531229E+03 -0.47361919732E+03 -0.29631422141E+01  0.59767650865E+03  0.00000000000E+00 0. -1.
</event>
<event>
 5    1  0.6336319E-005  0.4473188E+03  0.7818608E-02  0.9888548E-01
         -4   -1    0    0    0  501 -0.00000000000E+00  0.00000000000E+00  0.48527051705E+03  0.48527051705E+03  0.00000000000E+00 0. -1.
         21   -1    0    0  501  502  0.00000000000E+00 -0.00000000000E+00 -0.83865986469E+03  0.83865986469E+03  0.00000000000E+00 0.  1.
        -13    1    1    2    0    0  0.11202928832E+03  0.12260594424E+03 -0.24185205599E+03  0.29338576509E+03  0.10566000000E+00 0.  1.
         13    1    1    2    0    0 -0.40338898594E+03  0.22138444602E+03  0.17954795922E+03  0.49393443668E+03  0.10566000000E+00 0. -1.
         -4    1    1    2    0  502  0.29135969762E+03 -0.34399039025E+03 -0.29108525087E+03  0.53661017998E+03  0.00000000000E+00 0. -1.
</event>
<event>
 5    1  0.7154089E-005  0.4979105E+03  0.7818608E-02  0.9912284E-01
         -4   -1    0    0    0  501 -0.00000000000E+00  0.00000000000E+00  0.45515979518E+03  0.45515979518E+03  0.00000000000E+00 0. -1.
         21   -1    0    0  501  502  0.00000000000E+00 -0.00000000000E+00 -0.71541657956E+03  0.71541657956E+03  0.00000000000E+00 0. -1.
        -13    1    1    2    0    0 -0.20289490611E+02 -0.10936691739E+03  0.39644526214E+02  0.11808677179E+03  0.10566000000E+00 0.  1.
         13    1    1    2    0    0 -0.31562305265E+03 -0.31443932447E+03 -0.25960288942E+02  0.44627788193E+03  0.10566000000E+00 0. -1.
         -4    1    1    2    0  502  0.33591254326E+03  0.42380624186E+03 -0.27394102165E+03  0.60621172102E+03  0.00000000000E+00 0. -1.
</event>
<event>
 5    1  0.6336319E-005  0.1960040E+02  0.7818608E-02  0.1515490E+00
         21   -1    0    0  501  502  0.00000000000E+00  0.00000000000E+00  0.15405401601E+03  0.15405401601E+03  0.00000000000E+00 0. -1.
          4   -1    0    0  502    0 -0.00000000000E+00 -0.00000000000E+00 -0.41062447606E+02  0.41062447606E+02  0.00000000000E+00 0.  1.
        -13    1    1    2    0    0  0.14950315280E+02 -0.12440090906E+02 -0.35190268530E+02  0.40207386784E+02  0.10566000000E+00 0.  1.
         13    1    1    2    0    0 -0.28643453333E+02  0.43873670922E+01  0.87021677135E+02  0.91719571871E+02  0.10566000000E+00 0. -1.
          4    1    1    2  501    0  0.13693138052E+02  0.80527238137E+01  0.61160159802E+02  0.63189504963E+02  0.00000000000E+00 0.  1.
</event>
<event>
 5    1  0.6336319E-005  0.5073069E+03  0.7818608E-02  0.9462099E-01
         21   -1    0    0  501  502  0.00000000000E+00  0.00000000000E+00  0.25971059679E+03  0.25971059679E+03  0.00000000000E+00 0. -1.
         -4   -1    0    0    0  501 -0.00000000000E+00 -0.00000000000E+00 -0.27916632293E+04  0.27916632293E+04  0.00000000000E+00 0. -1.
        -13    1    1    2    0    0  0.26184013426E+03  0.47343432218E+03 -0.11227079142E+04  0.12462637703E+04  0.10566000000E+00 0.  1.
         13    1    1    2    0    0 -0.39107669240E+03 -0.31301331749E+03 -0.14989427646E+04  0.15804264421E+04  0.10566000000E+00 0. -1.
         -4    1    1    2    0  502  0.12923655815E+03 -0.16042100469E+03  0.89698046366E+02  0.22468361362E+03  0.00000000000E+00 0. -1.
</event>
<event>
 5    1  0.6336319E-005  0.2819174E+03  0.7818608E-02  0.1018962E+00
         21   -1    0    0  501  502  0.00000000000E+00  0.00000000000E+00  0.20998795466E+03  0.20998795466E+03  0.00000000000E+00 0.  1.
          4   -1    0    0  502    0 -0.00000000000E+00 -0.00000000000E+00 -0.10305092331E+04  0.10305092331E+04  0.00000000000E+00 0.  1.
        -13    1    1    2    0    0  0.34397467358E+03 -0.60433561497E+02 -0.22018643981E+03  0.41285938388E+03  0.10566000000E+00 0.  1.
         13    1    1    2    0    0 -0.12048966419E+03  0.21805554336E+03 -0.45302590602E+03  0.51700915065E+03  0.10566000000E+00 0. -1.
          4    1    1    2  501    0 -0.22348500939E+03 -0.15762198186E+03 -0.14730893264E+03  0.31062865325E+03  0.00000000000E+00 0.  1.
</event>
<event>
 5    1  0.6336319E-005  0.3158362E+03  0.7818608E-02  0.1000974E+00
         21   -1    0    0  501  502  0.00000000000E+00  0.00000000000E+00  0.89001642657E+02  0.89001642657E+02  0.00000000000E+00 0.  1.
         -4   -1    0    0    0  501 -0.00000000000E+00 -0.00000000000E+00 -0.22852950288E+04  0.22852950288E+04  0.00000000000E+00 0. -1.
        -13    1    1    2    0    0  0.17812476698E+03  0.26207011919E+03 -0.51591842434E+03  0.60545933944E+03  0.10566000000E+00 0.  1.
         13    1    1    2    0    0 -0.18589039878E+03 -0.25497520696E+03 -0.17092364660E+04  0.17381187832E+04  0.10566000000E+00 0. -1.
         -4    1    1    2    0  502  0.77656318004E+01 -0.70949122359E+01  0.28861504211E+02  0.30718548830E+02  0.00000000000E+00 0. -1.
</event>
<event>
 5    1  0.6336319E-005  0.2827829E+03  0.7818608E-02  0.1020116E+00
          4   -1    0    0  502    0 -0.00000000000E+00  0.00000000000E+00  0.21929852828E+04  0.21929852828E+04  0.00000000000E+00 0.  1.
         21   -1    0    0  501  502  0.00000000000E+00 -0.00000000000E+00 -0.18663853909E+03  0.18663853909E+03  0.00000000000E+00 0.  1.
        -13    1    1    2    0    0 -0.13404389264E+03 -0.24539700924E+03  0.10894798377E+02  0.27983238750E+03  0.10566000000E+00 0.  1.
         13    1    1    2    0    0  0.19400237563E+03 -0.13789887018E+03  0.48422933625E+03  0.53956564141E+03  0.10566000000E+00 0. -1.
          4    1    1    2  501    0 -0.59958482991E+02  0.38329587942E+03  0.15112226091E+04  0.15602257930E+04  0.00000000000E+00 0.  1.
</event>
<event>
 5    1  0.6336319E-005  0.5107758E+03  0.7818608E-02  0.9801726E-01
         21   -1    0    0  501  502  0.00000000000E+00  0.00000000000E+00  0.22660576759E+03  0.22660576759E+03  0.00000000000E+00 0. -1.
         -4   -1    0    0    0  501 -0.00000000000E+00 -0.00000000000E+00 -0.17460610235E+04  0.17460610235E+04  0.00000000000E+00 0. -1.
        -13    1    1    2    0    0  0.23926889537E+02  0.14771180234E+03 -0.49600593656E+03  0.51808606704E+03  0.10566000000E+00 0.  1.
         13    1    1    2    0    0  0.18922916774E+03  0.39940787629E+03 -0.50704882531E+03  0.67263128977E+03  0.10566000000E+00 0. -1.
         -4    1    1    2    0  502 -0.21315605727E+03 -0.54711967863E+03 -0.51640049400E+03  0.78194943424E+03  0.00000000000E+00 0. -1.
</event>
<event>
 5    1  0.6336319E-005  0.7415148E+02  0.7818608E-02  0.1216238E+00
         -4   -1    0    0    0  501 -0.00000000000E+00  0.00000000000E+00  0.54330797003E+02  0.54330797003E+02  0.00000000000E+00 0. -1.
         21   -1    0    0  501  502  0.00000000000E+00 -0.00000000000E+00 -0.12020445049E+03  0.12020445049E+03  0.00000000000E+00 0.  1.
        -13    1    1    2    0    0 -0.71396535256E+02  0.15112676588E+02 -0.34414049606E+02  0.80685786943E+02  0.10566000000E+00 0.  1.
         13    1    1    2    0    0  0.70920080718E+02 -0.25864533056E+02 -0.19927091720E+02  0.78075169342E+02  0.10566000000E+00 0. -1.
         -4    1    1    2    0  502  0.47645453794E+00  0.10751856468E+02 -0.11532512163E+02  0.15774291211E+02  0.00000000000E+00 0. -1.
</event>
<event>
 5    1  0.6336319E-005  0.6544883E+02  0.7818608E-02  0.1267435E+00
         21   -1    0    0  501  502  0.00000000000E+00  0.00000000000E+00  0.24699998684E+02  0.24699998684E+02  0.00000000000E+00 0.  1.
          4   -1    0    0  502    0 -0.00000000000E+00 -0.00000000000E+00 -0.53465740593E+03  0.53465740593E+03  0.00000000000E+00 0.  1.
        -13    1    1    2    0    0  0.82844910742E+02  0.40437259369E+02 -0.39578262820E+03  0.40637710459E+03  0.10566000000E+00 0.  1.
         13    1    1    2    0    0 -0.35977689273E+02 -0.48393379454E+01 -0.18730187045E+02  0.40849043905E+02  0.10566000000E+00 0. -1.
          4    1    1    2  501    0 -0.46867221469E+02 -0.35597921423E+02 -0.95444591998E+02  0.11213125612E+03  0.00000000000E+00 0.  1.
</event>
<event>
 5    1  0.6336319E-005  0.1488286E+03  0.7818608E-02  0.1102273E+00
         21   -1    0    0  501  502  0.00000000000E+00  0.00000000000E+00  0.21862330122E+03  0.21862330122E+03  0.00000000000E+00 0. -1.
         -4   -1    0    0    0  501 -0.00000000000E+00 -0.00000000000E+00 -0.19515025694E+03  0.19515025694E+03  0.00000000000E+00 0. -1.
        -13    1    1    2    0    0  0.14132967130E+03 -0.36601326271E+02  0.78359871180E+00  0.14599437751E+03  0.10566000000E+00 0.  1.
         13    1    1    2    0    0 -0.13944632028E+03  0.58586010328E+02 -0.74154560826E+02  0.16845327810E+03  0.10566000000E+00 0. -1.
         -4    1    1    2    0  502 -0.18833510130E+01 -0.21984684057E+02  0.96844006388E+02  0.99325902550E+02  0.00000000000E+00 0. -1.
</event>
<event>
 5    1  0.6336319E-005  0.7733114E+02  0.7818608E-02  0.1208708E+00
         21   -1    0    0  501  502  0.00000000000E+00  0.00000000000E+00  0.65011189842E+02  0.65011189842E+02  0.00000000000E+00 0.  1.
         -4   -1    0    0    0  501 -0.00000000000E+00 -0.00000000000E+00 -0.36054036661E+03  0.36054036661E+03  0.00000000000E+00 0. -1.
        -13    1    1    2    0    0 -0.32638085879E+02  0.90078346525E+02 -0.15919740724E+03  0.18580414096E+03  0.10566000000E+00 0.  1.
         13    1    1    2    0    0 -0.47258677411E+01 -0.70055427501E+02 -0.17108417801E+03  0.18493216020E+03  0.10566000000E+00 0. -1.
         -4    1    1    2    0  502  0.37363953620E+02 -0.20022919024E+02  0.34752408485E+02  0.54815255284E+02  0.00000000000E+00 0. -1.
</event>
<event>
 5    1  0.6336319E-005  0.4801079E+02  0.7818608E-02  0.1314715E+00
          4   -1    0    0  502    0 -0.00000000000E+00  0.00000000000E+00  0.24243511609E+03  0.24243511609E+03  0.00000000000E+00 0.  1.
         21   -1    0    0  501  502  0.00000000000E+00 -0.00000000000E+00 -0.23543398091E+02  0.23543398091E+02  0.00000000000E+00 0.  1.
        -13    1    1    2    0    0 -0.20842365567E+02  0.18219515387E+02  0.13490768298E+03  0.13771873161E+03  0.10566000000E+00 0.  1.
         13    1    1    2    0    0 -0.35059664753E+02 -0.93308443462E+01  0.51502229584E+02  0.62997901274E+02  0.10566000000E+00 0. -1.
          4    1    1    2  501    0  0.55902030320E+02 -0.88886710405E+01  0.32481805434E+02  0.65261881302E+02  0.00000000000E+00 0.  1.
</event>
<event>
 5    1  0.6336319E-005  0.1476230E+03  0.7818608E-02  0.1103480E+00
         21   -1    0    0  501  502  0.00000000000E+00  0.00000000000E+00  0.22528842190E+02  0.22528842190E+02  0.00000000000E+00 0.  1.
          4   -1    0    0  502    0 -0.00000000000E+00 -0.00000000000E+00 -0.15522014326E+04  0.15522014326E+04  0.00000000000E+00 0.  1.
        -13    1    1    2    0    0  0.14907487760E+03  0.12573304734E+02 -0.70761676720E+03  0.72325853435E+03  0.10566000000E+00 0.  1.
         13    1    1    2    0    0 -0.13625733412E+03 -0.63257815438E+02 -0.73273230487E+03  0.74797343140E+03  0.10566000000E+00 0. -1.
          4    1    1    2  501    0 -0.12817543478E+02  0.50684510704E+02 -0.89323518360E+02  0.10349830906E+03  0.00000000000E+00 0.  1.
</event>
<event>
 5    1  0.6336319E-005  0.2413476E+03  0.7818608E-02  0.1034977E+00
         -4   -1    0    0    0  501 -0.00000000000E+00  0.00000000000E+00  0.12691012045E+04  0.12691012045E+04  0.00000000000E+00 0. -1.
         21   -1    0    0  501  502  0.00000000000E+00 -0.00000000000E+00 -0.52596135488E+02  0.52596135488E+02  0.00000000000E+00 0.  1.
        -13    1    1    2    0    0  0.17844187576E+03 -0.14804413970E+03  0.39495844253E+03  0.45798553778E+03  0.10566000000E+00 0.  1.
         13    1    1    2    0    0 -0.19762839302E+03  0.14866398086E+03  0.76735351204E+03  0.80621919137E+03  0.10566000000E+00 0. -1.
         -4    1    1    2    0  502  0.19186517260E+02 -0.61984115977E+00  0.54193114432E+02  0.57492610825E+02  0.00000000000E+00 0. -1.
</event>
<event>
 5    1  0.6336319E-005  0.2586094E+03  0.7818608E-02  0.1026025E+00
         -4   -1    0    0    0  501 -0.00000000000E+00  0.00000000000E+00  0.23277165735E+04  0.23277165735E+04  0.00000000000E+00 0. -1.
         21   -1    0    0  501  502  0.00000000000E+00 -0.00000000000E+00 -0.45208272527E+02  0.45208272527E+02  0.00000000000E+00 0.  1.
        -13    1    1    2    0    0 -0.67070784123E+00 -0.20332614316E+03  0.42964252686E+03  0.47532586969E+03  0.10566000000E+00 0.  1.
         13    1    1    2    0    0 -0.65161418311E+02  0.29100464970E+03  0.14287823247E+04  0.14595713957E+04  0.10566000000E+00 0. -1.
         -4    1    1    2    0  502  0.65832126153E+02 -0.87678506541E+02  0.42408344937E+03  0.43802758061E+03  0.00000000000E+00 0. -1.
</event>
<event>
 5    1  0.6336319E-005  0.4457015E+03  0.7818608E-02  0.1026526E+00
         21   -1    0    0  501  502  0.00000000000E+00  0.00000000000E+00  0.55031327387E+03  0.55031327387E+03  0.00000000000E+00 0. -1.
         -4   -1    0    0    0  501 -0.00000000000E+00 -0.00000000000E+00 -0.54957945439E+03  0.54957945439E+03  0.00000000000E+00 0. -1.
        -13    1    1    2    0    0  0.21847952378E+02  0.44680603003E+02 -0.42768713046E+02  0.65596213972E+02  0.10566000000E+00 0.  1.
         13    1    1    2    0    0 -0.16978583621E+03  0.38488461300E+03 -0.25383646619E+03  0.49132103378E+03  0.10566000000E+00 0. -1.
         -4    1    1    2    0  502  0.14793788383E+03 -0.42956521601E+03  0.29733899871E+03  0.54297548051E+03  0.00000000000E+00 0. -1.
</event>
<event>
 5    1  0.6336319E-005  0.3951004E+03  0.7818608E-02  0.9743303E-01
         21   -1    0    0  501  502  0.00000000000E+00  0.00000000000E+00  0.24810601211E+03  0.24810601211E+03  0.00000000000E+00 0. -1.
         -4   -1    0    0    0  501 -0.00000000000E+00 -0.00000000000E+00 -0.25514108082E+04  0.25514108082E+04  0.00000000000E+00 0. -1.
        -13    1    1    2    0    0 -0.30675929263E+03  0.23806306789E+03 -0.12284602738E+04  0.12883671617E+04  0.10566000000E+00 0.  1.
         13    1    1    2    0    0  0.40496224451E+02 -0.51651891097E+03 -0.98890954764E+03  0.11164111403E+04  0.10566000000E+00 0. -1.
         -4    1    1    2    0  502  0.26626306818E+03  0.27845584308E+03 -0.85934974745E+02  0.39473851839E+03  0.00000000000E+00 0. -1.
</event>
<event>
 5    1  0.6336319E-005  0.4187814E+03  0.7818608E-02  0.9676318E-01
         21   -1    0    0  501  502  0.00000000000E+00  0.00000000000E+00  0.25416058200E+03  0.25416058200E+03  0.00000000000E+00 0. -1.
          4   -1    0    0  502    0 -0.00000000000E+00 -0.00000000000E+00 -0.16015632028E+04  0.16015632028E+04  0.00000000000E+00 0.  1.
        -13    1    1    2    0    0 -0.34240318053E+03 -0.23226279826E+03 -0.10482142280E+04  0.11269157131E+04  0.10566000000E+00 0.  1.
         13    1    1    2    0    0  0.37910505385E+03  0.20685727583E+03 -0.41852706682E+03  0.60139462190E+03  0.10566000000E+00 0. -1.
          4    1    1    2  501    0 -0.36701873316E+02  0.25405522425E+02  0.11933867402E+03  0.12741344980E+03  0.00000000000E+00 0.  1.
</event>
<event>
 5    1  0.6336319E-005  0.2407170E+03  0.7818608E-02  0.1035319E+00
         21   -1    0    0  501  502  0.00000000000E+00  0.00000000000E+00  0.11315754350E+03  0.11315754350E+03  0.00000000000E+00 0. -1.
          4   -1    0    0  502    0 -0.00000000000E+00 -0.00000000000E+00 -0.11393357437E+04  0.11393357437E+04  0.00000000000E+00 0.  1.
        -13    1    1    2    0    0 -0.17404005855E+03 -0.17667295520E+03 -0.81178043113E+03  0.84881726810E+03  0.10566000000E+00 0.  1.
         13    1    1    2    0    0  0.16536891599E+03  0.15210743565E+03 -0.26459434435E+03  0.34712206582E+03  0.10566000000E+00 0. -1.
          4    1    1    2  501    0  0.86711425580E+01  0.24565519545E+02  0.50196575268E+02  0.56553953287E+02  0.00000000000E+00 0.  1.
</event>
<event>
 5    1  0.6336319E-005  0.4219770E+03  0.7818608E-02  0.9978635E-01
         21   -1    0    0  501  502  0.00000000000E+00  0.00000000000E+00  0.87339718558E+03  0.87339718558E+03  0.00000000000E+00 0. -1.
         -4   -1    0    0    0  501 -0.00000000000E+00 -0.00000000000E+00 -0.45643998881E+03  0.45643998881E+03  0.00000000000E+00 0. -1.
        -13    1    1    2    0    0  0.79033334471E+02  0.12354359222E+03 -0.10942990949E+03  0.18298689404E+03  0.10566000000E+00 0.  1.
         13    1    1    2    0    0  0.32460926721E+03  0.21851762264E+03  0.47477769118E+03  0.61525197680E+03  0.10566000000E+00 0. -1.
         -4    1    1    2    0  502 -0.40364260168E+03 -0.34206121486E+03  0.51609415082E+02  0.53159830354E+03  0.00000000000E+00 0. -1.
</event>
<event>
 5    1  0.6336319E-005  0.4526039E+03  0.7818608E-02  0.9895507E-01
         21   -1    0    0  501  502  0.00000000000E+00  0.00000000000E+00  0.13290809506E+04  0.13290809506E+04  0.00000000000E+00 0.  1.
          4   -1    0    0  502    0 -0.00000000000E+00 -0.00000000000E+00 -0.27194360602E+03  0.27194360602E+03  0.00000000000E+00 0.  1.
        -13    1    1    2    0    0 -0.16967236426E+03 -0.31843901033E+03  0.68841433756E+02  0.36732991800E+03  0.10566000000E+00 0.  1.
         13    1    1    2    0    0 -0.14499882458E+03 -0.59243855604E+02  0.34089179789E+02  0.16030151871E+03  0.10566000000E+00 0. -1.
          4    1    1    2  501    0  0.31467118884E+03  0.37768286593E+03  0.95420673103E+03  0.10733931199E+04  0.00000000000E+00 0.  1.
</event>
<event>
 5    1  0.6336319E-005  0.2144281E+03  0.7818608E-02  0.1102785E+00
         -4   -1    0    0    0  501 -0.00000000000E+00  0.00000000000E+00  0.10255262446E+04  0.10255262446E+04  0.00000000000E+00 0. -1.
         21   -1    0    0  501  502  0.00000000000E+00 -0.00000000000E+00 -0.29203453126E+03  0.29203453126E+03  0.00000000000E+00 0. -1.
        -13    1    1    2    0    0 -0.47992694639E+02 -0.10272320680E+02  0.10866795229E+03  0.11923738646E+03  0.10566000000E+00 0.  1.
         13    1    1    2    0    0  0.31162622886E+02  0.22372722945E+03  0.85477591044E+03  0.88411925129E+03  0.10566000000E+00 0. -1.
         -4    1    1    2    0  502  0.16830071753E+02 -0.21345490877E+03 -0.22995214939E+03  0.31420413811E+03  0.00000000000E+00 0. -1.
</event>
<event>
 5    1  0.6336319E-005  0.4894118E+03  0.7818608E-02  0.1020633E+00
          4   -1    0    0  502    0 -0.00000000000E+00  0.00000000000E+00  0.26166196606E+04  0.26166196606E+04  0.00000000000E+00 0.  1.
         21   -1    0    0  501  502  0.00000000000E+00 -0.00000000000E+00 -0.10147924770E+03  0.10147924770E+03  0.00000000000E+00 0.  1.
        -13    1    1    2    0    0 -0.42733299468E+03  0.22897305742E+03  0.10629116518E+04  0.11682565386E+04  0.10566000000E+00 0.  1.
         13    1    1    2    0    0  0.12614006136E+02  0.43375983499E+02  0.12387135082E+03  0.13185109713E+03  0.10566000000E+00 0. -1.
          4    1    1    2  501    0  0.41471898854E+03 -0.27234904092E+03  0.13283574103E+04  0.14179912726E+04  0.00000000000E+00 0.  1.
</event>
<event>
 5    1  0.6336319E-005  0.9006098E+02  0.7818608E-02  0.1182137E+00
         21   -1    0    0  501  502  0.00000000000E+00  0.00000000000E+00  0.86506685523E+02  0.86506685523E+02  0.00000000000E+00 0.  1.
          4   -1    0    0  502    0 -0.00000000000E+00 -0.00000000000E+00 -0.49659750742E+03  0.49659750742E+03  0.00000000000E+00 0.  1.
        -13    1    1    2    0    0  0.46096752989E+02  0.86559953395E+02 -0.21002409606E+03  0.23179229551E+03  0.10566000000E+00 0.  1.
         13    1    1    2    0    0 -0.26756920494E+02 -0.81374015858E+02 -0.26754607349E+03  0.28092450205E+03  0.10566000000E+00 0. -1.
          4    1    1    2  501    0 -0.19339832495E+02 -0.51859375372E+01  0.67479347650E+02  0.70387395380E+02  0.00000000000E+00 0.  1.
</event>
<event>
 5    1  0.6336319E-005  0.5015121E+03  0.7818608E-02  0.9778137E-01
         21   -1    0    0  501  502  0.00000000000E+00  0.00000000000E+00  0.35472111296E+03  0.35472111296E+03  0.00000000000E+00 0. -1.
         -4   -1    0    0    0  501 -0.00000000000E+00 -0.00000000000E+00 -0.10498267497E+04  0.10498267497E+04  0.00000000000E+00 0. -1.
        -13    1    1    2    0    0  0.80208150739E+02 -0.15143927394E+03 -0.21083107306E+02  0.17266067797E+03  0.10566000000E+00 0.  1.
         13    1    1    2    0    0 -0.50624200371E+03 -0.11265666423E+03 -0.43339128225E+03  0.67587018354E+03  0.10566000000E+00 0. -1.
         -4    1    1    2    0  502  0.42603385297E+03  0.26409593818E+03 -0.24063124717E+03  0.55601700113E+03  0.00000000000E+00 0. -1.
</event>
<event>
 5    1  0.6336319E-005  0.4285207E+03  0.7818608E-02  0.1016311E+00
          4   -1    0    0  502    0 -0.00000000000E+00  0.00000000000E+00  0.89867734792E+03  0.89867734792E+03  0.00000000000E+00 0.  1.
         21   -1    0    0  501  502  0.00000000000E+00 -0.00000000000E+00 -0.28919628318E+03  0.28919628318E+03  0.00000000000E+00 0.  1.
        -13    1    1    2    0    0  0.43680099887E+03  0.93734303903E+02  0.39457146417E+02  0.44848423596E+03  0.10566000000E+00 0.  1.
         13    1    1    2    0    0 -0.67553570207E+02  0.37260800768E+02  0.12058357200E+03  0.14315118274E+03  0.10566000000E+00 0. -1.
          4    1    1    2  501    0 -0.36924742866E+03 -0.13099510467E+03  0.44944034632E+03  0.59623821239E+03  0.00000000000E+00 0.  1.
</event>
<event>
 5    1  0.6336319E-005  0.1229505E+03  0.7818608E-02  0.1131339E+00
         -4   -1    0    0    0  501 -0.00000000000E+00  0.00000000000E+00  0.32679823143E+03  0.32679823143E+03  0.00000000000E+00 0. -1.
         21   -1    0    0  501  502  0.00000000000E+00 -0.00000000000E+00 -0.73946534012E+02  0.73946534012E+02  0.00000000000E+00 0.  1.
        -13    1    1    2    0    0 -0.37308615417E+02  0.12043678385E+03  0.21624042014E+03  0.25031356766E+03  0.10566000000E+00 0.  1.
         13    1    1    2    0    0  0.27345317113E+02 -0.11306240152E+03  0.54668937126E+02  0.12852850601E+03  0.10566000000E+00 0. -1.
         -4    1    1    2    0  502  0.99632983034E+01 -0.73743823250E+01 -0.18057659849E+02  0.21902691774E+02  0.00000000000E+00 0. -1.
</event>
<event>
 5    1  0.6336319E-005  0.1048878E+03  0.7818608E-02  0.1156712E+00
         -4   -1    0    0    0  501 -0.00000000000E+00  0.00000000000E+00  0.36699342152E+03  0.36699342152E+03  0.00000000000E+00 0. -1.
         21   -1    0    0  501  502  0.00000000000E+00 -0.00000000000E+00 -0.42636558954E+02  0.42636558954E+02  0.00000000000E+00 0.  1.
        -13    1    1    2    0    0 -0.61706481441E+01 -0.11352996760E+03  0.94888281077E+02  0.14809094332E+03  0.10566000000E+00 0.  1.
         13    1    1    2    0    0  0.30501946574E+01  0.10127786048E+03  0.22709655056E+03  0.24867521620E+03  0.10566000000E+00 0. -1.
         -4    1    1    2    0  502  0.31204534868E+01  0.12252107126E+02  0.23720309305E+01  0.12863820961E+02  0.00000000000E+00 0. -1.
</event>
<event>
 5    1  0.6336319E-005  0.2410317E+03  0.7818608E-02  0.1035148E+00
         21   -1    0    0  501  502  0.00000000000E+00  0.00000000000E+00  0.60945886992E+02  0.60945886992E+02  0.00000000000E+00 0.  1.
         -4   -1    0    0    0  501 -0.00000000000E+00 -0.00000000000E+00 -0.10439070082E+04  0.10439070082E+04  0.00000000000E+00 0. -1.
        -13    1    1    2    0    0  0.21268576622E+03 -0.98104245932E+02 -0.47241829909E+03  0.52729378784E+03  0.10566000000E+00 0.  1.
         13    1    1    2    0    0 -0.22538393327E+03  0.10393917204E+03 -0.50467237845E+03  0.56240153768E+03  0.10566000000E+00 0. -1.
         -4    1    1    2    0  502  0.12698167052E+02 -0.58349261066E+01 -0.58704436715E+01  0.15157569662E+02  0.00000000000E+00 0. -1.
</event>
<event>
 5    1  0.6336319E-005  0.4259503E+03  0.7818608E-02  0.9986069E-01
         -4   -1    0    0    0  501 -0.00000000000E+00  0.00000000000E+00  0.91376090270E+03  0.91376090270E+03  0.00000000000E+00 0. -1.
         21   -1    0    0  501  502  0.00000000000E+00 -0.00000000000E+00 -0.46523510713E+03  0.46523510713E+03  0.00000000000E+00 0. -1.
        -13    1    1    2    0    0  0.90987033313E+02  0.10528120479E+03  0.30377991882E+03  0.33413324072E+03  0.10566000000E+00 0.  1.
         13    1    1    2    0    0 -0.44571472167E+03 -0.46822138281E+01 -0.24475885759E+03  0.50851789130E+03  0.10566000000E+00 0. -1.
         -4    1    1    2    0  502  0.35472768836E+03 -0.10059899097E+03  0.38950473434E+03  0.53634487780E+03  0.00000000000E+00 0. -1.
</event>
<event>
 5    1  0.6336319E-005  0.4664209E+03  0.7818608E-02  0.9640760E-01
         21   -1    0    0  501  502  0.00000000000E+00  0.00000000000E+00  0.43155835121E+03  0.43155835121E+03  0.00000000000E+00 0.  1.
          4   -1    0    0  502    0 -0.00000000000E+00 -0.00000000000E+00 -0.12114412547E+04  0.12114412547E+04  0.00000000000E+00 0.  1.
        -13    1    1    2    0    0 -0.24564979501E+03 -0.30494048117E+03 -0.43865224681E+03  0.58800367656E+03  0.10566000000E+00 0.  1.
         13    1    1    2    0    0 -0.27914945304E+03  0.20009074715E+03 -0.38753429182E+03  0.51782580346E+03  0.10566000000E+00 0. -1.
          4    1    1    2  501    0  0.52479924805E+03  0.10484973402E+03  0.46303635180E+02  0.53717012585E+03  0.00000000000E+00 0.  1.
</event>
<event>
 5    1  0.6336319E-005  0.1094652E+03  0.7818608E-02  0.1149779E+00
         -4   -1    0    0    0  501 -0.00000000000E+00  0.00000000000E+00  0.50590633381E+03  0.50590633381E+03  0.00000000000E+00 0. -1.
         21   -1    0    0  501  502  0.00000000000E+00 -0.00000000000E+00 -0.20226100748E+03  0.20226100748E+03  0.00000000000E+00 0. -1.
        -13    1    1    2    0    0 -0.54235354571E+02 -0.60605297951E+02  0.18206202724E+02  0.83342383016E+02  0.10566000000E+00 0.  1.
         13    1    1    2    0    0  0.71468616375E+02  0.91242319604E+02  0.44581897970E+03  0.46063814197E+03  0.10566000000E+00 0. -1.
         -4    1    1    2    0  502 -0.17233261804E+02 -0.30637021654E+02 -0.16037985609E+03  0.16418681630E+03  0.00000000000E+00 0. -1.
</event>
<event>
 5    1  0.7141068E-005  0.2264404E+03  0.7818608E-02  0.1086081E+00
         -4   -1    0    0    0  501 -0.00000000000E+00  0.00000000000E+00  0.25427793221E+03  0.25427793221E+03  0.00000000000E+00 0. -1.
         21   -1    0    0  501  502  0.00000000000E+00 -0.00000000000E+00 -0.11041119415E+04  0.11041119415E+04  0.00000000000E+00 0. -1.
        -13    1    1    2    0    0 -0.10660760077E+02  0.64969698018E+02 -0.62301211357E+02  0.90643066842E+02  0.10566000000E+00 0.  1.
         13    1    1    2    0    0  0.22286949640E+03 -0.13879219771E+03  0.15087517199E+03  0.30281581078E+03  0.10566000000E+00 0. -1.
         -4    1    1    2    0  502 -0.21220873632E+03  0.73822499692E+02 -0.93840796995E+03  0.96493099613E+03  0.00000000000E+00 0. -1.
</event>
<event>
 5    1  0.6336319E-005  0.4779571E+03  0.7818608E-02  0.9631873E-01
         21   -1    0    0  501  502  0.00000000000E+00  0.00000000000E+00  0.26685677705E+03  0.26685677705E+03  0.00000000000E+00 0. -1.
         -4   -1    0    0    0  501 -0.00000000000E+00 -0.00000000000E+00 -0.19960563412E+04  0.19960563412E+04  0.00000000000E+00 0. -1.
        -13    1    1    2    0    0  0.31714909630E+03 -0.88820007885E+02 -0.85418627672E+03  0.91548170358E+03  0.10566000000E+00 0.  1.
         13    1    1    2    0    0 -0.29623157845E+03  0.48542421786E+03 -0.28471711160E+03  0.63596671623E+03  0.10566000000E+00 0. -1.
         -4    1    1    2    0  502 -0.20917517850E+02 -0.39660420998E+03 -0.59029617581E+03  0.71146469842E+03  0.00000000000E+00 0. -1.
</event>
<event>
 5    1  0.6336319E-005  0.6881989E+03  0.7818608E-02  0.9140275E-01
         21   -1    0    0  501  502  0.00000000000E+00  0.00000000000E+00  0.88918241038E+03  0.88918241038E+03  0.00000000000E+00 0.  1.
          4   -1    0    0  502    0 -0.00000000000E+00 -0.00000000000E+00 -0.10573016451E+04  0.10573016451E+04  0.00000000000E+00 0.  1.
        -13    1    1    2    0    0 -0.56791653969E+03  0.38464509242E+03 -0.39002080403E+03  0.78904833941E+03  0.10566000000E+00 0.  1.
         13    1    1    2    0    0  0.56460681732E+03 -0.39870887542E+03 -0.21224606899E+03  0.72304773734E+03  0.10566000000E+00 0. -1.
          4    1    1    2  501    0  0.33097223710E+01  0.14063783003E+02  0.43414763829E+03  0.43438797875E+03  0.00000000000E+00 0.  1.
</event>
<event>
 5    1  0.6336319E-005  0.2722175E+03  0.7818608E-02  0.1035729E+00
          4   -1    0    0  502    0 -0.00000000000E+00  0.00000000000E+00  0.13927908299E+04  0.13927908299E+04  0.00000000000E+00 0.  1.
         21   -1    0    0  501  502  0.00000000000E+00 -0.00000000000E+00 -0.21446576502E+03  0.21446576502E+03  0.00000000000E+00 0.  1.
        -13    1    1    2    0    0  0.41507470802E+01  0.25829761440E+03 -0.22879809308E+02  0.25934221242E+03  0.10566000000E+00 0.  1.
         13    1    1    2    0    0 -0.84586149304E+02  0.14094216072E+03  0.15786548655E+03  0.22790575317E+03  0.10566000000E+00 0. -1.
          4    1    1    2  501    0  0.80435402223E+02 -0.39923977511E+03  0.10433393876E+04  0.11200086293E+04  0.00000000000E+00 0.  1.
</event>
<event>
 5    1  0.6336319E-005  0.4332249E+03  0.7818608E-02  0.1011803E+00
         21   -1    0    0  501  502  0.00000000000E+00  0.00000000000E+00  0.54140811319E+03  0.54140811319E+03  0.00000000000E+00 0. -1.
         -4   -1    0    0    0  501 -0.00000000000E+00 -0.00000000000E+00 -0.58539438111E+03  0.58539438111E+03  0.00000000000E+00 0. -1.
        -13    1    1    2    0    0  0.32090824367E+02  0.80006298921E+02 -0.65379137873E+02  0.10819090400E+03  0.10566000000E+00 0.  1.
         13    1    1    2    0    0 -0.38222742795E+03  0.18339093643E+03 -0.26052877896E+03  0.49759953584E+03  0.10566000000E+00 0. -1.
         -4    1    1    2    0  502  0.35013660359E+03 -0.26339723535E+03  0.28192164891E+03  0.52101205446E+03  0.00000000000E+00 0. -1.
</event>
<event>
 5    1  0.6336319E-005  0.6243791E+02  0.7818608E-02  0.1248086E+00
         -4   -1    0    0    0  501 -0.00000000000E+00  0.00000000000E+00  0.19842026864E+03  0.19842026864E+03  0.00000000000E+00 0. -1.
         21   -1    0    0  501  502  0.00000000000E+00 -0.00000000000E+00 -0.78374999955E+02  0.78374999955E+02  0.00000000000E+00 0. -1.
        -13    1    1    2    0    0 -0.36632692826E+02 -0.42104634883E+02  0.36836163208E+02  0.66870535710E+02  0.10566000000E+00 0.  1.
         13    1    1    2    0    0  0.63655232271E+02  0.25246374343E+02  0.13370624945E+03  0.15022230300E+03  0.10566000000E+00 0. -1.
         -4    1    1    2    0  502 -0.27022539445E+02  0.16858260540E+02 -0.50497143964E+02  0.59702429892E+02  0.00000000000E+00 0. -1.
</event>
<event>
 5    1  0.6336319E-005  0.1306688E+03  0.7818608E-02  0.1121912E+00
          4   -1    0    0  502    0 -0.00000000000E+00  0.00000000000E+00  0.24006533552E+03  0.24006533552E+03  0.00000000000E+00 0.  1.
         21   -1    0    0  501  502  0.00000000000E+00 -0.00000000000E+00 -0.36995272268E+03  0.36995272268E+03  0.00000000000E+00 0. -1.
        -13    1    1    2    0    0 -0.72355882093E+02 -0.10961992780E+03  0.19806425609E+03  0.23765807991E+03  0.10566000000E+00 0.  1.
         13    1    1    2    0    0  0.42330815676E+02  0.12013180387E+03 -0.17683724747E+03  0.21793341073E+03  0.10566000000E+00 0. -1.
          4    1    1    2  501    0  0.30025066418E+02 -0.10511876072E+02 -0.15111439578E+03  0.15442656755E+03  0.00000000000E+00 0.  1.
</event>
<event>
 5    1  0.6336319E-005  0.3238530E+03  0.7818608E-02  0.9979187E-01
         21   -1    0    0  501  502  0.00000000000E+00  0.00000000000E+00  0.17506339084E+03  0.17506339084E+03  0.00000000000E+00 0. -1.
          4   -1    0    0  502    0 -0.00000000000E+00 -0.00000000000E+00 -0.11493862442E+04  0.11493862442E+04  0.00000000000E+00 0.  1.
        -13    1    1    2    0    0 -0.25862969218E+03  0.19539172188E+03 -0.86603276999E+03  0.92470536525E+03  0.10566000000E+00 0.  1.
         13    1    1    2    0    0  0.22293676377E+03 -0.23863541528E+03 -0.10702101078E+03  0.34365850780E+03  0.10566000000E+00 0. -1.
          4    1    1    2  501    0  0.35692928412E+02  0.43243693401E+02 -0.12690726233E+01  0.56085762034E+02  0.00000000000E+00 0.  1.
</event>
<event>
 5    1  0.6336319E-005  0.3642616E+03  0.7818608E-02  0.9838347E-01
         21   -1    0    0  501  502  0.00000000000E+00  0.00000000000E+00  0.11448594520E+04  0.11448594520E+04  0.00000000000E+00 0.  1.
         -4   -1    0    0    0  501 -0.00000000000E+00 -0.00000000000E+00 -0.22199228767E+03  0.22199228767E+03  0.00000000000E+00 0. -1.
        -13    1    1    2    0    0 -0.27551788066E+03 -0.35059187731E+03  0.49449211225E+03  0.66584324525E+03  0.10566000000E+00 0.  1.
         13    1    1    2    0    0  0.19791785093E+03  0.26845207831E+03  0.91734735047E+02  0.34590933327E+03  0.10566000000E+00 0. -1.
         -4    1    1    2    0  502  0.77600029735E+02  0.82139799006E+02  0.33664031705E+03  0.35509916116E+03  0.00000000000E+00 0. -1.
</event>
<event>
 5    1  0.6336319E-005  0.3960601E+03  0.7818608E-02  0.9740494E-01
         -4   -1    0    0    0  501 -0.00000000000E+00  0.00000000000E+00  0.10877925123E+04  0.10877925123E+04  0.00000000000E+00 0. -1.
         21   -1    0    0  501  502  0.00000000000E+00 -0.00000000000E+00 -0.34660251018E+03  0.34660251018E+03  0.00000000000E+00 0. -1.
        -13    1    1    2    0    0 -0.36696964613E+03  0.85871624435E+02  0.68384404458E+03  0.78082222403E+03  0.10566000000E+00 0.  1.
         13    1    1    2    0    0  0.43567069681E+03 -0.14018393197E+03  0.18924129782E+03  0.49525021030E+03  0.10566000000E+00 0. -1.
         -4    1    1    2    0  502 -0.68701050679E+02  0.54312307539E+02 -0.13189534030E+03  0.15832258812E+03  0.00000000000E+00 0. -1.
</event>
<event>
 5    1  0.6336319E-005  0.2703313E+03  0.7818608E-02  0.1020364E+00
          4   -1    0    0  502    0 -0.00000000000E+00  0.00000000000E+00  0.14629218061E+04  0.14629218061E+04  0.00000000000E+00 0.  1.
         21   -1    0    0  501  502  0.00000000000E+00 -0.00000000000E+00 -0.68461393160E+02  0.68461393160E+02  0.00000000000E+00 0. -1.
        -13    1    1    2    0    0 -0.26956578350E+03 -0.31234229832E+02  0.93014939806E+03  0.96892683038E+03  0.10566000000E+00 0.  1.
         13    1    1    2    0    0  0.26520864459E+03  0.42597716452E+02  0.47537139610E+03  0.54601114092E+03  0.10566000000E+00 0. -1.
          4    1    1    2  501    0  0.43571389111E+01 -0.11363486621E+02 -0.11060381266E+02  0.16445227922E+02  0.00000000000E+00 0.  1.
</event>
<event>
 5    1  0.6336319E-005  0.3932705E+03  0.7818608E-02  0.9748684E-01
         21   -1    0    0  501  502  0.00000000000E+00  0.00000000000E+00  0.14527749487E+03  0.14527749487E+03  0.00000000000E+00 0.  1.
          4   -1    0    0  502    0 -0.00000000000E+00 -0.00000000000E+00 -0.22419597538E+04  0.22419597538E+04  0.00000000000E+00 0.  1.
        -13    1    1    2    0    0  0.24651645314E+03  0.42387231485E+03 -0.14656367805E+04  0.15454867468E+04  0.10566000000E+00 0.  1.
         13    1    1    2    0    0 -0.22766130709E+03 -0.19541337933E+03 -0.48386237514E+03  0.56933194958E+03  0.10566000000E+00 0. -1.
          4    1    1    2  501    0 -0.18855146045E+02 -0.22845893552E+03 -0.14718310330E+03  0.27241855232E+03  0.00000000000E+00 0.  1.
</event>
<event>
 5    1  0.6336319E-005  0.6431898E+02  0.7818608E-02  0.1242471E+00
          4   -1    0    0  502    0 -0.00000000000E+00  0.00000000000E+00  0.79068004551E+02  0.79068004551E+02  0.00000000000E+00 0.  1.
         21   -1    0    0  501  502  0.00000000000E+00 -0.00000000000E+00 -0.51938416225E+03  0.51938416225E+03  0.00000000000E+00 0.  1.
        -13    1    1    2    0    0 -0.39830401868E+01  0.58270607186E+02  0.92606325759E+01  0.59136272715E+02  0.10566000000E+00 0.  1.
         13    1    1    2    0    0 -0.27982105343E+02 -0.70423559184E+02  0.11783542437E+02  0.76689888147E+02  0.10566000000E+00 0. -1.
          4    1    1    2  501    0  0.31965145530E+02  0.12152951999E+02 -0.46136033271E+03  0.46262600594E+03  0.00000000000E+00 0.  1.
</event>
<event>
 5    1  0.6336319E-005  0.2604116E+03  0.7818608E-02  0.1025134E+00
         -4   -1    0    0    0  501 -0.00000000000E+00  0.00000000000E+00  0.15474722120E+04  0.15474722120E+04  0.00000000000E+00 0. -1.
         21   -1    0    0  501  502  0.00000000000E+00 -0.00000000000E+00 -0.78718889909E+02  0.78718889909E+02  0.00000000000E+00 0.  1.
        -13    1    1    2    0    0  0.22490813486E+03 -0.11718894118E+03  0.11142059997E+04  0.11427037840E+04  0.10566000000E+00 0.  1.
         13    1    1    2    0    0 -0.24429158377E+03  0.14819473773E+03  0.34004184197E+03  0.44414921326E+03  0.10566000000E+00 0. -1.
         -4    1    1    2    0  502  0.19383448909E+02 -0.31005796552E+02  0.14505480370E+02  0.39338104583E+02  0.00000000000E+00 0. -1.
</event>
<event>
 5    1  0.6336319E-005  0.3783855E+02  0.7818608E-02  0.1351141E+00
         21   -1    0    0  501  502  0.00000000000E+00  0.00000000000E+00  0.35061089303E+02  0.35061089303E+02  0.00000000000E+00 0.  1.
          4   -1    0    0  502    0 -0.00000000000E+00 -0.00000000000E+00 -0.11295350350E+03  0.11295350350E+03  0.00000000000E+00 0.  1.
        -13    1    1    2    0    0  0.20887602441E+02 -0.41040529964E+02 -0.21629383338E+02  0.50876894786E+02  0.10566000000E+00 0.  1.
         13    1    1    2    0    0 -0.57040580306E+01  0.35381338192E+02 -0.68178778270E+02  0.77024232165E+02  0.10566000000E+00 0. -1.
          4    1    1    2  501    0 -0.15183544411E+02  0.56591917724E+01  0.11915747408E+02  0.20113465854E+02  0.00000000000E+00 0.  1.
</event>
<event>
 5    1  0.6336319E-005  0.1790009E+03  0.7818608E-02  0.1093648E+00
         -4   -1    0    0    0  501 -0.00000000000E+00  0.00000000000E+00  0.69880262637E+03  0.69880262637E+03  0.00000000000E+00 0. -1.
         21   -1    0    0  501  502  0.00000000000E+00 -0.00000000000E+00 -0.74855973216E+03  0.74855973216E+03  0.00000000000E+00 0.  1.
        -13    1    1    2    0    0 -0.36832224021E+02  0.35877554306E+03 -0.12414077454E+03  0.38142816636E+03  0.10566000000E+00 0.  1.
         13    1    1    2    0    0 -0.38936432867E+01 -0.13212498318E+03  0.53493277631E+03  0.55102201224E+03  0.10566000000E+00 0. -1.
         -4    1    1    2    0  502  0.40725867307E+02 -0.22665055989E+03 -0.46054910756E+03  0.51491217993E+03  0.00000000000E+00 0. -1.
</event>
<event>
 5    1  0.6336319E-005  0.3159759E+03  0.7818608E-02  0.1000920E+00
         -4   -1    0    0    0  501 -0.00000000000E+00  0.00000000000E+00  0.22258151872E+04  0.22258151872E+04  0.00000000000E+00 0. -1.
         21   -1    0    0  501  502  0.00000000000E+00 -0.00000000000E+00 -0.17664329872E+03  0.17664329872E+03  0.00000000000E+00 0. -1.
        -13    1    1    2    0    0  0.21319789754E+03  0.67299076675E+02  0.31768171056E+03  0.38846388459E+03  0.10566000000E+00 0.  1.
         13    1    1    2    0    0 -0.27380061710E+03 -0.26019941482E+03  0.17685453957E+04  0.18084311823E+04  0.10566000000E+00 0. -1.
         -4    1    1    2    0  502  0.60602719552E+02  0.19290033815E+03 -0.37055217763E+02  0.20556341902E+03  0.00000000000E+00 0. -1.
</event>
<event>
 5    1  0.6336319E-005  0.5988954E+03  0.7818608E-02  0.9284164E-01
          4   -1    0    0  502    0 -0.00000000000E+00  0.00000000000E+00  0.40090553373E+03  0.40090553373E+03  0.00000000000E+00 0.  1.
         21   -1    0    0  501  502  0.00000000000E+00 -0.00000000000E+00 -0.17258746396E+04  0.17258746396E+04  0.00000000000E+00 0.  1.
        -13    1    1    2    0    0 -0.78086429933E+03 -0.22530673120E+03 -0.69654424719E+03  0.10703672625E+04  0.10566000000E+00 0.  1.
         13    1    1    2    0    0  0.48409810176E+03  0.13810438906E+03 -0.23391896013E+03  0.55510529225E+03  0.10566000000E+00 0. -1.
          4    1    1    2  501    0  0.29676619757E+03  0.87202342138E+02 -0.39450589860E+03  0.50130761866E+03  0.00000000000E+00 0.  1.
</event>
<event>
 5    1  0.6336319E-005  0.4724733E+03  0.7818608E-02  0.9743386E-01
          4   -1    0    0  502    0 -0.00000000000E+00  0.00000000000E+00  0.12791679898E+04  0.12791679898E+04  0.00000000000E+00 0.  1.
         21   -1    0    0  501  502  0.00000000000E+00 -0.00000000000E+00 -0.30841257316E+03  0.30841257316E+03  0.00000000000E+00 0.  1.
        -13    1    1    2    0    0  0.33463847807E+03 -0.27557696348E+03  0.23072727419E+03  0.49108111349E+03  0.10566000000E+00 0.  1.
         13    1    1    2    0    0 -0.79435746360E+02 -0.21689077328E+03  0.34643388146E+03  0.41637494007E+03  0.10566000000E+00 0. -1.
          4    1    1    2  501    0 -0.25520273171E+03  0.49246773676E+03  0.39359426104E+03  0.68012450944E+03  0.00000000000E+00 0.  1.
</event>
<event>
 5    1  0.6336319E-005  0.3680851E+03  0.7818608E-02  0.1037393E+00
         21   -1    0    0  501  502  0.00000000000E+00  0.00000000000E+00  0.74615776580E+03  0.74615776580E+03  0.00000000000E+00 0. -1.
         -4   -1    0    0    0  501 -0.00000000000E+00 -0.00000000000E+00 -0.66993952183E+03  0.66993952183E+03  0.00000000000E+00 0. -1.
        -13    1    1    2    0    0  0.49397260906E+02  0.39417065141E+02 -0.32637456111E+03  0.33243670031E+03  0.10566000000E+00 0.  1.
         13    1    1    2    0    0 -0.20855060401E+03 -0.31489363556E+03  0.60019385106E+03  0.70914316337E+03  0.10566000000E+00 0. -1.
         -4    1    1    2    0  502  0.15915334310E+03  0.27547657042E+03 -0.19760104597E+03  0.37451742395E+03  0.00000000000E+00 0. -1.
</event>
<event>
 5    1  0.6336319E-005  0.4453603E+03  0.7818608E-02  0.9721099E-01
         21   -1    0    0  501  502  0.00000000000E+00  0.00000000000E+00  0.11850011983E+04  0.11850011983E+04  0.00000000000E+00 0.  1.
          4   -1    0    0  502    0 -0.00000000000E+00 -0.00000000000E+00 -0.39094608151E+03  0.39094608151E+03  0.00000000000E+00 0.  1.
        -13    1    1    2    0    0 -0.27631011434E+03 -0.21782616968E+03 -0.10976906354E+03  0.36857126578E+03  0.10566000000E+00 0.  1.
         13    1    1    2    0    0  0.13901670992E+03 -0.26346977142E+03  0.29511804956E+03  0.41932879752E+03  0.10566000000E+00 0. -1.
          4    1    1    2  501    0  0.13729340443E+03  0.48129594110E+03  0.60870613078E+03  0.78804721652E+03  0.00000000000E+00 0.  1.
</event>
<event>
 5    1  0.6336319E-005  0.4713599E+03  0.7818608E-02  0.9609883E-01
         21   -1    0    0  501  502  0.00000000000E+00  0.00000000000E+00  0.29155357084E+03  0.29155357084E+03  0.00000000000E+00 0. -1.
         -4   -1    0    0    0  501 -0.00000000000E+00 -0.00000000000E+00 -0.19482980518E+04  0.19482980518E+04  0.00000000000E+00 0. -1.
        -13    1    1    2    0    0  0.22032657269E+03 -0.29872166639E+03 -0.73980904038E+03  0.82770517698E+03  0.10566000000E+00 0.  1.
         13    1    1    2    0    0 -0.57008042287E+03 -0.98771253885E+01 -0.68495629862E+03  0.89120950866E+03  0.10566000000E+00 0. -1.
         -4    1    1    2    0  502  0.34975385018E+03  0.30859879178E+03 -0.23197914195E+03  0.52093693697E+03  0.00000000000E+00 0. -1.
</event>
<event>
 5    1  0.6336319E-005  0.5855985E+02  0.7818608E-02  0.1260392E+00
         -4   -1    0    0    0  501 -0.00000000000E+00  0.00000000000E+00  0.20115810543E+03  0.20115810543E+03  0.00000000000E+00 0. -1.
         21   -1    0    0  501  502  0.00000000000E+00 -0.00000000000E+00 -0.67015189301E+02  0.67015189301E+02  0.00000000000E+00 0. -1.
        -13    1    1    2    0    0 -0.13775728938E+02  0.49020414274E+02  0.35264850368E+02  0.61938619285E+02  0.10566000000E+00 0.  1.
         13    1    1    2    0    0  0.13206072229E+02 -0.60829679066E+02  0.14543706690E+03  0.15819798290E+03  0.10566000000E+00 0. -1.
         -4    1    1    2    0  502  0.56965670854E+00  0.11809264792E+02 -0.46559001142E+02  0.48036692549E+02  0.00000000000E+00 0. -1.
</event>
<event>
 5    1  0.6336319E-005  0.4989459E+03  0.7818608E-02  0.9906207E-01
          4   -1    0    0  502    0 -0.00000000000E+00  0.00000000000E+00  0.19643973083E+04  0.19643973083E+04  0.00000000000E+00 0.  1.
         21   -1    0    0  501  502  0.00000000000E+00 -0.00000000000E+00 -0.20059903024E+03  0.20059903024E+03  0.00000000000E+00 0.  1.
        -13    1    1    2    0    0 -0.41908048784E+03  0.17147152758E+03  0.74059451227E+03  0.86805021907E+03  0.10566000000E+00 0.  1.
         13    1    1    2    0    0 -0.99824345073E+02 -0.52542403471E+02  0.61722737469E+03  0.62745139036E+03  0.10566000000E+00 0. -1.
          4    1    1    2  501    0  0.51890483292E+03 -0.11892912411E+03  0.40597639111E+03  0.66949472912E+03  0.00000000000E+00 0.  1.
</event>
<event>
 5    1  0.6336319E-005  0.2221850E+02  0.7818608E-02  0.1487332E+00
         21   -1    0    0  501  502  0.00000000000E+00  0.00000000000E+00  0.26915548874E+02  0.26915548874E+02  0.00000000000E+00 0.  1.
          4   -1    0    0  502    0 -0.00000000000E+00 -0.00000000000E+00 -0.16412769187E+03  0.16412769187E+03  0.00000000000E+00 0.  1.
        -13    1    1    2    0    0  0.21612264497E+02 -0.71304518634E+01  0.18580574977E+02  0.29379963427E+02  0.10566000000E+00 0.  1.
         13    1    1    2    0    0 -0.28042715515E+01  0.20069931140E+02 -0.78051453918E+02  0.80639361962E+02  0.10566000000E+00 0. -1.
          4    1    1    2  501    0 -0.18807992945E+02 -0.12939479277E+02 -0.77741264060E+02  0.81023915360E+02  0.00000000000E+00 0.  1.
</event>
<event>
 5    1  0.6336319E-005  0.5496823E+03  0.7818608E-02  0.9422817E-01
         21   -1    0    0  501  502  0.00000000000E+00  0.00000000000E+00  0.73685447707E+03  0.73685447707E+03  0.00000000000E+00 0. -1.
         -4   -1    0    0    0  501 -0.00000000000E+00 -0.00000000000E+00 -0.10898540669E+04  0.10898540669E+04  0.00000000000E+00 0. -1.
        -13    1    1    2    0    0 -0.59898209831E+02  0.59738717502E+03 -0.38931982224E+01  0.60039520366E+03  0.10566000000E+00 0.  1.
         13    1    1    2    0    0  0.12275834118E+03  0.16933154812E+03 -0.40414474242E+03  0.45505578506E+03  0.10566000000E+00 0. -1.
         -4    1    1    2    0  502 -0.62860131352E+02 -0.76671872315E+03  0.55038350780E+02  0.77125755529E+03  0.00000000000E+00 0. -1.
</event>
<event>
 5    1  0.6336319E-005  0.4559524E+03  0.7818608E-02  0.9905878E-01
         21   -1    0    0  501  502  0.00000000000E+00  0.00000000000E+00  0.39593625229E+03  0.39593625229E+03  0.00000000000E+00 0.  1.
          4   -1    0    0  502    0 -0.00000000000E+00 -0.00000000000E+00 -0.10768608839E+04  0.10768608839E+04  0.00000000000E+00 0.  1.
        -13    1    1    2    0    0 -0.14472489407E+03 -0.50452480386E+03 -0.67331877822E+01  0.52491515472E+03  0.10566000000E+00 0.  1.
         13    1    1    2    0    0  0.71266718548E+02  0.12969481726E+03 -0.51192097355E+03  0.53288158640E+03  0.10566000000E+00 0. -1.
          4    1    1    2  501    0  0.73458175522E+02  0.37482998659E+03 -0.16227047031E+03  0.41500039510E+03  0.00000000000E+00 0.  1.
</event>
<event>
 5    1  0.6336319E-005  0.1892359E+03  0.7818608E-02  0.1067777E+00
         -4   -1    0    0    0  501 -0.00000000000E+00  0.00000000000E+00  0.75117436784E+02  0.75117436784E+02  0.00000000000E+00 0. -1.
         21   -1    0    0  501  502  0.00000000000E+00 -0.00000000000E+00 -0.69255456500E+03  0.69255456500E+03  0.00000000000E+00 0. -1.
        -13    1    1    2    0    0  0.24459682138E+02  0.16902531670E+03 -0.21804898708E+03  0.27697148891E+03  0.10566000000E+00 0.  1.
         13    1    1    2    0    0 -0.68391333289E+02 -0.19943353773E+03 -0.22514581084E+03  0.30845057585E+03  0.10566000000E+00 0. -1.
         -4    1    1    2    0  502  0.43931651151E+02  0.30408221032E+02 -0.17424233029E+03  0.18224993702E+03  0.00000000000E+00 0. -1.
</event>
<event>
 5    1  0.6336319E-005  0.4845607E+03  0.7818608E-02  0.9512469E-01
          4   -1    0    0  502    0 -0.00000000000E+00  0.00000000000E+00  0.93617772719E+03  0.93617772719E+03  0.00000000000E+00 0.  1.
         21   -1    0    0  501  502  0.00000000000E+00 -0.00000000000E+00 -0.71964159217E+03  0.71964159217E+03  0.00000000000E+00 0.  1.
        -13    1    1    2    0    0 -0.45599634385E+03 -0.36556516181E+03 -0.13843286899E+03  0.60061154128E+03  0.10566000000E+00 0.  1.
         13    1    1    2    0    0  0.49575235042E+03 -0.11617547832E+03  0.15672844979E+03  0.53275787451E+03  0.10566000000E+00 0. -1.
          4    1    1    2  501    0 -0.39756006567E+02  0.48174064013E+03  0.19824055422E+03  0.52244990358E+03  0.00000000000E+00 0.  1.
</event>
<event>
 5    1  0.6336319E-005  0.1425116E+03  0.7818608E-02  0.1108741E+00
         21   -1    0    0  501  502  0.00000000000E+00  0.00000000000E+00  0.51881144263E+02  0.51881144263E+02  0.00000000000E+00 0.  1.
         -4   -1    0    0    0  501 -0.00000000000E+00 -0.00000000000E+00 -0.76045348541E+03  0.76045348541E+03  0.00000000000E+00 0. -1.
        -13    1    1    2    0    0 -0.27465990065E+02 -0.16746613787E+03 -0.25697032077E+03  0.30794974406E+03  0.10566000000E+00 0.  1.
         13    1    1    2    0    0  0.14911100766E+01  0.13257384127E+03 -0.43974760041E+03  0.45929947749E+03  0.10566000000E+00 0. -1.
         -4    1    1    2    0  502  0.25974879989E+02  0.34892296606E+02 -0.11854419968E+02  0.45085408123E+02  0.00000000000E+00 0. -1.
</event>
<event>
 5    1  0.6336319E-005  0.3695909E+03  0.7818608E-02  0.9867499E-01
         21   -1    0    0  501  502  0.00000000000E+00  0.00000000000E+00  0.38296243919E+03  0.38296243919E+03  0.00000000000E+00 0.  1.
         -4   -1    0    0    0  501 -0.00000000000E+00 -0.00000000000E+00 -0.23357113185E+04  0.23357113185E+04  0.00000000000E+00 0. -1.
        -13    1    1    2    0    0 -0.31532498605E+03 -0.21070625797E+02 -0.16313126785E+04  0.16616422251E+04  0.10566000000E+00 0.  1.
         13    1    1    2    0    0 -0.30378025119E+03  0.81022492659E+02  0.70017720228E+02  0.32210181254E+03  0.10566000000E+00 0. -1.
         -4    1    1    2    0  502  0.61910523724E+03 -0.59951866862E+02 -0.39145392107E+03  0.73492972007E+03  0.00000000000E+00 0. -1.
</event>
<event>
 5    1  0.6336319E-005  0.1160412E+03  0.7818608E-02  0.1148203E+00
         -4   -1    0    0    0  501 -0.00000000000E+00  0.00000000000E+00  0.50878714760E+03  0.50878714760E+03  0.00000000000E+00 0. -1.
         21   -1    0    0  501  502  0.00000000000E+00 -0.00000000000E+00 -0.60374307538E+03  0.60374307538E+03  0.00000000000E+00 0. -1.
        -13    1    1    2    0    0  0.74711120348E+02  0.59574097064E+02 -0.35909975757E+02  0.10208017470E+03  0.10566000000E+00 0.  1.
         13    1    1    2    0    0  0.13613182440E+02 -0.13520060272E+03  0.45942560536E+03  0.47909959271E+03  0.10566000000E+00 0. -1.
         -4    1    1    2    0  502 -0.88324302788E+02  0.75626505654E+02 -0.51847155738E+03  0.53135045557E+03  0.00000000000E+00 0. -1.
</event>
<event>
 5    1  0.6336319E-005  0.4861664E+03  0.7818608E-02  0.9508819E-01
         -4   -1    0    0    0  501 -0.00000000000E+00  0.00000000000E+00  0.23659710424E+04  0.23659710424E+04  0.00000000000E+00 0. -1.
         21   -1    0    0  501  502  0.00000000000E+00 -0.00000000000E+00 -0.42150530262E+03  0.42150530262E+03  0.00000000000E+00 0.  1.
        -13    1    1    2    0    0  0.60246472492E+03  0.41568652697E+03  0.61411853761E+03  0.95545833131E+03  0.10566000000E+00 0.  1.
         13    1    1    2    0    0 -0.40765592155E+03 -0.16795396884E+03  0.14340055862E+04  0.15002546178E+04  0.10566000000E+00 0. -1.
         -4    1    1    2    0  502 -0.19480880337E+03 -0.24773255813E+03 -0.10365838405E+03  0.33176339582E+03  0.00000000000E+00 0. -1.
</event>
<event>
 5    1  0.6336319E-005  0.4150150E+03  0.7818608E-02  0.9686655E-01
         -4   -1    0    0    0  501 -0.00000000000E+00  0.00000000000E+00  0.68560421836E+03  0.68560421836E+03  0.00000000000E+00 0. -1.
         21   -1    0    0  501  502  0.00000000000E+00 -0.00000000000E+00 -0.63821368031E+03  0.63821368031E+03  0.00000000000E+00 0. -1.
        -13    1    1    2    0    0  0.62836565562E+02  0.33956920774E+03  0.16719701150E+03  0.38368024791E+03  0.10566000000E+00 0.  1.
         13    1    1    2    0    0 -0.22065129134E+03 -0.51594595056E+03  0.15038239741E+03  0.58094930320E+03  0.10566000000E+00 0. -1.
         -4    1    1    2    0  502  0.15781472578E+03  0.17637674282E+03 -0.27018887086E+03  0.35918834755E+03  0.00000000000E+00 0. -1.
</event>
<event>
 5    1  0.6336319E-005  0.4220033E+03  0.7818608E-02  0.9945547E-01
          4   -1    0    0  502    0 -0.00000000000E+00  0.00000000000E+00  0.11723780133E+04  0.11723780133E+04  0.00000000000E+00 0.  1.
         21   -1    0    0  501  502  0.00000000000E+00 -0.00000000000E+00 -0.39514479120E+03  0.39514479120E+03  0.00000000000E+00 0.  1.
        -13    1    1    2    0    0  0.38492696874E+03  0.28079260284E+03  0.43028175278E+03  0.64199350076E+03  0.10566000000E+00 0.  1.
         13    1    1    2    0    0  0.10253475056E+02 -0.16324593727E+03  0.46806051750E+03  0.49581753599E+03  0.10566000000E+00 0. -1.
          4    1    1    2  501    0 -0.39518044380E+03 -0.11754666558E+03 -0.12110904822E+03  0.42971176771E+03  0.00000000000E+00 0.  1.
</event>
<event>
 5    1  0.6336319E-005  0.2752805E+03  0.7818608E-02  0.1023351E+00
         21   -1    0    0  501  502  0.00000000000E+00  0.00000000000E+00  0.23049420831E+03  0.23049420831E+03  0.00000000000E+00 0. -1.
         -4   -1    0    0    0  501 -0.00000000000E+00 -0.00000000000E+00 -0.19103904990E+04  0.19103904990E+04  0.00000000000E+00 0. -1.
        -13    1    1    2    0    0  0.72623047708E+01  0.29907167503E+03 -0.39964850183E+03  0.49921492772E+03  0.10566000000E+00 0.  1.
         13    1    1    2    0    0 -0.20339778855E+03  0.13029054985E+03  0.35191538008E+02  0.24409986333E+03  0.10566000000E+00 0. -1.
         -4    1    1    2    0  502  0.19613548378E+03 -0.42936222488E+03 -0.13154393269E+04  0.13975699163E+04  0.00000000000E+00 0. -1.
</event>
<event>
 5    1  0.6336319E-005  0.1886021E+03  0.7818608E-02  0.1085456E+00
         21   -1    0    0  501  502  0.00000000000E+00  0.00000000000E+00  0.77018094037E+03  0.77018094037E+03  0.00000000000E+00 0.  1.
          4   -1    0    0  502    0 -0.00000000000E+00 -0.00000000000E+00 -0.80693290177E+03  0.80693290177E+03  0.00000000000E+00 0.  1.
        -13    1    1    2    0    0 -0.90229373044E+02  0.28813076436E+02 -0.35547457203E+03  0.36787731061E+03  0.10566000000E+00 0.  1.
         13    1    1    2    0    0  0.27655751381E+03  0.38606857729E+00 -0.38873334218E+03  0.47707214337E+03  0.10566000000E+00 0. -1.
          4    1    1    2  501    0 -0.18632814076E+03 -0.29199145013E+02  0.70745595282E+03  0.73216438816E+03  0.00000000000E+00 0.  1.
</event>
<event>
 5    1  0.6336319E-005  0.8644861E+02  0.7818608E-02  0.1189161E+00
         -4   -1    0    0    0  501 -0.00000000000E+00  0.00000000000E+00  0.21710785697E+03  0.21710785697E+03  0.00000000000E+00 0. -1.
         21   -1    0    0  501  502  0.00000000000E+00 -0.00000000000E+00 -0.12779880254E+03  0.12779880254E+03  0.00000000000E+00 0.  1.
        -13    1    1    2    0    0  0.99877342817E+01  0.99346673761E+02 -0.46095225908E+02  0.10997407621E+03  0.10566000000E+00 0.  1.
         13    1    1    2    0    0 -0.13236890935E+02 -0.83745432229E+02  0.17379085749E+03  0.19336955813E+03  0.10566000000E+00 0. -1.
         -4    1    1    2    0  502  0.32491566535E+01 -0.15601241532E+02 -0.38386577141E+02  0.41563025166E+02  0.00000000000E+00 0. -1.
</event>
<event>
 5    1  0.6336319E-005  0.2535283E+03  0.7818608E-02  0.1028580E+00
         -4   -1    0    0    0  501 -0.00000000000E+00  0.00000000000E+00  0.18968009896E+04  0.18968009896E+04  0.00000000000E+00 0. -1.
         21   -1    0    0  501  502  0.00000000000E+00 -0.00000000000E+00 -0.32847966446E+03  0.32847966446E+03  0.00000000000E+00 0.  1.
        -13    1    1    2    0    0 -0.92505587507E+02  0.34311826281E+03  0.85534100515E+03  0.92622657716E+03  0.10566000000E+00 0.  1.
         13    1    1    2    0    0 -0.70662028516E+01 -0.22114381015E+03  0.97148987194E+03  0.99636694970E+03  0.10566000000E+00 0. -1.
         -4    1    1    2    0  502  0.99571790359E+02 -0.12197445266E+03 -0.25850955194E+03  0.30268712721E+03  0.00000000000E+00 0. -1.
</event>
<event>
 5    1  0.6336319E-005  0.8704533E+02  0.7818608E-02  0.1187975E+00
         21   -1    0    0  501  502  0.00000000000E+00  0.00000000000E+00  0.92189523665E+02  0.92189523665E+02  0.00000000000E+00 0.  1.
         -4   -1    0    0    0  501 -0.00000000000E+00 -0.00000000000E+00 -0.13678070466E+03  0.13678070466E+03  0.00000000000E+00 0. -1.
        -13    1    1    2    0    0 -0.47186804185E+02 -0.66305756385E+02  0.34169212538E+02  0.88264341999E+02  0.10566000000E+00 0.  1.
         13    1    1    2    0    0  0.44741234306E+02  0.76730132431E+02 -0.89108058566E+02  0.12581553376E+03  0.10566000000E+00 0. -1.
         -4    1    1    2    0  502  0.24455698789E+01 -0.10424376046E+02  0.10347665031E+02  0.14890352567E+02  0.00000000000E+00 0. -1.
</event>
<event>
 5    1  0.6336319E-005  0.4854675E+03  0.7818608E-02  0.9826343E-01
         21   -1    0    0  501  502  0.00000000000E+00  0.00000000000E+00  0.33356863411E+03  0.33356863411E+03  0.00000000000E+00 0. -1.
         -4   -1    0    0    0  501 -0.00000000000E+00 -0.00000000000E+00 -0.11172082672E+04  0.11172082672E+04  0.00000000000E+00 0. -1.
        -13    1    1    2    0    0 -0.14578489773E+03  0.66584582342E+02 -0.31861137311E+03  0.35665103568E+03  0.10566000000E+00 0.  1.
         13    1    1    2    0    0  0.49637964652E+03  0.19235828641E+03 -0.14007309591E+03  0.55046793475E+03  0.10566000000E+00 0. -1.
         -4    1    1    2    0  502 -0.35059474879E+03 -0.25894286876E+03 -0.32495516408E+03  0.54365793089E+03  0.00000000000E+00 0. -1.
</event>
<event>
 5    1  0.6336319E-005  0.4716219E+03  0.7818608E-02  0.1006942E+00
         -4   -1    0    0    0  501 -0.00000000000E+00  0.00000000000E+00  0.29331028357E+04  0.29331028357E+04  0.00000000000E+00 0. -1.
         21   -1    0    0  501  502  0.00000000000E+00 -0.00000000000E+00 -0.12023347168E+03  0.12023347168E+03  0.00000000000E+00 0.  1.
        -13    1    1    2    0    0  0.63067685968E+02 -0.46113070853E+02 -0.55608164175E+01  0.78325488572E+02  0.10566000000E+00 0.  1.
         13    1    1    2    0    0  0.35093784895E+03  0.29661320176E+03  0.15779868800E+04  0.16435265041E+04  0.10566000000E+00 0. -1.
         -4    1    1    2    0  502 -0.41400553491E+03 -0.25050013091E+03  0.12404433005E+04  0.13314843147E+04  0.00000000000E+00 0. -1.
</event>
<event>
 5    1  0.6336319E-005  0.7964454E+02  0.7818608E-02  0.1252446E+00
         -4   -1    0    0    0  501 -0.00000000000E+00  0.00000000000E+00  0.11373351691E+03  0.11373351691E+03  0.00000000000E+00 0. -1.
         21   -1    0    0  501  502  0.00000000000E+00 -0.00000000000E+00 -0.20912291827E+03  0.20912291827E+03  0.00000000000E+00 0. -1.
        -13    1    1    2    0    0 -0.23678564726E+00 -0.27452892490E+02 -0.33615796012E+02  0.43402192099E+02  0.10566000000E+00 0.  1.
         13    1    1    2    0    0  0.68396005677E+02  0.65998862673E+02  0.75522545711E+02  0.12139822709E+03  0.10566000000E+00 0. -1.
         -4    1    1    2    0  502 -0.68159220030E+02 -0.38545970183E+02 -0.13729615106E+03  0.15805601598E+03  0.00000000000E+00 0. -1.
</event>
<event>
 5    1  0.6336319E-005  0.4946356E+03  0.7818608E-02  0.9883674E-01
         -4   -1    0    0    0  501 -0.00000000000E+00  0.00000000000E+00  0.92049128698E+03  0.92049128698E+03  0.00000000000E+00 0. -1.
         21   -1    0    0  501  502  0.00000000000E+00 -0.00000000000E+00 -0.40939603106E+03  0.40939603106E+03  0.00000000000E+00 0. -1.
        -13    1    1    2    0    0 -0.11942949147E+03  0.36414943577E+02  0.26732981093E+03  0.29505031863E+03  0.10566000000E+00 0.  1.
         13    1    1    2    0    0  0.21541206374E+03 -0.48262766274E+03  0.26074255170E+02  0.52916131377E+03  0.10566000000E+00 0. -1.
         -4    1    1    2    0  502 -0.95982572268E+02  0.44621271916E+03  0.21769118982E+03  0.50567568564E+03  0.00000000000E+00 0. -1.
</event>
<event>
 5    1  0.6336319E-005  0.7073042E+02  0.7818608E-02  0.1235829E+00
         21   -1    0    0  501  502  0.00000000000E+00  0.00000000000E+00  0.12496977050E+03  0.12496977050E+03  0.00000000000E+00 0.  1.
          4   -1    0    0  502    0 -0.00000000000E+00 -0.00000000000E+00 -0.15230703426E+03  0.15230703426E+03  0.00000000000E+00 0.  1.
        -13    1    1    2    0    0  0.53815970598E+02 -0.24024294747E+02 -0.90166325953E+02  0.10771862852E+03  0.10566000000E+00 0.  1.
         13    1    1    2    0    0 -0.58564190513E+02 -0.46546571997E+02 -0.21528532545E+00  0.74809125693E+02  0.10566000000E+00 0. -1.
          4    1    1    2  501    0  0.47482199150E+01  0.70570866744E+02  0.63044347516E+02  0.94749050544E+02  0.00000000000E+00 0.  1.
</event>
<event>
 5    1  0.6336319E-005  0.3277149E+03  0.7818608E-02  0.9967024E-01
         21   -1    0    0  501  502  0.00000000000E+00  0.00000000000E+00  0.20518716567E+03  0.20518716567E+03  0.00000000000E+00 0. -1.
         -4   -1    0    0    0  501 -0.00000000000E+00 -0.00000000000E+00 -0.26222774885E+04  0.26222774885E+04  0.00000000000E+00 0. -1.
        -13    1    1    2    0    0 -0.47452536761E+01 -0.32888475773E+03 -0.11464518459E+04  0.11927026233E+04  0.10566000000E+00 0.  1.
         13    1    1    2    0    0  0.33035939184E+03  0.27275712609E+03 -0.12292497173E+04  0.13017636714E+04  0.10566000000E+00 0. -1.
         -4    1    1    2    0  502 -0.32561413816E+03  0.56127631643E+02 -0.41388759599E+02  0.33299835950E+03  0.00000000000E+00 0. -1.
</event>
<event>
 5    1  0.6336319E-005  0.3159727E+03  0.7818608E-02  0.1020320E+00
         21   -1    0    0  501  502  0.00000000000E+00  0.00000000000E+00  0.12914927845E+04  0.12914927845E+04  0.00000000000E+00 0.  1.
          4   -1    0    0  502    0 -0.00000000000E+00 -0.00000000000E+00 -0.27849041037E+03  0.27849041037E+03  0.00000000000E+00 0.  1.
        -13    1    1    2    0    0 -0.36760397044E+02  0.19451292225E+03 -0.17223728083E+03  0.26239720994E+03  0.10566000000E+00 0.  1.
         13    1    1    2    0    0 -0.14892639261E+03  0.80993269405E+02  0.17299308322E+03  0.24220982249E+03  0.10566000000E+00 0. -1.
          4    1    1    2  501    0  0.18568678965E+03 -0.27550619166E+03  0.10122465717E+04  0.10653761624E+04  0.00000000000E+00 0.  1.
</event>
<event>
 5    1  0.1658807E-004  0.4399204E+03  0.7818608E-02  0.9701379E-01
          4   -1    0    0  502    0 -0.00000000000E+00  0.00000000000E+00  0.23642946285E+04  0.23642946285E+04  0.00000000000E+00 0.  1.
         21   -1    0    0  501  502  0.00000000000E+00 -0.00000000000E+00 -0.28816309095E+03  0.28816309095E+03  0.00000000000E+00 0. -1.
        -13    1    1    2    0    0 -0.36691803027E+02  0.29827843576E+03  0.24296484538E+03  0.38645600125E+03  0.10566000000E+00 0.  1.
         13    1    1    2    0    0  0.18142075811E+03  0.47359761217E+03  0.46291596306E+03  0.68665813164E+03  0.10566000000E+00 0. -1.
          4    1    1    2  501    0 -0.14472895508E+03 -0.77187604793E+03  0.13702507291E+04  0.15793435866E+04  0.00000000000E+00 0.  1.
</event>
<event>
 5    1  0.6336319E-005  0.6077481E+03  0.7818608E-02  0.9268758E-01
          4   -1    0    0  502    0 -0.00000000000E+00  0.00000000000E+00  0.12510398800E+04  0.12510398800E+04  0.00000000000E+00 0.  1.
         21   -1    0    0  501  502  0.00000000000E+00 -0.00000000000E+00 -0.62483215083E+03  0.62483215083E+03  0.00000000000E+00 0.  1.
        -13    1    1    2    0    0 -0.78983555829E+03  0.17551223543E+03  0.14363293700E+03  0.82175129187E+03  0.10566000000E+00 0.  1.
         13    1    1    2    0    0  0.47515877314E+03 -0.26324916996E+03  0.48383034147E+03  0.72743920411E+03  0.10566000000E+00 0. -1.
          4    1    1    2  501    0  0.31467678516E+03  0.87736934533E+02 -0.12555493282E+01  0.32668153484E+03  0.00000000000E+00 0.  1.
</event>
<event>
 5    1  0.6336319E-005  0.3485206E+03  0.7818608E-02  0.9897896E-01
         21   -1    0    0  501  502  0.00000000000E+00  0.00000000000E+00  0.63114722224E+03  0.63114722224E+03  0.00000000000E+00 0. -1.
         -4   -1    0    0    0  501 -0.00000000000E+00 -0.00000000000E+00 -0.15436287007E+04  0.15436287007E+04  0.00000000000E+00 0. -1.
        -13    1    1    2    0    0 -0.21096743101E+02  0.33966343376E+03 -0.10548443956E+04  0.11083830704E+04  0.10566000000E+00 0.  1.
         13    1    1    2    0    0  0.24041292403E+03 -0.23247672775E+02 -0.35997184656E+03  0.43349575524E+03  0.10566000000E+00 0. -1.
         -4    1    1    2    0  502 -0.21931618093E+03 -0.31641576099E+03  0.50233476363E+03  0.63289709730E+03  0.00000000000E+00 0. -1.
</event>
<event>
 5    1  0.6336319E-005  0.1885830E+03  0.7818608E-02  0.1068258E+00
          4   -1    0    0  502    0 -0.00000000000E+00  0.00000000000E+00  0.31067530433E+03  0.31067530433E+03  0.00000000000E+00 0.  1.
         21   -1    0    0  501  502  0.00000000000E+00 -0.00000000000E+00 -0.33956602353E+03  0.33956602353E+03  0.00000000000E+00 0.  1.
        -13    1    1    2    0    0 -0.26560861973E+03 -0.30167923620E+02  0.42242064388E+02  0.27063341563E+03  0.10566000000E+00 0.  1.
         13    1    1    2    0    0  0.15396549804E+03 -0.41260665101E+02  0.80203673066E+02  0.17843894589E+03  0.10566000000E+00 0. -1.
          4    1    1    2  501    0  0.11164312169E+03  0.71428588721E+02 -0.15133645666E+03  0.20116896635E+03  0.00000000000E+00 0.  1.
</event>
<event>
 5    1  0.6336319E-005  0.5059688E+03  0.7818608E-02  0.9628620E-01
         -4   -1    0    0    0  501 -0.00000000000E+00  0.00000000000E+00  0.17603688319E+04  0.17603688319E+04  0.00000000000E+00 0. -1.
         21   -1    0    0  501  502  0.00000000000E+00 -0.00000000000E+00 -0.11396273121E+04  0.11396273121E+04  0.00000000000E+00 0. -1.
        -13    1    1    2    0    0 -0.18333791135E+03  0.21273081809E+03  0.15021623119E+04  0.15281880818E+04  0.10566000000E+00 0.  1.
         13    1    1    2    0    0 -0.35034937423E+03 -0.34982115040E+03 -0.35025965523E+03  0.60646628805E+03  0.10566000000E+00 0. -1.
         -4    1    1    2    0  502  0.53368728558E+03  0.13709033231E+03 -0.53116113690E+03  0.76534177422E+03  0.00000000000E+00 0. -1.
</event>
<event>
 5    1  0.6336319E-005  0.4679674E+03  0.7818608E-02  0.1005869E+00
         21   -1    0    0  501  502  0.00000000000E+00  0.00000000000E+00  0.11610455120E+03  0.11610455120E+03  0.00000000000E+00 0. -1.
         -4   -1    0    0    0  501 -0.00000000000E+00 -0.00000000000E+00 -0.26868997614E+04  0.26868997614E+04  0.00000000000E+00 0. -1.
        -13    1    1    2    0    0 -0.60518351923E+02  0.56507395933E+02 -0.79085715489E+02  0.11449942477E+03  0.10566000000E+00 0.  1.
         13    1    1    2    0    0 -0.44572930613E+03 -0.71592066894E+02 -0.75718767441E+03  0.88155160020E+03  0.10566000000E+00 0. -1.
         -4    1    1    2    0  502  0.50624765805E+03  0.15084670962E+02 -0.17345218203E+04  0.18069532876E+04  0.00000000000E+00 0. -1.
</event>
<event>
 5    1  0.6336319E-005  0.4905959E+03  0.7818608E-02  0.9616478E-01
         21   -1    0    0  501  502  0.00000000000E+00  0.00000000000E+00  0.91118701862E+03  0.91118701862E+03  0.00000000000E+00 0.  1.
          4   -1    0    0  502    0 -0.00000000000E+00 -0.00000000000E+00 -0.59646622956E+03  0.59646622956E+03  0.00000000000E+00 0.  1.
        -13    1    1    2    0    0 -0.56705502012E+03  0.13380706613E+03  0.19199249801E+03  0.61344670286E+03  0.10566000000E+00 0.  1.
         13    1    1    2    0    0  0.24692822136E+03  0.20604276401E+03 -0.14853013622E+03  0.35424339039E+03  0.10566000000E+00 0. -1.
          4    1    1    2  501    0  0.32012679876E+03 -0.33984983014E+03  0.27125842727E+03  0.53996315494E+03  0.00000000000E+00 0.  1.
</event>
<event>
 5    1  0.6336319E-005  0.5040769E+03  0.7818608E-02  0.1027583E+00
          4   -1    0    0  502    0 -0.00000000000E+00  0.00000000000E+00  0.24192610426E+03  0.24192610426E+03  0.00000000000E+00 0.  1.
         21   -1    0    0  501  502  0.00000000000E+00 -0.00000000000E+00 -0.23104834366E+04  0.23104834366E+04  0.00000000000E+00 0.  1.
        -13    1    1    2    0    0 -0.49188840262E+03  0.13056519607E+02 -0.13018662702E+04  0.13917544575E+04  0.10566000000E+00 0.  1.
         13    1    1    2    0    0 -0.30653198483E+02  0.12933687855E+02  0.12360905417E+03  0.12800823527E+03  0.10566000000E+00 0. -1.
          4    1    1    2  501    0  0.52254160111E+03 -0.25990207462E+02 -0.89030011630E+03  0.10326468481E+04  0.00000000000E+00 0.  1.
</event>
<event>
 5    1  0.6336319E-005  0.3082253E+03  0.7818608E-02  0.1003967E+00
         -4   -1    0    0    0  501 -0.00000000000E+00  0.00000000000E+00  0.30015525970E+04  0.30015525970E+04  0.00000000000E+00 0. -1.
         21   -1    0    0  501  502  0.00000000000E+00 -0.00000000000E+00 -0.28610316118E+03  0.28610316118E+03  0.00000000000E+00 0. -1.
        -13    1    1    2    0    0  0.47369314306E+03 -0.19786197752E+03  0.16450703924E+04  0.17233082032E+04  0.10566000000E+00 0.  1.
         13    1    1    2    0    0 -0.17850808683E+03  0.17340537453E+03  0.12111124119E+04  0.12364173431E+04  0.10566000000E+00 0. -1.
         -4    1    1    2    0  502 -0.29518505623E+03  0.24456602997E+02 -0.14073336850E+03  0.32793021188E+03  0.00000000000E+00 0. -1.
</event>
<event>
 5    1  0.6336319E-005  0.5080617E+03  0.7818608E-02  0.9597331E-01
          4   -1    0    0  502    0 -0.00000000000E+00  0.00000000000E+00  0.21288868293E+04  0.21288868293E+04  0.00000000000E+00 0.  1.
         21   -1    0    0  501  502  0.00000000000E+00 -0.00000000000E+00 -0.22515872050E+03  0.22515872050E+03  0.00000000000E+00 0. -1.
        -13    1    1    2    0    0  0.13363511974E+03 -0.34109882229E+03  0.75484611647E+03  0.83904673440E+03  0.10566000000E+00 0.  1.
         13    1    1    2    0    0  0.10565027005E+03 -0.29137708457E+03  0.32421811309E+03  0.44853091420E+03  0.10566000000E+00 0. -1.
          4    1    1    2  501    0 -0.23928538979E+03  0.63247590686E+03  0.82466387921E+03  0.10664679012E+04  0.00000000000E+00 0.  1.
</event>
<event>
 5    1  0.6336319E-005  0.8437894E+03  0.7818608E-02  0.8937088E-01
          4   -1    0    0  502    0 -0.00000000000E+00  0.00000000000E+00  0.75637071220E+03  0.75637071220E+03  0.00000000000E+00 0.  1.
         21   -1    0    0  501  502  0.00000000000E+00 -0.00000000000E+00 -0.15403366318E+04  0.15403366318E+04  0.00000000000E+00 0. -1.
        -13    1    1    2    0    0  0.12323127767E+03  0.98061502382E+03 -0.47979270448E+03  0.10986322511E+04  0.10566000000E+00 0.  1.
         13    1    1    2    0    0 -0.10996155212E+01 -0.77840994027E+03  0.41362086471E+02  0.77950886950E+03  0.10566000000E+00 0. -1.
          4    1    1    2  501    0 -0.12213166215E+03 -0.20220508355E+03 -0.34553530157E+03  0.41856622337E+03  0.00000000000E+00 0.  1.
</event>
<event>
 5    1  0.6336319E-005  0.2770163E+03  0.7818608E-02  0.1017271E+00
         -4   -1    0    0    0  501 -0.00000000000E+00  0.00000000000E+00  0.19232060424E+04  0.19232060424E+04  0.00000000000E+00 0. -1.
         21   -1    0    0  501  502  0.00000000000E+00 -0.00000000000E+00 -0.40309925704E+03  0.40309925704E+03  0.00000000000E+00 0. -1.
        -13    1    1    2    0    0 -0.24315383826E+03 -0.71009059637E+02  0.12005429371E+04  0.12269757254E+04  0.10566000000E+00 0.  1.
         13    1    1    2    0    0  0.35115398234E+03  0.81970527777E+02  0.65448918403E+03  0.74725122276E+03  0.10566000000E+00 0. -1.
         -4    1    1    2    0  502 -0.10800014409E+03 -0.10961468140E+02 -0.33492533579E+03  0.35207835131E+03  0.00000000000E+00 0. -1.
</event>
<event>
 5    1  0.6336319E-005  0.5517956E+03  0.7818608E-02  0.9760789E-01
          4   -1    0    0  502    0 -0.00000000000E+00  0.00000000000E+00  0.23497215070E+04  0.23497215070E+04  0.00000000000E+00 0.  1.
         21   -1    0    0  501  502  0.00000000000E+00 -0.00000000000E+00 -0.17012509839E+03  0.17012509839E+03  0.00000000000E+00 0.  1.
        -13    1    1    2    0    0 -0.21947341246E+03 -0.54002846423E+03  0.11588007358E+04  0.12971578460E+04  0.10566000000E+00 0.  1.
         13    1    1    2    0    0 -0.90054157433E+02  0.10265769857E+03  0.22925959302E+03  0.26684888327E+03  0.10566000000E+00 0. -1.
          4    1    1    2  501    0  0.30952756990E+03  0.43737076566E+03  0.79153607978E+03  0.95583987612E+03  0.00000000000E+00 0.  1.
</event>
<event>
 5    1  0.6336319E-005  0.3544912E+03  0.7818608E-02  0.9870555E-01
         21   -1    0    0  501  502  0.00000000000E+00  0.00000000000E+00  0.66340489921E+03  0.66340489921E+03  0.00000000000E+00 0.  1.
          4   -1    0    0  502    0 -0.00000000000E+00 -0.00000000000E+00 -0.62765459640E+03  0.62765459640E+03  0.00000000000E+00 0.  1.
        -13    1    1    2    0    0 -0.15122501141E+03 -0.40132565486E+03 -0.31736591427E+02  0.43004477409E+03  0.10566000000E+00 0.  1.
         13    1    1    2    0    0  0.31860886020E+03  0.15736909233E+03 -0.24427465681E+03  0.43121544053E+03  0.10566000000E+00 0. -1.
          4    1    1    2  501    0 -0.16738384879E+03  0.24395656253E+03  0.31176155105E+03  0.42979928100E+03  0.00000000000E+00 0.  1.
</event>
<event>
 5    1  0.6336319E-005  0.2486568E+03  0.7818608E-02  0.1043863E+00
         21   -1    0    0  501  502  0.00000000000E+00  0.00000000000E+00  0.27701404678E+03  0.27701404678E+03  0.00000000000E+00 0.  1.
          4   -1    0    0  502    0 -0.00000000000E+00 -0.00000000000E+00 -0.26535222796E+04  0.26535222796E+04  0.00000000000E+00 0.  1.
        -13    1    1    2    0    0  0.16885101664E+03  0.12244060281E+03  0.19374019112E+03  0.28467110822E+03  0.10566000000E+00 0.  1.
         13    1    1    2    0    0  0.89350563843E+02 -0.28850968474E+03 -0.15982659073E+04  0.16265531910E+04  0.10566000000E+00 0. -1.
          4    1    1    2  501    0 -0.25820158048E+03  0.16606908193E+03 -0.97198251665E+03  0.10193120272E+04  0.00000000000E+00 0.  1.
</event>
<event>
 5    1  0.6336319E-005  0.4605600E+03  0.7818608E-02  0.9600213E-01
         -4   -1    0    0    0  501 -0.00000000000E+00  0.00000000000E+00  0.28469370972E+04  0.28469370972E+04  0.00000000000E+00 0. -1.
         21   -1    0    0  501  502  0.00000000000E+00 -0.00000000000E+00 -0.19835154252E+03  0.19835154252E+03  0.00000000000E+00 0.  1.
        -13    1    1    2    0    0 -0.31762913281E+02  0.41060004120E+03  0.64531144641E+03  0.76552475501E+03  0.10566000000E+00 0.  1.
         13    1    1    2    0    0  0.35622506312E+03  0.28819469882E+02  0.14828359711E+04  0.15252964911E+04  0.10566000000E+00 0. -1.
         -4    1    1    2    0  502 -0.32446214984E+03 -0.43941951108E+03  0.52043813717E+03  0.75446739361E+03  0.00000000000E+00 0. -1.
</event>
<event>
 5    1  0.6336319E-005  0.6175866E+02  0.7818608E-02  0.1250169E+00
          4   -1    0    0  502    0 -0.00000000000E+00  0.00000000000E+00  0.42437295670E+02  0.42437295670E+02  0.00000000000E+00 0.  1.
         21   -1    0    0  501  502  0.00000000000E+00 -0.00000000000E+00 -0.65444088457E+03  0.65444088457E+03  0.00000000000E+00 0. -1.
        -13    1    1    2    0    0  0.56224282201E+02  0.25339851899E+02  0.13493115629E+02  0.63129654970E+02  0.10566000000E+00 0.  1.
         13    1    1    2    0    0 -0.62360489598E+02 -0.13831311729E+02 -0.25019348368E+03  0.25821875665E+03  0.10566000000E+00 0. -1.
          4    1    1    2  501    0  0.61362073968E+01 -0.11508540170E+02 -0.37530322085E+03  0.37552976862E+03  0.00000000000E+00 0.  1.
</event>
<event>
 5    1  0.6336319E-005  0.4411043E+02  0.7818608E-02  0.1317822E+00
         21   -1    0    0  501  502  0.00000000000E+00  0.00000000000E+00  0.56977929931E+02  0.56977929931E+02  0.00000000000E+00 0.  1.
         -4   -1    0    0    0  501 -0.00000000000E+00 -0.00000000000E+00 -0.85298353199E+02  0.85298353199E+02  0.00000000000E+00 0. -1.
        -13    1    1    2    0    0  0.26282710739E+02 -0.16585135058E+02  0.96915075890E+01  0.32554324936E+02  0.10566000000E+00 0.  1.
         13    1    1    2    0    0 -0.30484414886E+02  0.40368015928E+02 -0.59006149146E+02  0.77721380984E+02  0.10566000000E+00 0. -1.
         -4    1    1    2    0  502  0.42017041471E+01 -0.23782880870E+02  0.20994218288E+02  0.32000577210E+02  0.00000000000E+00 0. -1.
</event>
<event>
 5    1  0.6336319E-005  0.3668003E+03  0.7818608E-02  0.9830153E-01
          4   -1    0    0  502    0 -0.00000000000E+00  0.00000000000E+00  0.13595178275E+04  0.13595178275E+04  0.00000000000E+00 0.  1.
         21   -1    0    0  501  502  0.00000000000E+00 -0.00000000000E+00 -0.49555884900E+03  0.49555884900E+03  0.00000000000E+00 0.  1.
        -13    1    1    2    0    0 -0.59532084102E+03 -0.12493439580E+03 -0.14691651716E+03  0.62577949886E+03  0.10566000000E+00 0.  1.
         13    1    1    2    0    0  0.28163321842E+03  0.20118006033E+03  0.70115731418E+03  0.78192856245E+03  0.10566000000E+00 0. -1.
          4    1    1    2  501    0  0.31368762260E+03 -0.76245664528E+02  0.30971818153E+03  0.44736861524E+03  0.00000000000E+00 0.  1.
</event>
<event>
 5    1  0.6336319E-005  0.4403344E+03  0.7818608E-02  0.9692106E-01
          4   -1    0    0  502    0 -0.00000000000E+00  0.00000000000E+00  0.18893018937E+04  0.18893018937E+04  0.00000000000E+00 0.  1.
         21   -1    0    0  501  502  0.00000000000E+00 -0.00000000000E+00 -0.26399155590E+03  0.26399155590E+03  0.00000000000E+00 0.  1.
        -13    1    1    2    0    0 -0.35932413246E+03 -0.18454617144E+02  0.29924509472E+03  0.46797654102E+03  0.10566000000E+00 0.  1.
         13    1    1    2    0    0 -0.31618831367E+03  0.12746590588E+03  0.31293202544E+03  0.46276243427E+03  0.10566000000E+00 0. -1.
          4    1    1    2  501    0  0.67551244613E+03 -0.10901128874E+03  0.10131332176E+04  0.12225544743E+04  0.00000000000E+00 0.  1.
</event>
<event>
 5    1  0.6336319E-005  0.1249608E+03  0.7818608E-02  0.1128813E+00
         -4   -1    0    0    0  501 -0.00000000000E+00  0.00000000000E+00  0.12157946955E+04  0.12157946955E+04  0.00000000000E+00 0. -1.
         21   -1    0    0  501  502  0.00000000000E+00 -0.00000000000E+00 -0.17928464567E+02  0.17928464567E+02  0.00000000000E+00 0.  1.
        -13    1    1    2    0    0  0.83048362904E+02 -0.78409713010E+02  0.29498207099E+03  0.31632190415E+03  0.10566000000E+00 0.  1.
         13    1    1    2    0    0 -0.11139872632E+03  0.70902639936E+02  0.69183596662E+03  0.70432512127E+03  0.10566000000E+00 0. -1.
         -4    1    1    2    0  502  0.28350363417E+02  0.75070730741E+01  0.21104819334E+03  0.21307613466E+03  0.00000000000E+00 0. -1.
</event>
<event>
 5    1  0.6336319E-005  0.4937285E+03  0.7818608E-02  0.9583942E-01
         21   -1    0    0  501  502  0.00000000000E+00  0.00000000000E+00  0.46079833994E+03  0.46079833994E+03  0.00000000000E+00 0. -1.
         -4   -1    0    0    0  501 -0.00000000000E+00 -0.00000000000E+00 -0.23275694248E+04  0.23275694248E+04  0.00000000000E+00 0. -1.
        -13    1    1    2    0    0  0.44379292737E+03  0.37790391719E+03 -0.14873084812E+04  0.15974511143E+04  0.10566000000E+00 0.  1.
         13    1    1    2    0    0  0.18023004144E+03  0.20627545057E+03 -0.99914754698E+02  0.29157400213E+03  0.10566000000E+00 0. -1.
         -4    1    1    2    0  502 -0.62402296881E+03 -0.58417936776E+03 -0.27954784895E+03  0.89934264836E+03  0.00000000000E+00 0. -1.
</event>
<event>
 5    1  0.6336319E-005  0.5585115E+03  0.7818608E-02  0.9358190E-01
         21   -1    0    0  501  502  0.00000000000E+00  0.00000000000E+00  0.36367830547E+03  0.36367830547E+03  0.00000000000E+00 0. -1.
         -4   -1    0    0    0  501 -0.00000000000E+00 -0.00000000000E+00 -0.16811548262E+04  0.16811548262E+04  0.00000000000E+00 0. -1.
        -13    1    1    2    0    0  0.36424939456E+03 -0.27690647545E+03 -0.52139556631E+03  0.69369169327E+03  0.10566000000E+00 0.  1.
         13    1    1    2    0    0 -0.65385758924E+03  0.36973204189E+03 -0.71349854304E+03  0.10360075829E+04  0.10566000000E+00 0. -1.
         -4    1    1    2    0  502  0.28960819468E+03 -0.92825566434E+02 -0.82582411415E+02  0.31513385550E+03  0.00000000000E+00 0. -1.
</event>
<event>
 5    1  0.6336319E-005  0.1806403E+03  0.7818608E-02  0.1074285E+00
         21   -1    0    0  501  502  0.00000000000E+00  0.00000000000E+00  0.41930376349E+03  0.41930376349E+03  0.00000000000E+00 0. -1.
          4   -1    0    0  502    0 -0.00000000000E+00 -0.00000000000E+00 -0.27474864708E+03  0.27474864708E+03  0.00000000000E+00 0.  1.
        -13    1    1    2    0    0 -0.18746896256E+03 -0.12657320459E+02 -0.21392244150E+03  0.28472379919E+03  0.10566000000E+00 0.  1.
         13    1    1    2    0    0  0.12952098945E+03  0.34467371435E+02  0.21953424112E+03  0.25721388102E+03  0.10566000000E+00 0. -1.
          4    1    1    2  501    0  0.57947973111E+02 -0.21810050976E+02  0.13894331679E+03  0.15211473036E+03  0.00000000000E+00 0.  1.
</event>
<event>
 5    1  0.6336319E-005  0.8625177E+03  0.7818608E-02  0.8915748E-01
          4   -1    0    0  502    0 -0.00000000000E+00  0.00000000000E+00  0.11614546837E+04  0.11614546837E+04  0.00000000000E+00 0.  1.
         21   -1    0    0  501  502  0.00000000000E+00 -0.00000000000E+00 -0.13880979334E+04  0.13880979334E+04  0.00000000000E+00 0. -1.
        -13    1    1    2    0    0 -0.15746456512E+03 -0.75645070617E+03  0.19101937575E+03  0.79592786935E+03  0.10566000000E+00 0.  1.
         13    1    1    2    0    0  0.59499553316E+03  0.85946215453E+03  0.12072044666E+03  0.10522681773E+04  0.10566000000E+00 0. -1.
          4    1    1    2  501    0 -0.43753096804E+03 -0.10301144837E+03 -0.53838307215E+03  0.70135657042E+03  0.00000000000E+00 0.  1.
</event>
<event>
 5    1  0.6336319E-005  0.4555405E+03  0.7818608E-02  0.9581133E-01
         -4   -1    0    0    0  501 -0.00000000000E+00  0.00000000000E+00  0.94243612874E+03  0.94243612874E+03  0.00000000000E+00 0. -1.
         21   -1    0    0  501  502  0.00000000000E+00 -0.00000000000E+00 -0.54524687546E+03  0.54524687546E+03  0.00000000000E+00 0.  1.
        -13    1    1    2    0    0 -0.12708365317E+03  0.34777347106E+03  0.18146319870E+03  0.41234154013E+03  0.10566000000E+00 0.  1.
         13    1    1    2    0    0  0.17032405204E+02 -0.56860466532E+03  0.45741791485E+03  0.72995378500E+03  0.10566000000E+00 0. -1.
         -4    1    1    2    0  502  0.11005124796E+03  0.22083119426E+03 -0.24169186027E+03  0.34538767907E+03  0.00000000000E+00 0. -1.
</event>
<event>
 5    1  0.6336319E-005  0.4687471E+02  0.7818608E-02  0.1366021E+00
         21   -1    0    0  501  502  0.00000000000E+00  0.00000000000E+00  0.24131469243E+02  0.24131469243E+02  0.00000000000E+00 0.  1.
          4   -1    0    0  502    0 -0.00000000000E+00 -0.00000000000E+00 -0.17973899896E+03  0.17973899896E+03  0.00000000000E+00 0.  1.
        -13    1    1    2    0    0  0.51266460677E+02 -0.15822264140E+02 -0.67928060815E+02  0.86561115075E+02  0.10566000000E+00 0.  1.
         13    1    1    2    0    0 -0.13463939030E+02 -0.72271861826E+01 -0.66492308610E+02  0.68225714673E+02  0.10566000000E+00 0. -1.
          4    1    1    2  501    0 -0.37802521647E+02  0.23049450323E+02 -0.21187160297E+02  0.49083638460E+02  0.00000000000E+00 0.  1.
</event>
<event>
 5    1  0.6336319E-005  0.5079743E+03  0.7818608E-02  0.9912353E-01
         21   -1    0    0  501  502  0.00000000000E+00  0.00000000000E+00  0.37302730033E+03  0.37302730033E+03  0.00000000000E+00 0. -1.
         -4   -1    0    0    0  501 -0.00000000000E+00 -0.00000000000E+00 -0.11795785696E+04  0.11795785696E+04  0.00000000000E+00 0. -1.
        -13    1    1    2    0    0  0.89992504426E+02  0.53565940304E+02 -0.45989999156E+03  0.47167358863E+03  0.10566000000E+00 0.  1.
         13    1    1    2    0    0  0.46246210820E+03  0.36132254208E+02 -0.16967071860E+03  0.49392803649E+03  0.10566000000E+00 0. -1.
         -4    1    1    2    0  502 -0.55245461262E+03 -0.89698194512E+02 -0.17698055909E+03  0.58700424479E+03  0.00000000000E+00 0. -1.
</event>
<event>
 5    1  0.6336319E-005  0.5034027E+03  0.7818608E-02  0.9606937E-01
          4   -1    0    0  502    0 -0.00000000000E+00  0.00000000000E+00  0.26344710737E+04  0.26344710737E+04  0.00000000000E+00 0.  1.
         21   -1    0    0  501  502  0.00000000000E+00 -0.00000000000E+00 -0.21527161313E+03  0.21527161313E+03  0.00000000000E+00 0.  1.
        -13    1    1    2    0    0 -0.24702895943E+03 -0.39782128744E+03  0.57703219589E+03  0.74313609104E+03  0.10566000000E+00 0.  1.
         13    1    1    2    0    0 -0.27687174181E+03  0.13476026013E+03  0.11921718525E+04  0.12312968879E+04  0.10566000000E+00 0. -1.
          4    1    1    2  501    0  0.52390070123E+03  0.26306102732E+03  0.64999541214E+03  0.87530970785E+03  0.00000000000E+00 0.  1.
</event>
<event>
 5    1  0.6336319E-005  0.4588228E+03  0.7818608E-02  0.9725375E-01
          4   -1    0    0  502    0 -0.00000000000E+00  0.00000000000E+00  0.17129495283E+04  0.17129495283E+04  0.00000000000E+00 0.  1.
         21   -1    0    0  501  502  0.00000000000E+00 -0.00000000000E+00 -0.32811270194E+03  0.32811270194E+03  0.00000000000E+00 0.  1.
        -13    1    1    2    0    0 -0.47304898075E+03 -0.22225546803E+03  0.17721993061E+02  0.52295976085E+03  0.10566000000E+00 0.  1.
         13    1    1    2    0    0  0.11849678986E+03  0.24085625064E+03  0.84578271882E+03  0.88735654689E+03  0.10566000000E+00 0. -1.
          4    1    1    2  501    0  0.35455219089E+03 -0.18600782607E+02  0.52133211446E+03  0.63074592250E+03  0.00000000000E+00 0.  1.
</event>
<event>
 5    1  0.6336319E-005  0.9406407E+02  0.7818608E-02  0.1174769E+00
          4   -1    0    0  502    0 -0.00000000000E+00  0.00000000000E+00  0.20162893415E+03  0.20162893415E+03  0.00000000000E+00 0.  1.
         21   -1    0    0  501  502  0.00000000000E+00 -0.00000000000E+00 -0.90564917690E+02  0.90564917690E+02  0.00000000000E+00 0. -1.
        -13    1    1    2    0    0  0.27377562536E+02 -0.94687829204E+02  0.14275226045E+03  0.17347488278E+03  0.10566000000E+00 0.  1.
         13    1    1    2    0    0 -0.98380169051E+01  0.81826332496E+02 -0.26757811625E+01  0.82459118569E+02  0.10566000000E+00 0. -1.
          4    1    1    2  501    0 -0.17539545631E+02  0.12861496708E+02 -0.29012462822E+02  0.36259850490E+02  0.00000000000E+00 0.  1.
</event>
<event>
 5    1  0.6336319E-005  0.2952189E+03  0.7818608E-02  0.1020586E+00
         21   -1    0    0  501  502  0.00000000000E+00  0.00000000000E+00  0.30011572151E+03  0.30011572151E+03  0.00000000000E+00 0.  1.
         -4   -1    0    0    0  501 -0.00000000000E+00 -0.00000000000E+00 -0.15955890301E+04  0.15955890301E+04  0.00000000000E+00 0. -1.
        -13    1    1    2    0    0 -0.20253470892E+03  0.38257050295E+02  0.53946438274E+02  0.21305900493E+03  0.10566000000E+00 0.  1.
         13    1    1    2    0    0  0.42721687158E+03  0.13035846450E+03 -0.13277837353E+04  0.14008987271E+04  0.10566000000E+00 0. -1.
         -4    1    1    2    0  502 -0.22468216266E+03 -0.16861551479E+03 -0.21636011524E+02  0.28174701958E+03  0.00000000000E+00 0. -1.
</event>
<event>
 5    1  0.6336319E-005  0.4763042E+03  0.7818608E-02  0.9882171E-01
          4   -1    0    0  502    0 -0.00000000000E+00  0.00000000000E+00  0.17153557502E+04  0.17153557502E+04  0.00000000000E+00 0.  1.
         21   -1    0    0  501  502  0.00000000000E+00 -0.00000000000E+00 -0.20962583549E+03  0.20962583549E+03  0.00000000000E+00 0.  1.
        -13    1    1    2    0    0  0.15894170289E+03 -0.47368838750E+03  0.82870906799E+03  0.96767860569E+03  0.10566000000E+00 0.  1.
         13    1    1    2    0    0  0.11050169915E+03  0.86843254781E+02  0.36720035500E+03  0.39317742597E+03  0.10566000000E+00 0. -1.
          4    1    1    2  501    0 -0.26944340204E+03  0.38684513272E+03  0.30982049172E+03  0.56412555403E+03  0.00000000000E+00 0.  1.
</event>
<event>
 5    1  0.6336319E-005  0.3015874E+03  0.7818608E-02  0.1006652E+00
         21   -1    0    0  501  502  0.00000000000E+00  0.00000000000E+00  0.86234168608E+03  0.86234168608E+03  0.00000000000E+00 0. -1.
         -4   -1    0    0    0  501 -0.00000000000E+00 -0.00000000000E+00 -0.40240522003E+03  0.40240522003E+03  0.00000000000E+00 0. -1.
        -13    1    1    2    0    0 -0.28803533493E+03  0.18146495503E+03 -0.10596780542E+03  0.35654322462E+03  0.10566000000E+00 0.  1.
         13    1    1    2    0    0  0.23420055350E+03 -0.13163947634E+03 -0.62251770704E+02  0.27577916003E+03  0.10566000000E+00 0. -1.
         -4    1    1    2    0  502  0.53834781431E+02 -0.49825478693E+02  0.62815604218E+03  0.63242452146E+03  0.00000000000E+00 0. -1.
</event>
<event>
 5    1  0.6336319E-005  0.7553384E+02  0.7818608E-02  0.1212914E+00
         -4   -1    0    0    0  501 -0.00000000000E+00  0.00000000000E+00  0.84745470566E+02  0.84745470566E+02  0.00000000000E+00 0. -1.
         21   -1    0    0  501  502  0.00000000000E+00 -0.00000000000E+00 -0.20457603618E+03  0.20457603618E+03  0.00000000000E+00 0.  1.
        -13    1    1    2    0    0  0.89775808355E+02  0.43948173585E+02  0.64080886645E+01  0.10016093296E+03  0.10566000000E+00 0.  1.
         13    1    1    2    0    0 -0.59443011872E+02  0.17513899510E+02 -0.24822898052E+02  0.66756241418E+02  0.10566000000E+00 0. -1.
         -4    1    1    2    0  502 -0.30332796483E+02 -0.61462073094E+02 -0.10141575623E+03  0.12240433237E+03  0.00000000000E+00 0. -1.
</event>
<event>
 5    1  0.6336319E-005  0.7319204E+03  0.7818608E-02  0.9077916E-01
          4   -1    0    0  502    0 -0.00000000000E+00  0.00000000000E+00  0.54878109952E+03  0.54878109952E+03  0.00000000000E+00 0.  1.
         21   -1    0    0  501  502  0.00000000000E+00 -0.00000000000E+00 -0.15475669790E+04  0.15475669790E+04  0.00000000000E+00 0.  1.
        -13    1    1    2    0    0 -0.83703682882E+03  0.92501052619E+02 -0.30289064558E+03  0.89494684305E+03  0.10566000000E+00 0.  1.
         13    1    1    2    0    0  0.58798392855E+03 -0.27754154340E+03 -0.35634143768E+03  0.74144024703E+03  0.10566000000E+00 0. -1.
          4    1    1    2  501    0  0.24905290027E+03  0.18504049078E+03 -0.33955379625E+03  0.45996098847E+03  0.00000000000E+00 0.  1.
</event>
<event>
 5    1  0.6336319E-005  0.1530477E+02  0.7818608E-02  0.1588138E+00
         21   -1    0    0  501  502  0.00000000000E+00  0.00000000000E+00  0.91899518464E+02  0.91899518464E+02  0.00000000000E+00 0.  1.
         -4   -1    0    0    0  501 -0.00000000000E+00 -0.00000000000E+00 -0.74486716842E+01  0.74486716842E+01  0.00000000000E+00 0. -1.
        -13    1    1    2    0    0 -0.15045534429E+02  0.18184242627E+02  0.48443731460E+02  0.53887299691E+02  0.10566000000E+00 0.  1.
         13    1    1    2    0    0  0.60333012367E+01 -0.11986501061E+02  0.85667120786E+01  0.15920950077E+02  0.10566000000E+00 0. -1.
         -4    1    1    2    0  502  0.90122331919E+01 -0.61977415665E+01  0.27440403240E+02  0.29539940380E+02  0.00000000000E+00 0. -1.
</event>
<event>
 5    1  0.6336319E-005  0.6326152E+02  0.7818608E-02  0.1279930E+00
          4   -1    0    0  502    0 -0.00000000000E+00  0.00000000000E+00  0.29161260359E+03  0.29161260359E+03  0.00000000000E+00 0.  1.
         21   -1    0    0  501  502  0.00000000000E+00 -0.00000000000E+00 -0.29875028310E+02  0.29875028310E+02  0.00000000000E+00 0.  1.
        -13    1    1    2    0    0  0.29364366589E+02 -0.63429469073E+02  0.86146452146E+02  0.11093595429E+03  0.10566000000E+00 0.  1.
         13    1    1    2    0    0  0.13332239939E+02  0.28242245873E+02  0.55302445632E+01  0.31716996117E+02  0.10566000000E+00 0. -1.
          4    1    1    2  501    0 -0.42696606528E+02  0.35187223200E+02  0.17006087857E+03  0.17883468150E+03  0.00000000000E+00 0.  1.
</event>
<event>
 5    1  0.6336319E-005  0.4848611E+03  0.7818608E-02  0.9866710E-01
          4   -1    0    0  502    0 -0.00000000000E+00  0.00000000000E+00  0.32990856027E+03  0.32990856027E+03  0.00000000000E+00 0.  1.
         21   -1    0    0  501  502  0.00000000000E+00 -0.00000000000E+00 -0.10412830462E+04  0.10412830462E+04  0.00000000000E+00 0.  1.
        -13    1    1    2    0    0  0.29122100593E+03  0.39368868580E+03 -0.13263240235E+03  0.50733797506E+03  0.10566000000E+00 0.  1.
         13    1    1    2    0    0 -0.12363826793E+03  0.66406655157E+02 -0.20229157398E+03  0.24620754905E+03  0.10566000000E+00 0. -1.
          4    1    1    2  501    0 -0.16758273800E+03 -0.46009534096E+03 -0.37645050959E+03  0.61764608233E+03  0.00000000000E+00 0.  1.
</event>
<event>
 5    1  0.6336319E-005  0.1656714E+03  0.7818608E-02  0.1086607E+00
         -4   -1    0    0    0  501 -0.00000000000E+00  0.00000000000E+00  0.11323906870E+04  0.11323906870E+04  0.00000000000E+00 0. -1.
         21   -1    0    0  501  502  0.00000000000E+00 -0.00000000000E+00 -0.38238811375E+02  0.38238811375E+02  0.00000000000E+00 0.  1.
        -13    1    1    2    0    0 -0.17220777275E+03  0.70731170378E+02  0.35283868834E+03  0.39894055524E+03  0.10566000000E+00 0.  1.
         13    1    1    2    0    0  0.15408769543E+03 -0.36215181967E+02  0.68596376920E+03  0.70398924787E+03  0.10566000000E+00 0. -1.
         -4    1    1    2    0  502  0.18120077319E+02 -0.34515988411E+02  0.55349418100E+02  0.67699695288E+02  0.00000000000E+00 0. -1.
</event>
<event>
 5    1  0.6336319E-005  0.5086470E+03  0.7818608E-02  0.9539074E-01
          4   -1    0    0  502    0 -0.00000000000E+00  0.00000000000E+00  0.23218769407E+04  0.23218769407E+04  0.00000000000E+00 0.  1.
         21   -1    0    0  501  502  0.00000000000E+00 -0.00000000000E+00 -0.31319434652E+03  0.31319434652E+03  0.00000000000E+00 0.  1.
        -13    1    1    2    0    0  0.53437820164E+03 -0.14749408312E+03  0.40177537272E+03  0.68464445388E+03  0.10566000000E+00 0.  1.
         13    1    1    2    0    0 -0.53790671560E+02  0.37671026728E+03  0.12568931015E+04  0.13132343057E+04  0.10566000000E+00 0. -1.
          4    1    1    2  501    0 -0.48058753008E+03 -0.22921618416E+03  0.35001411996E+03  0.63719252767E+03  0.00000000000E+00 0.  1.
</event>
<event>
 5    1  0.6336319E-005  0.1134497E+03  0.7818608E-02  0.1152890E+00
         21   -1    0    0  501  502  0.00000000000E+00  0.00000000000E+00  0.65375816812E+03  0.65375816812E+03  0.00000000000E+00 0. -1.
         -4   -1    0    0    0  501 -0.00000000000E+00 -0.00000000000E+00 -0.76365947707E+02  0.76365947707E+02  0.00000000000E+00 0. -1.
        -13    1    1    2    0    0  0.90300255882E+02  0.11679508979E+02  0.12172304733E+03  0.15201006071E+03  0.10566000000E+00 0.  1.
         13    1    1    2    0    0 -0.71351331626E+01  0.77490534787E+02 -0.25379517475E+02  0.81852453709E+02  0.10566000000E+00 0. -1.
         -4    1    1    2    0  502 -0.83165122719E+02 -0.89170043766E+02  0.48104869055E+03  0.49626160140E+03  0.00000000000E+00 0. -1.
</event>
<event>
 5    1  0.6336319E-005  0.4367681E+03  0.7818608E-02  0.9628500E-01
         21   -1    0    0  501  502  0.00000000000E+00  0.00000000000E+00  0.71254877862E+02  0.71254877862E+02  0.00000000000E+00 0. -1.
          4   -1    0    0  502    0 -0.00000000000E+00 -0.00000000000E+00 -0.31289809585E+04  0.31289809585E+04  0.00000000000E+00 0.  1.
        -13    1    1    2    0    0 -0.37507451189E+03 -0.23011979116E+03 -0.17615794649E+04  0.18157087404E+04  0.10566000000E+00 0.  1.
         13    1    1    2    0    0  0.35631149795E+03  0.24575118088E+03 -0.12879974988E+04  0.13587822102E+04  0.10566000000E+00 0. -1.
          4    1    1    2  501    0  0.18763013937E+02 -0.15631389721E+02 -0.81491168911E+01  0.25744885759E+02  0.00000000000E+00 0.  1.
</event>
<event>
 5    1  0.6336319E-005  0.9353888E+02  0.7818608E-02  0.1175712E+00
         -4   -1    0    0    0  501 -0.00000000000E+00  0.00000000000E+00  0.13926829076E+03  0.13926829076E+03  0.00000000000E+00 0. -1.
         21   -1    0    0  501  502  0.00000000000E+00 -0.00000000000E+00 -0.27438380033E+03  0.27438380033E+03  0.00000000000E+00 0. -1.
        -13    1    1    2    0    0 -0.31941377633E+02 -0.66883032355E+02 -0.14141801617E+03  0.15966420414E+03  0.10566000000E+00 0.  1.
         13    1    1    2    0    0  0.20597828368E+02  0.93841245877E+02  0.11011376264E+03  0.14613521768E+03  0.10566000000E+00 0. -1.
         -4    1    1    2    0  502  0.11343549265E+02 -0.26958213522E+02 -0.10381125604E+03  0.10785266926E+03  0.00000000000E+00 0. -1.
</event>
<event>
 5    1  0.6336319E-005  0.3839141E+03  0.7818608E-02  0.9962913E-01
         -4   -1    0    0    0  501 -0.00000000000E+00  0.00000000000E+00  0.45184929002E+03  0.45184929002E+03  0.00000000000E+00 0. -1.
         21   -1    0    0  501  502  0.00000000000E+00 -0.00000000000E+00 -0.96752160979E+03  0.96752160979E+03  0.00000000000E+00 0. -1.
        -13    1    1    2    0    0  0.19701028782E+03 -0.57076252617E+02 -0.22089800579E+03  0.30144102615E+03  0.10566000000E+00 0.  1.
         13    1    1    2    0    0 -0.39245079821E+03 -0.11962933261E+03 -0.59229339012E+03  0.72051389811E+03  0.10566000000E+00 0. -1.
         -4    1    1    2    0  502  0.19544051040E+03  0.17670558523E+03  0.29751907614E+03  0.39741597555E+03  0.00000000000E+00 0. -1.
</event>
<event>
 5    1  0.6336319E-005  0.2279832E+03  0.7818608E-02  0.1042479E+00
         21   -1    0    0  501  502  0.00000000000E+00  0.00000000000E+00  0.13463498549E+03  0.13463498549E+03  0.00000000000E+00 0. -1.
          4   -1    0    0  502    0 -0.00000000000E+00 -0.00000000000E+00 -0.10175182586E+04  0.10175182586E+04  0.00000000000E+00 0.  1.
        -13    1    1    2    0    0  0.17452284553E+03  0.14885633294E+03 -0.88721064829E+03  0.91638374990E+03  0.10566000000E+00 0.  1.
         13    1    1    2    0    0 -0.16264378174E+03 -0.14328099298E+03  0.17137929973E+02  0.21743082233E+03  0.10566000000E+00 0. -1.
          4    1    1    2  501    0 -0.11879063785E+02 -0.55753399570E+01 -0.12810554838E+02  0.18338671907E+02  0.00000000000E+00 0.  1.
</event>
<event>
 5    1  0.6336319E-005  0.4534576E+03  0.7818608E-02  0.9982025E-01
         -4   -1    0    0    0  501 -0.00000000000E+00  0.00000000000E+00  0.70011688130E+03  0.70011688130E+03  0.00000000000E+00 0. -1.
         21   -1    0    0  501  502  0.00000000000E+00 -0.00000000000E+00 -0.45195289696E+03  0.45195289696E+03  0.00000000000E+00 0. -1.
        -13    1    1    2    0    0 -0.87175052720E+02 -0.77848972568E+02  0.59426755931E+02  0.13111637133E+03  0.10566000000E+00 0.  1.
         13    1    1    2    0    0 -0.26293126208E+03 -0.32708975940E+03 -0.71550176595E+02  0.42572291249E+03  0.10566000000E+00 0. -1.
         -4    1    1    2    0  502  0.35010631480E+03  0.40493873197E+03  0.26028740501E+03  0.59523049444E+03  0.00000000000E+00 0. -1.
</event>
<event>
 5    1  0.6336319E-005  0.6371565E+03  0.7818608E-02  0.9219494E-01
          4   -1    0    0  502    0 -0.00000000000E+00  0.00000000000E+00  0.40231778988E+03  0.40231778988E+03  0.00000000000E+00 0.  1.
         21   -1    0    0  501  502  0.00000000000E+00 -0.00000000000E+00 -0.19761426217E+04  0.19761426217E+04  0.00000000000E+00 0.  1.
        -13    1    1    2    0    0 -0.34504884524E+02  0.66297813833E+03 -0.20419961375E+03  0.69457043731E+03  0.10566000000E+00 0.  1.
         13    1    1    2    0    0 -0.50451929804E+02 -0.60304125303E+03 -0.43933995689E+03  0.74781264964E+03  0.10566000000E+00 0. -1.
          4    1    1    2  501    0  0.84956814328E+02 -0.59936885301E+02 -0.93028526120E+03  0.93607732465E+03  0.00000000000E+00 0.  1.
</event>
<event>
 5    1  0.6336319E-005  0.1858773E+02  0.7818608E-02  0.1539520E+00
          4   -1    0    0  502    0 -0.00000000000E+00  0.00000000000E+00  0.36707292358E+02  0.36707292358E+02  0.00000000000E+00 0.  1.
         21   -1    0    0  501  502  0.00000000000E+00 -0.00000000000E+00 -0.45107638911E+02  0.45107638911E+02  0.00000000000E+00 0.  1.
        -13    1    1    2    0    0 -0.10832120509E+02  0.96247310494E+01  0.22923217352E+02  0.27119279864E+02  0.10566000000E+00 0.  1.
         13    1    1    2    0    0  0.13060751427E+02  0.99107909089E+01  0.14677009712E+01  0.16461236723E+02  0.10566000000E+00 0. -1.
          4    1    1    2  501    0 -0.22286309174E+01 -0.19535521958E+02 -0.32791264876E+02  0.38234414683E+02  0.00000000000E+00 0.  1.
</event>
<event>
 5    1  0.6336319E-005  0.1842485E+03  0.7818608E-02  0.1071506E+00
         -4   -1    0    0    0  501 -0.00000000000E+00  0.00000000000E+00  0.52437618571E+03  0.52437618571E+03  0.00000000000E+00 0. -1.
         21   -1    0    0  501  502  0.00000000000E+00 -0.00000000000E+00 -0.85729007355E+02  0.85729007355E+02  0.00000000000E+00 0.  1.
        -13    1    1    2    0    0  0.16772643297E+02  0.16447129011E+03  0.90152005590E+02  0.18830698901E+03  0.10566000000E+00 0.  1.
         13    1    1    2    0    0 -0.48060056583E+02 -0.19013980583E+03  0.30273960793E+03  0.36071345438E+03  0.10566000000E+00 0. -1.
         -4    1    1    2    0  502  0.31287413286E+02  0.25668515717E+02  0.45755564835E+02  0.61084749673E+02  0.00000000000E+00 0. -1.
</event>
<event>
 5    1  0.6336319E-005  0.3233755E+03  0.7818608E-02  0.9980980E-01
         21   -1    0    0  501  502  0.00000000000E+00  0.00000000000E+00  0.35892316865E+03  0.35892316865E+03  0.00000000000E+00 0.  1.
          4   -1    0    0  502    0 -0.00000000000E+00 -0.00000000000E+00 -0.26085105204E+04  0.26085105204E+04  0.00000000000E+00 0.  1.
        -13    1    1    2    0    0 -0.17854106137E+03  0.33024583436E+03 -0.66801118182E+03  0.76627551959E+03  0.10566000000E+00 0.  1.
         13    1    1    2    0    0  0.32031645190E+03 -0.93412190402E+02 -0.18114651249E+04  0.18419376690E+04  0.10566000000E+00 0. -1.
          4    1    1    2  501    0 -0.14177539052E+03 -0.23683364396E+03  0.22988895501E+03  0.35922050040E+03  0.00000000000E+00 0.  1.
</event>
<event>
 5    1  0.6336319E-005  0.6515243E+03  0.7818608E-02  0.9196430E-01
          4   -1    0    0  502    0 -0.00000000000E+00  0.00000000000E+00  0.19119702102E+04  0.19119702102E+04  0.00000000000E+00 0.  1.
         21   -1    0    0  501  502  0.00000000000E+00 -0.00000000000E+00 -0.53085613143E+03  0.53085613143E+03  0.00000000000E+00 0.  1.
        -13    1    1    2    0    0 -0.51367275979E+03  0.43254144186E+03  0.32907546123E+03  0.74782516234E+03  0.10566000000E+00 0.  1.
         13    1    1    2    0    0  0.72236782548E+03  0.78612583431E+02  0.82132997811E+03  0.10966212462E+04  0.10566000000E+00 0. -1.
          4    1    1    2  501    0 -0.20869506569E+03 -0.51115402530E+03  0.23070863946E+03  0.59837993311E+03  0.00000000000E+00 0.  1.
</event>
<event>
 5    1  0.6336319E-005  0.3896388E+03  0.7818608E-02  0.1013559E+00
         21   -1    0    0  501  502  0.00000000000E+00  0.00000000000E+00  0.17768622045E+03  0.17768622045E+03  0.00000000000E+00 0. -1.
         -4   -1    0    0    0  501 -0.00000000000E+00 -0.00000000000E+00 -0.17556074755E+04  0.17556074755E+04  0.00000000000E+00 0. -1.
        -13    1    1    2    0    0 -0.11172435767E+03 -0.81436143910E+01 -0.16488777976E+03  0.19934051678E+03  0.10566000000E+00 0.  1.
         13    1    1    2    0    0  0.35608673956E+03 -0.27875973591E+03 -0.12388019727E+04  0.13187627137E+04  0.10566000000E+00 0. -1.
         -4    1    1    2    0  502 -0.24436238189E+03  0.28690335030E+03 -0.17423150263E+03  0.41519046545E+03  0.00000000000E+00 0. -1.
</event>
<event>
 5    1  0.6336319E-005  0.3769478E+03  0.7818608E-02  0.1083944E+00
         -4   -1    0    0    0  501 -0.00000000000E+00  0.00000000000E+00  0.22793494592E+03  0.22793494592E+03  0.00000000000E+00 0. -1.
         21   -1    0    0  501  502  0.00000000000E+00 -0.00000000000E+00 -0.13859892245E+04  0.13859892245E+04  0.00000000000E+00 0. -1.
        -13    1    1    2    0    0  0.14140923024E+02  0.54285194597E+01  0.52135818017E+02  0.54291704816E+02  0.10566000000E+00 0.  1.
         13    1    1    2    0    0  0.24402986141E+03 -0.28609956360E+03 -0.11002727158E+04  0.11627568937E+04  0.10566000000E+00 0. -1.
         -4    1    1    2    0  502 -0.25817078443E+03  0.28067104414E+03 -0.10991738076E+03  0.39687557187E+03  0.00000000000E+00 0. -1.
</event>
<event>
 5    1  0.1277691E-004  0.3791632E+03  0.7818608E-02  0.1013935E+00
         21   -1    0    0  501  502  0.00000000000E+00  0.00000000000E+00  0.20604282960E+03  0.20604282960E+03  0.00000000000E+00 0.  1.
          4   -1    0    0  502    0 -0.00000000000E+00 -0.00000000000E+00 -0.16982216799E+04  0.16982216799E+04  0.00000000000E+00 0.  1.
        -13    1    1    2    0    0 -0.87518872971E+02  0.29571542503E+03 -0.10303813958E+04  0.10755431176E+04  0.10566000000E+00 0.  1.
         13    1    1    2    0    0 -0.11056955131E+03  0.46924232780E+02 -0.41280104492E+03  0.42992118248E+03  0.10566000000E+00 0. -1.
          4    1    1    2  501    0  0.19808842428E+03 -0.34263965781E+03 -0.48996409595E+02  0.39880020949E+03  0.00000000000E+00 0.  1.
</event>
<event>
 5    1  0.6336319E-005  0.3317873E+02  0.7818608E-02  0.1381065E+00
         21   -1    0    0  501  502  0.00000000000E+00  0.00000000000E+00  0.13808086485E+03  0.13808086485E+03  0.00000000000E+00 0.  1.
          4   -1    0    0  502    0 -0.00000000000E+00 -0.00000000000E+00 -0.21073523224E+02  0.21073523224E+02  0.00000000000E+00 0.  1.
        -13    1    1    2    0    0  0.31948594387E+02 -0.99546235226E+01  0.49194016435E+01  0.33823348287E+02  0.10566000000E+00 0.  1.
         13    1    1    2    0    0 -0.24490183920E+02  0.26103619228E+02  0.55747884905E+02  0.66249572683E+02  0.10566000000E+00 0. -1.
          4    1    1    2  501    0 -0.74584104664E+01 -0.16148995705E+02  0.56340055076E+02  0.59081467102E+02  0.00000000000E+00 0.  1.
</event>
<event>
 5    1  0.6336319E-005  0.6669319E+03  0.7818608E-02  0.9317514E-01
          4   -1    0    0  502    0 -0.00000000000E+00  0.00000000000E+00  0.25907489781E+04  0.25907489781E+04  0.00000000000E+00 0.  1.
         21   -1    0    0  501  502  0.00000000000E+00 -0.00000000000E+00 -0.62678407420E+03  0.62678407420E+03  0.00000000000E+00 0. -1.
        -13    1    1    2    0    0  0.11214507770E+03  0.24567994244E+03  0.56820744734E+03  0.62912229888E+03  0.10566000000E+00 0.  1.
         13    1    1    2    0    0 -0.75813162643E+03 -0.41150985294E+03  0.16602304322E+04  0.18709540404E+04  0.10566000000E+00 0. -1.
          4    1    1    2  501    0  0.64598654873E+03  0.16582991050E+03 -0.26447297558E+03  0.71745671310E+03  0.00000000000E+00 0.  1.
</event>
<event>
 5    1  0.6336319E-005  0.4768466E+03  0.7818608E-02  0.9845908E-01
         -4   -1    0    0    0  501 -0.00000000000E+00  0.00000000000E+00  0.11154023369E+04  0.11154023369E+04  0.00000000000E+00 0. -1.
         21   -1    0    0  501  502  0.00000000000E+00 -0.00000000000E+00 -0.44814636217E+03  0.44814636217E+03  0.00000000000E+00 0. -1.
        -13    1    1    2    0    0  0.15825174586E+03 -0.24720963697E+01  0.47774443406E+03  0.50327873169E+03  0.10566000000E+00 0.  1.
         13    1    1    2    0    0 -0.25311630269E+03  0.43173788228E+03 -0.12967734356E+03  0.51699292672E+03  0.10566000000E+00 0. -1.
         -4    1    1    2    0  502  0.94864556831E+02 -0.42926578591E+03  0.31918888424E+03  0.54327704067E+03  0.00000000000E+00 0. -1.
</event>
<event>
 5    1  0.6336319E-005  0.2481394E+03  0.7818608E-02  0.1031361E+00
         21   -1    0    0  501  502  0.00000000000E+00  0.00000000000E+00  0.57176128742E+02  0.57176128742E+02  0.00000000000E+00 0. -1.
          4   -1    0    0  502    0 -0.00000000000E+00 -0.00000000000E+00 -0.11502131096E+04  0.11502131096E+04  0.00000000000E+00 0.  1.
        -13    1    1    2    0    0  0.15303262566E+03 -0.20137795722E+03 -0.52812163993E+03  0.58556344139E+03  0.10566000000E+00 0.  1.
         13    1    1    2    0    0 -0.15765181837E+03  0.18605726509E+03 -0.53149614113E+03  0.58477308499E+03  0.10566000000E+00 0. -1.
          4    1    1    2  501    0  0.46191927102E+01  0.15320692130E+02 -0.33419199826E+02  0.37052711988E+02  0.00000000000E+00 0.  1.
</event>
<event>
 5    1  0.6336319E-005  0.1485395E+03  0.7818608E-02  0.1114519E+00
         -4   -1    0    0    0  501 -0.00000000000E+00  0.00000000000E+00  0.63931718102E+03  0.63931718102E+03  0.00000000000E+00 0. -1.
         21   -1    0    0  501  502  0.00000000000E+00 -0.00000000000E+00 -0.11188755913E+03  0.11188755913E+03  0.00000000000E+00 0. -1.
        -13    1    1    2    0    0  0.10761873815E+03  0.87903443966E+01  0.31387858863E+03  0.33193198478E+03  0.10566000000E+00 0.  1.
         13    1    1    2    0    0 -0.22178856130E+02 -0.14301179668E+03  0.21617159625E+03  0.26014312568E+03  0.10566000000E+00 0. -1.
         -4    1    1    2    0  502 -0.85439882022E+02  0.13422145229E+03 -0.26205629873E+01  0.15912962969E+03  0.00000000000E+00 0. -1.
</event>
<event>
 5    1  0.6336319E-005  0.4809146E+03  0.7818608E-02  0.1006183E+00
         21   -1    0    0  501  502  0.00000000000E+00  0.00000000000E+00  0.21106601653E+03  0.21106601653E+03  0.00000000000E+00 0. -1.
         -4   -1    0    0    0  501 -0.00000000000E+00 -0.00000000000E+00 -0.16012659299E+04  0.16012659299E+04  0.00000000000E+00 0. -1.
        -13    1    1    2    0    0  0.55997653156E+02  0.50666511983E+02 -0.40559572548E+03  0.41256603870E+03  0.10566000000E+00 0.  1.
         13    1    1    2    0    0 -0.56732061680E+01 -0.51156834724E+03 -0.65397194196E+03  0.83030938282E+03  0.10566000000E+00 0. -1.
         -4    1    1    2    0  502 -0.50324446988E+02  0.46090183526E+03 -0.33063224591E+03  0.56945652489E+03  0.00000000000E+00 0. -1.
</event>
<event>
 5    1  0.6336319E-005  0.5561767E+02  0.7818608E-02  0.1270465E+00
         -4   -1    0    0    0  501 -0.00000000000E+00  0.00000000000E+00  0.11036223789E+03  0.11036223789E+03  0.00000000000E+00 0. -1.
         21   -1    0    0  501  502  0.00000000000E+00 -0.00000000000E+00 -0.13476835024E+03  0.13476835024E+03  0.00000000000E+00 0.  1.
        -13    1    1    2    0    0 -0.50263351382E+02  0.26310695180E+02 -0.73174878045E+02  0.92591744308E+02  0.10566000000E+00 0.  1.
         13    1    1    2    0    0  0.37380939976E+02 -0.41454401724E+02  0.90490595791E+02  0.10632196944E+03  0.10566000000E+00 0. -1.
         -4    1    1    2    0  502  0.12882411406E+02  0.15143706544E+02 -0.41721830097E+02  0.46216874388E+02  0.00000000000E+00 0. -1.
</event>
<event>
 5    1  0.6336319E-005  0.4865756E+03  0.7818608E-02  0.9507891E-01
          4   -1    0    0  502    0 -0.00000000000E+00  0.00000000000E+00  0.32096061814E+03  0.32096061814E+03  0.00000000000E+00 0.  1.
         21   -1    0    0  501  502  0.00000000000E+00 -0.00000000000E+00 -0.17941689969E+04  0.17941689969E+04  0.00000000000E+00 0.  1.
        -13    1    1    2    0    0  0.65336420402E+03  0.30782341405E+03 -0.79686693756E+03  0.10754705782E+04  0.10566000000E+00 0.  1.
         13    1    1    2    0    0 -0.40313274929E+03 -0.58878674672E+02 -0.22087621027E+03  0.46343178927E+03  0.10566000000E+00 0. -1.
          4    1    1    2  501    0 -0.25023145473E+03 -0.24894473937E+03 -0.45546523092E+03  0.57622724751E+03  0.00000000000E+00 0.  1.
</event>
<event>
 5    1  0.6336319E-005  0.8243243E+03  0.7818608E-02  0.8959889E-01
          4   -1    0    0  502    0 -0.00000000000E+00  0.00000000000E+00  0.15852969999E+04  0.15852969999E+04  0.00000000000E+00 0.  1.
         21   -1    0    0  501  502  0.00000000000E+00 -0.00000000000E+00 -0.13701649569E+04  0.13701649569E+04  0.00000000000E+00 0.  1.
        -13    1    1    2    0    0 -0.77307194299E+03  0.22688909969E+03  0.81101000475E+03  0.11431780839E+04  0.10566000000E+00 0.  1.
         13    1    1    2    0    0  0.83026540689E+03 -0.21877101696E+03  0.30378996503E+03  0.91076328305E+03  0.10566000000E+00 0. -1.
          4    1    1    2  501    0 -0.57193463898E+02 -0.81180827270E+01 -0.89966792675E+03  0.90152058990E+03  0.00000000000E+00 0.  1.
</event>
<event>
 5    1  0.6336319E-005  0.2168158E+03  0.7818608E-02  0.1049182E+00
         21   -1    0    0  501  502  0.00000000000E+00  0.00000000000E+00  0.28934482178E+03  0.28934482178E+03  0.00000000000E+00 0.  1.
          4   -1    0    0  502    0 -0.00000000000E+00 -0.00000000000E+00 -0.27795587107E+03  0.27795587107E+03  0.00000000000E+00 0.  1.
        -13    1    1    2    0    0  0.19981864790E+03 -0.86389450436E+01 -0.58339704365E+02  0.20834024021E+03  0.10566000000E+00 0.  1.
         13    1    1    2    0    0 -0.23988724203E+03 -0.21637298735E+01 -0.38574654827E+02  0.24297857061E+03  0.10566000000E+00 0. -1.
          4    1    1    2  501    0  0.40068594131E+02  0.10802674917E+02  0.10830330991E+03  0.11598188202E+03  0.00000000000E+00 0.  1.
</event>
<event>
 5    1  0.6336319E-005  0.4221004E+03  0.7818608E-02  0.9852513E-01
         21   -1    0    0  501  502  0.00000000000E+00  0.00000000000E+00  0.24197286143E+03  0.24197286143E+03  0.00000000000E+00 0.  1.
          4   -1    0    0  502    0 -0.00000000000E+00 -0.00000000000E+00 -0.18327948188E+04  0.18327948188E+04  0.00000000000E+00 0.  1.
        -13    1    1    2    0    0  0.33426927857E+02 -0.46590404238E+03 -0.67871283705E+02  0.47200684161E+03  0.10566000000E+00 0.  1.
         13    1    1    2    0    0  0.64916606377E+02  0.21349755957E+03 -0.57221701291E+03  0.61418864753E+03  0.10566000000E+00 0. -1.
          4    1    1    2  501    0 -0.98343534233E+02  0.25240648281E+03 -0.95073366075E+03  0.98857219108E+03  0.00000000000E+00 0.  1.
</event>
<event>
 5    1  0.6336319E-005  0.3509592E+03  0.7818608E-02  0.1018137E+00
         -4   -1    0    0    0  501 -0.00000000000E+00  0.00000000000E+00  0.20029726794E+04  0.20029726794E+04  0.00000000000E+00 0. -1.
         21   -1    0    0  501  502  0.00000000000E+00 -0.00000000000E+00 -0.17255436678E+03  0.17255436678E+03  0.00000000000E+00 0. -1.
        -13    1    1    2    0    0  0.11645830233E+03 -0.63272004202E+02  0.50146708510E+03  0.51868596598E+03  0.10566000000E+00 0.  1.
         13    1    1    2    0    0  0.24325428825E+03  0.13189998367E+03  0.12525548719E+04  0.12827563965E+04  0.10566000000E+00 0. -1.
         -4    1    1    2    0  502 -0.35971259058E+03 -0.68627979470E+02  0.76396355539E+02  0.37408468363E+03  0.00000000000E+00 0. -1.
</event>
<event>
 5    1  0.6336319E-005  0.1648116E+03  0.7818608E-02  0.1087357E+00
         -4   -1    0    0    0  501 -0.00000000000E+00  0.00000000000E+00  0.14370020148E+04  0.14370020148E+04  0.00000000000E+00 0. -1.
         21   -1    0    0  501  502  0.00000000000E+00 -0.00000000000E+00 -0.32534973663E+02  0.32534973663E+02  0.00000000000E+00 0.  1.
        -13    1    1    2    0    0 -0.11706966505E+03 -0.14220458998E+03  0.48719157246E+03  0.52084843412E+03  0.10566000000E+00 0.  1.
         13    1    1    2    0    0  0.13745792778E+03  0.80222728630E+02  0.78763150202E+03  0.80355072164E+03  0.10566000000E+00 0. -1.
         -4    1    1    2    0  502 -0.20388262735E+02  0.61981861351E+02  0.12964396668E+03  0.14513783273E+03  0.00000000000E+00 0. -1.
</event>
<event>
 5    1  0.6336319E-005  0.8230735E+02  0.7818608E-02  0.1197694E+00
         21   -1    0    0  501  502  0.00000000000E+00  0.00000000000E+00  0.90342167593E+03  0.90342167593E+03  0.00000000000E+00 0.  1.
         -4   -1    0    0    0  501 -0.00000000000E+00 -0.00000000000E+00 -0.49435376783E+02  0.49435376783E+02  0.00000000000E+00 0. -1.
        -13    1    1    2    0    0  0.71023765241E+02  0.66423637921E+02  0.58672272288E+03  0.59472686135E+03  0.10566000000E+00 0.  1.
         13    1    1    2    0    0 -0.76664111697E+02 -0.28521571127E+02 -0.61647823182E+01  0.82029761348E+02  0.10566000000E+00 0. -1.
         -4    1    1    2    0  502  0.56403464560E+01 -0.37902066795E+02  0.27342835858E+03  0.27610043000E+03  0.00000000000E+00 0. -1.
</event>
<event>
 5    1  0.6336319E-005  0.6107414E+03  0.7818608E-02  0.9263611E-01
          4   -1    0    0  502    0 -0.00000000000E+00  0.00000000000E+00  0.33440729409E+04  0.33440729409E+04  0.00000000000E+00 0.  1.
         21   -1    0    0  501  502  0.00000000000E+00 -0.00000000000E+00 -0.21875501251E+03  0.21875501251E+03  0.00000000000E+00 0.  1.
        -13    1    1    2    0    0 -0.46727610770E+03 -0.54950763851E+03  0.16613411417E+04  0.18111764149E+04  0.10566000000E+00 0.  1.
         13    1    1    2    0    0  0.16638188072E+03  0.52369081482E+03  0.12922903827E+04  0.14042611738E+04  0.10566000000E+00 0. -1.
          4    1    1    2  501    0  0.30089422699E+03  0.25816823684E+02  0.17168640403E+03  0.34739036479E+03  0.00000000000E+00 0.  1.
</event>
<event>
 5    1  0.6336319E-005  0.1691202E+03  0.7818608E-02  0.1083647E+00
         21   -1    0    0  501  502  0.00000000000E+00  0.00000000000E+00  0.62901135635E+03  0.62901135635E+03  0.00000000000E+00 0.  1.
         -4   -1    0    0    0  501 -0.00000000000E+00 -0.00000000000E+00 -0.13115682055E+03  0.13115682055E+03  0.00000000000E+00 0. -1.
        -13    1    1    2    0    0 -0.21491925588E+02  0.16703451416E+03 -0.48087087279E+02  0.17514225907E+03  0.10566000000E+00 0.  1.
         13    1    1    2    0    0  0.40103042517E+02 -0.16971927414E+03  0.38099375915E+03  0.41900971554E+03  0.10566000000E+00 0. -1.
         -4    1    1    2    0  502 -0.18611116929E+02  0.26847599851E+01  0.16494786392E+03  0.16601620229E+03  0.00000000000E+00 0. -1.
</event>
<event>
 5    1  0.6336319E-005  0.3979866E+03  0.7818608E-02  0.9978950E-01
          4   -1    0    0  502    0 -0.00000000000E+00  0.00000000000E+00  0.87224655134E+03  0.87224655134E+03  0.00000000000E+00 0.  1.
         21   -1    0    0  501  502  0.00000000000E+00 -0.00000000000E+00 -0.78644776509E+03  0.78644776509E+03  0.00000000000E+00 0.  1.
        -13    1    1    2    0    0 -0.40410605252E+03  0.34842058148E+03  0.15554781902E+02  0.53379824436E+03  0.10566000000E+00 0.  1.
         13    1    1    2    0    0  0.15559020921E+03 -0.79297203798E+02  0.51785023529E+03  0.54650273292E+03  0.10566000000E+00 0. -1.
          4    1    1    2  501    0  0.24851584331E+03 -0.26912337768E+03 -0.44760623094E+03  0.57839333915E+03  0.00000000000E+00 0.  1.
</event>
<event>
 5    1  0.6336319E-005  0.5158761E+03  0.7818608E-02  0.9683141E-01
          4   -1    0    0  502    0 -0.00000000000E+00  0.00000000000E+00  0.17891518181E+04  0.17891518181E+04  0.00000000000E+00 0.  1.
         21   -1    0    0  501  502  0.00000000000E+00 -0.00000000000E+00 -0.24491627238E+03  0.24491627238E+03  0.00000000000E+00 0.  1.
        -13    1    1    2    0    0 -0.20151100643E+03  0.47522409844E+03  0.50547400100E+03  0.72246010706E+03  0.10566000000E+00 0.  1.
         13    1    1    2    0    0  0.20794270396E+03  0.67910269180E+02  0.13462645868E+03  0.25685845778E+03  0.10566000000E+00 0. -1.
          4    1    1    2  501    0 -0.64316975322E+01 -0.54313436762E+03  0.90413508603E+03  0.10547495256E+04  0.00000000000E+00 0.  1.
</event>
<event>
 5    1  0.6336319E-005  0.9811592E+02  0.7818608E-02  0.1167711E+00
          4   -1    0    0  502    0 -0.00000000000E+00  0.00000000000E+00  0.82204307681E+03  0.82204307681E+03  0.00000000000E+00 0.  1.
         21   -1    0    0  501  502  0.00000000000E+00 -0.00000000000E+00 -0.20203834428E+02  0.20203834428E+02  0.00000000000E+00 0. -1.
        -13    1    1    2    0    0  0.95251333566E+02 -0.44341523638E+02  0.50777353201E+03  0.51852961173E+03  0.10566000000E+00 0.  1.
         13    1    1    2    0    0 -0.76353657038E+02  0.47153737246E+02  0.29080300337E+03  0.30433493689E+03  0.10566000000E+00 0. -1.
          4    1    1    2  501    0 -0.18897676528E+02 -0.28122136077E+01  0.32627069951E+01  0.19382362613E+02  0.00000000000E+00 0.  1.
</event>
<event>
 5    1  0.6336319E-005  0.4585430E+03  0.7818608E-02  0.9573782E-01
          4   -1    0    0  502    0 -0.00000000000E+00  0.00000000000E+00  0.64616539913E+03  0.64616539913E+03  0.00000000000E+00 0.  1.
         21   -1    0    0  501  502  0.00000000000E+00 -0.00000000000E+00 -0.40996739399E+03  0.40996739399E+03  0.00000000000E+00 0. -1.
        -13    1    1    2    0    0 -0.10549469494E+03 -0.45003661678E+03  0.33104987882E+03  0.56855617184E+03  0.10566000000E+00 0.  1.
         13    1    1    2    0    0  0.11170198737E+03  0.43642780821E+03 -0.66306048326E+02  0.45534939219E+03  0.10566000000E+00 0. -1.
          4    1    1    2  501    0 -0.62072924288E+01  0.13608808575E+02 -0.28545825351E+02  0.32227229095E+02  0.00000000000E+00 0.  1.
</event>
<event>
 5    1  0.6336319E-005  0.2767965E+03  0.7818608E-02  0.1017371E+00
         -4   -1    0    0    0  501 -0.00000000000E+00  0.00000000000E+00  0.15066085859E+04  0.15066085859E+04  0.00000000000E+00 0. -1.
         21   -1    0    0  501  502  0.00000000000E+00 -0.00000000000E+00 -0.15758801252E+03  0.15758801252E+03  0.00000000000E+00 0. -1.
        -13    1    1    2    0    0 -0.16202504336E+03 -0.18084293482E+03  0.24198662267E+03  0.34280288573E+03  0.10566000000E+00 0.  1.
         13    1    1    2    0    0  0.17842646423E+03  0.22677095241E+03  0.11903661618E+04  0.12248398583E+04  0.10566000000E+00 0. -1.
         -4    1    1    2    0  502 -0.16401420871E+02 -0.45928017592E+02 -0.83332211092E+02  0.96553854465E+02  0.00000000000E+00 0. -1.
</event>
<event>
 5    1  0.6336319E-005  0.1986080E+03  0.7818608E-02  0.1061094E+00
         21   -1    0    0  501  502  0.00000000000E+00  0.00000000000E+00  0.49316294763E+03  0.49316294763E+03  0.00000000000E+00 0. -1.
         -4   -1    0    0    0  501 -0.00000000000E+00 -0.00000000000E+00 -0.10261167143E+04  0.10261167143E+04  0.00000000000E+00 0. -1.
        -13    1    1    2    0    0  0.16875377126E+03  0.53702831992E+02 -0.44475944259E+03  0.47871996242E+03  0.10566000000E+00 0.  1.
         13    1    1    2    0    0 -0.24579269004E+03  0.42523674722E+02 -0.52791909409E+03  0.58388431256E+03  0.10566000000E+00 0. -1.
         -4    1    1    2    0  502  0.77038918781E+02 -0.96226506714E+02  0.43972477006E+03  0.45667538690E+03  0.00000000000E+00 0. -1.
</event>
<event>
 5    1  0.6336319E-005  0.2069844E+02  0.7818608E-02  0.1537069E+00
         -4   -1    0    0    0  501 -0.00000000000E+00  0.00000000000E+00  0.30606127813E+02  0.30606127813E+02  0.00000000000E+00 0. -1.
         21   -1    0    0  501  502  0.00000000000E+00 -0.00000000000E+00 -0.11190712707E+03  0.11190712707E+03  0.00000000000E+00 0.  1.
        -13    1    1    2    0    0  0.12101074919E+02  0.21092329645E+01 -0.47704764503E+02  0.49260943943E+02  0.10566000000E+00 0.  1.
         13    1    1    2    0    0  0.51253654607E+01  0.10541477643E+02  0.26764810402E+02  0.29219143757E+02  0.10566000000E+00 0. -1.
         -4    1    1    2    0  502 -0.17226440380E+02 -0.12650710607E+02 -0.60361045152E+02  0.64033167178E+02  0.00000000000E+00 0. -1.
</event>
<event>
 5    1  0.6336319E-005  0.3487592E+03  0.7818608E-02  0.9889968E-01
          4   -1    0    0  502    0 -0.00000000000E+00  0.00000000000E+00  0.27920525212E+04  0.27920525212E+04  0.00000000000E+00 0.  1.
         21   -1    0    0  501  502  0.00000000000E+00 -0.00000000000E+00 -0.12253745984E+03  0.12253745984E+03  0.00000000000E+00 0.  1.
        -13    1    1    2    0    0  0.28791976807E+03 -0.36175059603E+03  0.68056267171E+03  0.82275564286E+03  0.10566000000E+00 0.  1.
         13    1    1    2    0    0 -0.13373415539E+02  0.33549194371E+03  0.14254406976E+04  0.14644503699E+04  0.10566000000E+00 0. -1.
          4    1    1    2  501    0 -0.27454635253E+03  0.26258652323E+02  0.56351169203E+03  0.62738396821E+03  0.00000000000E+00 0.  1.
</event>
<event>
 5    1  0.6336319E-005  0.4989137E+03  0.7818608E-02  0.9578842E-01
         -4   -1    0    0    0  501 -0.00000000000E+00  0.00000000000E+00  0.14440848559E+04  0.14440848559E+04  0.00000000000E+00 0. -1.
         21   -1    0    0  501  502  0.00000000000E+00 -0.00000000000E+00 -0.35015024660E+03  0.35015024660E+03  0.00000000000E+00 0.  1.
        -13    1    1    2    0    0  0.34349971546E+03  0.65089947798E+02  0.19636966419E+03  0.40098604964E+03  0.10566000000E+00 0.  1.
         13    1    1    2    0    0 -0.37685814588E+03 -0.50119343543E+03  0.49660433166E+03  0.79989549019E+03  0.10566000000E+00 0. -1.
         -4    1    1    2    0  502  0.33358430416E+02  0.43610348764E+03  0.40096061345E+03  0.59335356268E+03  0.00000000000E+00 0. -1.
</event>
<event>
 5    1  0.6336319E-005  0.4497508E+02  0.7818608E-02  0.1313720E+00
         21   -1    0    0  501  502  0.00000000000E+00  0.00000000000E+00  0.45666025062E+03  0.45666025062E+03  0.00000000000E+00 0.  1.
          4   -1    0    0  502    0 -0.00000000000E+00 -0.00000000000E+00 -0.37276653173E+02  0.37276653173E+02  0.00000000000E+00 0.  1.
        -13    1    1    2    0    0 -0.45752699627E+02 -0.13314528573E+01 -0.20245852602E+02  0.50049855159E+02  0.10566000000E+00 0.  1.
         13    1    1    2    0    0  0.36341729366E+02 -0.23668449781E+01  0.16072876261E+03  0.16480312358E+03  0.10566000000E+00 0. -1.
          4    1    1    2  501    0  0.94109702604E+01  0.36982978354E+01  0.27890068744E+03  0.27908392505E+03  0.00000000000E+00 0.  1.
</event>
<event>
 5    1  0.6336319E-005  0.8568506E+02  0.7818608E-02  0.1190694E+00
         21   -1    0    0  501  502  0.00000000000E+00  0.00000000000E+00  0.22113113931E+03  0.22113113931E+03  0.00000000000E+00 0.  1.
         -4   -1    0    0    0  501 -0.00000000000E+00 -0.00000000000E+00 -0.71318282834E+02  0.71318282834E+02  0.00000000000E+00 0. -1.
        -13    1    1    2    0    0  0.63144062408E+02  0.59552365444E+02  0.14606527642E+03  0.16990801331E+03  0.10566000000E+00 0.  1.
         13    1    1    2    0    0 -0.79212346268E+02 -0.34488686469E+02 -0.14527530848E+02  0.87607794244E+02  0.10566000000E+00 0. -1.
         -4    1    1    2    0  502  0.16068283860E+02 -0.25063678974E+02  0.18275110911E+02  0.34933614596E+02  0.00000000000E+00 0. -1.
</event>
<event>
 5    1  0.6336319E-005  0.4416479E+03  0.7818608E-02  0.9814463E-01
          4   -1    0    0  502    0 -0.00000000000E+00  0.00000000000E+00  0.14374778844E+04  0.14374778844E+04  0.00000000000E+00 0.  1.
         21   -1    0    0  501  502  0.00000000000E+00 -0.00000000000E+00 -0.39478566541E+03  0.39478566541E+03  0.00000000000E+00 0.  1.
        -13    1    1    2    0    0 -0.72004834481E+02  0.38064055146E+03  0.51213909466E+03  0.64215137549E+03  0.10566000000E+00 0.  1.
         13    1    1    2    0    0  0.21105101803E+03  0.67688665462E+02  0.66571663968E+03  0.70164303114E+03  0.10566000000E+00 0. -1.
          4    1    1    2  501    0 -0.13904618355E+03 -0.44832921692E+03 -0.13516351539E+03  0.48846914314E+03  0.00000000000E+00 0.  1.
</event>
<event>
 5    1  0.6336319E-005  0.4736571E+03  0.7818608E-02  0.9718243E-01
          4   -1    0    0  502    0 -0.00000000000E+00  0.00000000000E+00  0.18148080578E+04  0.18148080578E+04  0.00000000000E+00 0.  1.
         21   -1    0    0  501  502  0.00000000000E+00 -0.00000000000E+00 -0.34693865364E+03  0.34693865364E+03  0.00000000000E+00 0.  1.
        -13    1    1    2    0    0 -0.20355019977E+03 -0.28922801773E+03  0.47309920435E+03  0.59068468609E+03  0.10566000000E+00 0.  1.
         13    1    1    2    0    0  0.73210360592E+02 -0.23914328147E+03  0.99592817828E+03  0.10268506286E+04  0.10566000000E+00 0. -1.
          4    1    1    2  501    0  0.13033983917E+03  0.52837129920E+03 -0.11579784361E+01  0.54421139680E+03  0.00000000000E+00 0.  1.
</event>
<event>
 5    1  0.6336319E-005  0.4975211E+03  0.7818608E-02  0.9658046E-01
         -4   -1    0    0    0  501 -0.00000000000E+00  0.00000000000E+00  0.15136850282E+04  0.15136850282E+04  0.00000000000E+00 0. -1.
         21   -1    0    0  501  502  0.00000000000E+00 -0.00000000000E+00 -0.30160361187E+03  0.30160361187E+03  0.00000000000E+00 0. -1.
        -13    1    1    2    0    0  0.26628187098E+03 -0.31847962104E+00  0.47681862392E+03  0.54613381833E+03  0.10566000000E+00 0.  1.
         13    1    1    2    0    0  0.16971691920E+03  0.40431008720E+03  0.34714898461E+03  0.55926997770E+03  0.10566000000E+00 0. -1.
         -4    1    1    2    0  502 -0.43599879018E+03 -0.40399160757E+03  0.38811380784E+03  0.70988484409E+03  0.00000000000E+00 0. -1.
</event>
<event>
 5    1  0.6336319E-005  0.4909234E+03  0.7818608E-02  0.9737313E-01
         -4   -1    0    0    0  501 -0.00000000000E+00  0.00000000000E+00  0.22374630753E+03  0.22374630753E+03  0.00000000000E+00 0. -1.
         21   -1    0    0  501  502  0.00000000000E+00 -0.00000000000E+00 -0.16884453464E+04  0.16884453464E+04  0.00000000000E+00 0.  1.
        -13    1    1    2    0    0  0.14182413077E+03 -0.15523920270E+03 -0.30546473820E+03  0.37083960356E+03  0.10566000000E+00 0.  1.
         13    1    1    2    0    0  0.35013512812E+03 -0.14349382958E+03 -0.21412210321E+03  0.43477968365E+03  0.10566000000E+00 0. -1.
         -4    1    1    2    0  502 -0.49195925889E+03  0.29873303228E+03 -0.94511219745E+03  0.11065723667E+04  0.00000000000E+00 0. -1.
</event>
<event>
 5    1  0.6336319E-005  0.4828844E+03  0.7818608E-02  0.9614763E-01
         -4   -1    0    0    0  501 -0.00000000000E+00  0.00000000000E+00  0.65516622047E+03  0.65516622047E+03  0.00000000000E+00 0. -1.
         21   -1    0    0  501  502  0.00000000000E+00 -0.00000000000E+00 -0.92198237429E+03  0.92198237429E+03  0.00000000000E+00 0. -1.
        -13    1    1    2    0    0 -0.56947824530E+01  0.33926470487E+03  0.23310225533E+03  0.41166690797E+03  0.10566000000E+00 0.  1.
         13    1    1    2    0    0 -0.20057778967E+03 -0.64914430846E+03 -0.34872419781E+03  0.76369389170E+03  0.10566000000E+00 0. -1.
         -4    1    1    2    0  502  0.20627257212E+03  0.30987960359E+03 -0.15119421135E+03  0.40178779508E+03  0.00000000000E+00 0. -1.
</event>
<event>
 5    1  0.6336319E-005  0.2130278E+03  0.7818608E-02  0.1052930E+00
         -4   -1    0    0    0  501 -0.00000000000E+00  0.00000000000E+00  0.21337428730E+03  0.21337428730E+03  0.00000000000E+00 0. -1.
         21   -1    0    0  501  502  0.00000000000E+00 -0.00000000000E+00 -0.57245498587E+03  0.57245498587E+03  0.00000000000E+00 0. -1.
        -13    1    1    2    0    0 -0.16554575623E+03  0.12010038404E+03 -0.28157886599E+02  0.20645187670E+03  0.10566000000E+00 0.  1.
         13    1    1    2    0    0 -0.11531581205E+03 -0.11201756025E+03 -0.22793819993E+02  0.16237376545E+03  0.10566000000E+00 0. -1.
         -4    1    1    2    0  502  0.28086156828E+03 -0.80828237860E+01 -0.30812899198E+03  0.41700363101E+03  0.00000000000E+00 0. -1.
</event>
<event>
 5    1  0.6336319E-005  0.4766109E+03  0.7818608E-02  0.9728400E-01
          4   -1    0    0  502    0 -0.00000000000E+00  0.00000000000E+00  0.20992671607E+04  0.20992671607E+04  0.00000000000E+00 0.  1.
         21   -1    0    0  501  502  0.00000000000E+00 -0.00000000000E+00 -0.32651804010E+03  0.32651804010E+03  0.00000000000E+00 0.  1.
        -13    1    1    2    0    0 -0.32670249215E+03 -0.22489118669E+03  0.15767051866E+03  0.42681444193E+03  0.10566000000E+00 0.  1.
         13    1    1    2    0    0 -0.14944242000E+03 -0.18392465928E+03  0.12513938150E+04  0.12736356656E+04  0.10566000000E+00 0. -1.
          4    1    1    2  501    0  0.47614491215E+03  0.40881584596E+03  0.36368478685E+03  0.72533509322E+03  0.00000000000E+00 0.  1.
</event>
<event>
 5    1  0.6336319E-005  0.2065095E+03  0.7818608E-02  0.1055763E+00
         21   -1    0    0  501  502  0.00000000000E+00  0.00000000000E+00  0.34568311333E+03  0.34568311333E+03  0.00000000000E+00 0. -1.
         -4   -1    0    0    0  501 -0.00000000000E+00 -0.00000000000E+00 -0.19963538787E+04  0.19963538787E+04  0.00000000000E+00 0. -1.
        -13    1    1    2    0    0 -0.21006562751E+03  0.16116557909E+03 -0.11457143198E+04  0.11759095311E+04  0.10566000000E+00 0.  1.
         13    1    1    2    0    0  0.89119844944E+02 -0.15227854125E+03 -0.81464900390E+03  0.83353710871E+03  0.10566000000E+00 0. -1.
         -4    1    1    2    0  502  0.12094578257E+03 -0.88870378390E+01  0.30969255824E+03  0.33259035223E+03  0.00000000000E+00 0. -1.
</event>
<event>
 5    1  0.6336319E-005  0.1833910E+03  0.7818608E-02  0.1072160E+00
         21   -1    0    0  501  502  0.00000000000E+00  0.00000000000E+00  0.36973379363E+03  0.36973379363E+03  0.00000000000E+00 0.  1.
          4   -1    0    0  502    0 -0.00000000000E+00 -0.00000000000E+00 -0.32469535258E+03  0.32469535258E+03  0.00000000000E+00 0.  1.
        -13    1    1    2    0    0 -0.96511587949E+02 -0.15809879687E+03 -0.23148106509E+03  0.29646789175E+03  0.10566000000E+00 0.  1.
         13    1    1    2    0    0  0.96812378922E+02  0.14724651815E+03  0.67573778565E+02  0.18873367620E+03  0.10566000000E+00 0. -1.
          4    1    1    2  501    0 -0.30079097274E+00  0.10852278717E+02  0.20894572758E+03  0.20922757825E+03  0.00000000000E+00 0.  1.
</event>
<event>
 5    1  0.6336319E-005  0.4700666E+03  0.7818608E-02  0.9912777E-01
         -4   -1    0    0    0  501 -0.00000000000E+00  0.00000000000E+00  0.33137715498E+04  0.33137715498E+04  0.00000000000E+00 0. -1.
         21   -1    0    0  501  502  0.00000000000E+00 -0.00000000000E+00 -0.10139105606E+03  0.10139105606E+03  0.00000000000E+00 0. -1.
        -13    1    1    2    0    0  0.12874534378E+03 -0.29022503609E+02  0.55636222179E+03  0.57180119120E+03  0.10566000000E+00 0.  1.
         13    1    1    2    0    0  0.19948473777E+03 -0.39432263380E+03  0.82896770977E+03  0.93939979515E+03  0.10566000000E+00 0. -1.
         -4    1    1    2    0  502 -0.32823008155E+03  0.42334513741E+03  0.18270505622E+04  0.19039616195E+04  0.00000000000E+00 0. -1.
</event>
<event>
 5    1  0.6336319E-005  0.1393851E+03  0.7818608E-02  0.1112080E+00
         21   -1    0    0  501  502  0.00000000000E+00  0.00000000000E+00  0.19307656044E+03  0.19307656044E+03  0.00000000000E+00 0. -1.
         -4   -1    0    0    0  501 -0.00000000000E+00 -0.00000000000E+00 -0.24093790740E+03  0.24093790740E+03  0.00000000000E+00 0. -1.
        -13    1    1    2    0    0  0.11309723180E+03  0.97196008166E+01  0.41756050805E+02  0.12095054123E+03  0.10566000000E+00 0.  1.
         13    1    1    2    0    0 -0.14818217258E+03  0.14875183845E+02 -0.16752493361E+03  0.22415138168E+03  0.10566000000E+00 0. -1.
         -4    1    1    2    0  502  0.35084940783E+02 -0.24594784662E+02  0.77907535851E+02  0.88912544923E+02  0.00000000000E+00 0. -1.
</event>
<event>
 5    1  0.6336319E-005  0.2330005E+03  0.7818608E-02  0.1039599E+00
         -4   -1    0    0    0  501 -0.00000000000E+00  0.00000000000E+00  0.79035919169E+03  0.79035919169E+03  0.00000000000E+00 0. -1.
         21   -1    0    0  501  502  0.00000000000E+00 -0.00000000000E+00 -0.24546422251E+03  0.24546422251E+03  0.00000000000E+00 0. -1.
        -13    1    1    2    0    0  0.10870344588E+03 -0.21625815801E+03  0.17639500623E+03  0.29949831292E+03  0.10566000000E+00 0.  1.
         13    1    1    2    0    0 -0.99960627488E+02  0.20659232791E+03  0.52829827237E+03  0.57599617425E+03  0.10566000000E+00 0. -1.
         -4    1    1    2    0  502 -0.87428183889E+01  0.96658301057E+01 -0.15979830943E+03  0.16032892703E+03  0.00000000000E+00 0. -1.
</event>
<event>
 5    1  0.6336319E-005  0.3724444E+03  0.7818608E-02  0.9812185E-01
         21   -1    0    0  501  502  0.00000000000E+00  0.00000000000E+00  0.40423372485E+03  0.40423372485E+03  0.00000000000E+00 0. -1.
         -4   -1    0    0    0  501 -0.00000000000E+00 -0.00000000000E+00 -0.10821623256E+04  0.10821623256E+04  0.00000000000E+00 0. -1.
        -13    1    1    2    0    0  0.14681105472E+03 -0.23942893347E+03 -0.18790277210E+03  0.33791591099E+03  0.10566000000E+00 0.  1.
         13    1    1    2    0    0 -0.24984403797E+03  0.37542036370E+03 -0.72758356862E+03  0.85600254280E+03  0.10566000000E+00 0. -1.
         -4    1    1    2    0  502  0.10303298325E+03 -0.13599143024E+03  0.23755773997E+03  0.29247759667E+03  0.00000000000E+00 0. -1.
</event>
<event>
 5    1  0.6336319E-005  0.4908623E+03  0.7818608E-02  0.9691029E-01
          4   -1    0    0  502    0 -0.00000000000E+00  0.00000000000E+00  0.66421096375E+03  0.66421096375E+03  0.00000000000E+00 0.  1.
         21   -1    0    0  501  502  0.00000000000E+00 -0.00000000000E+00 -0.64223004622E+03  0.64223004622E+03  0.00000000000E+00 0.  1.
        -13    1    1    2    0    0  0.14538405861E+03 -0.48255676174E+03  0.31931639176E+02  0.50499227077E+03  0.10566000000E+00 0.  1.
         13    1    1    2    0    0 -0.24661212036E+03 -0.14326236941E+02  0.12479649464E+03  0.27676154938E+03  0.10566000000E+00 0. -1.
          4    1    1    2  501    0  0.10122806176E+03  0.49688299868E+03 -0.13474721628E+03  0.52468718982E+03  0.00000000000E+00 0.  1.
</event>
<event>
 5    1  0.6336319E-005  0.7105542E+02  0.7818608E-02  0.1239555E+00
         21   -1    0    0  501  502  0.00000000000E+00  0.00000000000E+00  0.23539947482E+03  0.23539947482E+03  0.00000000000E+00 0.  1.
          4   -1    0    0  502    0 -0.00000000000E+00 -0.00000000000E+00 -0.31105610603E+03  0.31105610603E+03  0.00000000000E+00 0.  1.
        -13    1    1    2    0    0  0.10961430252E+03 -0.26015696346E+02 -0.25624910966E+03  0.27992093372E+03  0.10566000000E+00 0.  1.
         13    1    1    2    0    0 -0.49647560312E+02 -0.10569791923E+02 -0.19571192126E+02  0.54402605374E+02  0.10566000000E+00 0. -1.
          4    1    1    2  501    0 -0.59966742205E+02  0.36585488269E+02  0.20016367057E+03  0.21213204175E+03  0.00000000000E+00 0.  1.
</event>
<event>
 5    1  0.6336319E-005  0.3189109E+03  0.7818608E-02  0.9997911E-01
         21   -1    0    0  501  502  0.00000000000E+00  0.00000000000E+00  0.28844790221E+03  0.28844790221E+03  0.00000000000E+00 0.  1.
          4   -1    0    0  502    0 -0.00000000000E+00 -0.00000000000E+00 -0.15552467468E+04  0.15552467468E+04  0.00000000000E+00 0.  1.
        -13    1    1    2    0    0 -0.26410907205E+03  0.20441313535E+03 -0.58662794995E+03  0.67503384706E+03  0.10566000000E+00 0.  1.
         13    1    1    2    0    0  0.24023436587E+03 -0.19605841068E+03 -0.89765893469E+03  0.94970681010E+03  0.10566000000E+00 0. -1.
          4    1    1    2  501    0  0.23874706174E+02 -0.83547246734E+01  0.21748804002E+03  0.21895399190E+03  0.00000000000E+00 0.  1.
</event>
<event>
 5    1  0.6336319E-005  0.5001564E+03  0.7818608E-02  0.9477629E-01
         -4   -1    0    0    0  501 -0.00000000000E+00  0.00000000000E+00  0.16538875711E+04  0.16538875711E+04  0.00000000000E+00 0. -1.
         21   -1    0    0  501  502  0.00000000000E+00 -0.00000000000E+00 -0.64007109635E+03  0.64007109635E+03  0.00000000000E+00 0.  1.
        -13    1    1    2    0    0  0.65994904744E+02 -0.50921737937E+03 -0.40865831576E+02  0.51509969352E+03  0.10566000000E+00 0.  1.
         13    1    1    2    0    0 -0.27553550298E+02  0.49748132469E+03  0.13716572577E+04  0.14593459187E+04  0.10566000000E+00 0. -1.
         -4    1    1    2    0  502 -0.38441354445E+02  0.11736054677E+02 -0.31697495135E+03  0.31951305528E+03  0.00000000000E+00 0. -1.
</event>
<event>
 5    1  0.6336319E-005  0.2760489E+03  0.7818608E-02  0.1034702E+00
         -4   -1    0    0    0  501 -0.00000000000E+00  0.00000000000E+00  0.26376318517E+04  0.26376318517E+04  0.00000000000E+00 0. -1.
         21   -1    0    0  501  502  0.00000000000E+00 -0.00000000000E+00 -0.13520128495E+03  0.13520128495E+03  0.00000000000E+00 0. -1.
        -13    1    1    2    0    0 -0.16213587821E+03  0.12954516546E+02  0.47508334625E+03  0.50215541375E+03  0.10566000000E+00 0.  1.
         13    1    1    2    0    0  0.38464585952E+03 -0.15558964887E+03  0.19523325566E+04  0.19959366219E+04  0.10566000000E+00 0. -1.
         -4    1    1    2    0  502 -0.22250998131E+03  0.14263513232E+03  0.75014663896E+02  0.27474110095E+03  0.00000000000E+00 0. -1.
</event>
<event>
 5    1  0.6336319E-005  0.4318757E+03  0.7818608E-02  0.9673780E-01
         -4   -1    0    0    0  501 -0.00000000000E+00  0.00000000000E+00  0.77786635208E+03  0.77786635208E+03  0.00000000000E+00 0. -1.
         21   -1    0    0  501  502  0.00000000000E+00 -0.00000000000E+00 -0.82675578247E+03  0.82675578247E+03  0.00000000000E+00 0. -1.
        -13    1    1    2    0    0 -0.42120333684E+03  0.17799656631E+03  0.14359194729E+03  0.47928455752E+03  0.10566000000E+00 0.  1.
         13    1    1    2    0    0  0.44967089176E+02  0.14554568445E+03  0.35508226440E+03  0.38637936154E+03  0.10566000000E+00 0. -1.
         -4    1    1    2    0  502  0.37623624767E+03 -0.32354225077E+03 -0.54756364209E+03  0.73895821548E+03  0.00000000000E+00 0. -1.
</event>
<event>
 5    1  0.6336319E-005  0.6097620E+02  0.7818608E-02  0.1252604E+00
          4   -1    0    0  502    0 -0.00000000000E+00  0.00000000000E+00  0.58433853154E+02  0.58433853154E+02  0.00000000000E+00 0.  1.
         21   -1    0    0  501  502  0.00000000000E+00 -0.00000000000E+00 -0.15283573431E+03  0.15283573431E+03  0.00000000000E+00 0.  1.
        -13    1    1    2    0    0  0.41097134659E+02 -0.56528667296E+02  0.21947951699E+01  0.69923479557E+02  0.10566000000E+00 0.  1.
         13    1    1    2    0    0  0.16864460021E+01  0.55737736275E+02 -0.33322633367E+02  0.64961129945E+02  0.10566000000E+00 0. -1.
          4    1    1    2  501    0 -0.42783580661E+02  0.79093102134E+00 -0.63274042958E+02  0.76384977963E+02  0.00000000000E+00 0.  1.
</event>
<event>
 5    1  0.6336319E-005  0.4714168E+03  0.7818608E-02  0.9835966E-01
          4   -1    0    0  502    0 -0.00000000000E+00  0.00000000000E+00  0.13051873851E+04  0.13051873851E+04  0.00000000000E+00 0.  1.
         21   -1    0    0  501  502  0.00000000000E+00 -0.00000000000E+00 -0.24876425034E+03  0.24876425034E+03  0.00000000000E+00 0.  1.
        -13    1    1    2    0    0  0.12651610456E+02 -0.44635714131E+03  0.47541104136E+03  0.65223495019E+03  0.10566000000E+00 0.  1.
         13    1    1    2    0    0 -0.16583346889E+03 -0.34633089804E+02  0.23508520911E+03  0.28976759139E+03  0.10566000000E+00 0. -1.
          4    1    1    2  501    0  0.15318185843E+03  0.48099023111E+03  0.34592688427E+03  0.61194909383E+03  0.00000000000E+00 0.  1.
</event>
<event>
 5    1  0.6336319E-005  0.4698835E+03  0.7818608E-02  0.9666295E-01
         -4   -1    0    0    0  501 -0.00000000000E+00  0.00000000000E+00  0.22421335336E+04  0.22421335336E+04  0.00000000000E+00 0. -1.
         21   -1    0    0  501  502  0.00000000000E+00 -0.00000000000E+00 -0.21142421924E+03  0.21142421924E+03  0.00000000000E+00 0. -1.
        -13    1    1    2    0    0  0.13076860238E+03 -0.27782824209E+03  0.80052524766E+03  0.85739701584E+03  0.10566000000E+00 0.  1.
         13    1    1    2    0    0 -0.50548869102E+03  0.21732397748E+03  0.39063205313E+03  0.67479029338E+03  0.10566000000E+00 0. -1.
         -4    1    1    2    0  502  0.37472008864E+03  0.60504264606E+02  0.83955201355E+03  0.92137044359E+03  0.00000000000E+00 0. -1.
</event>
<event>
 5    1  0.6336319E-005  0.6811343E+02  0.7818608E-02  0.1231766E+00
         21   -1    0    0  501  502  0.00000000000E+00  0.00000000000E+00  0.16078664916E+03  0.16078664916E+03  0.00000000000E+00 0.  1.
          4   -1    0    0  502    0 -0.00000000000E+00 -0.00000000000E+00 -0.13237478577E+03  0.13237478577E+03  0.00000000000E+00 0.  1.
        -13    1    1    2    0    0 -0.30792494290E+02  0.63797908939E+02 -0.10816623160E+03  0.12929924869E+03  0.10566000000E+00 0.  1.
         13    1    1    2    0    0  0.41935942832E+02 -0.34846328673E+02  0.59127872609E+02  0.80430133696E+02  0.10566000000E+00 0. -1.
          4    1    1    2  501    0 -0.11143448542E+02 -0.28951580266E+02  0.77450222382E+02  0.83432052548E+02  0.00000000000E+00 0.  1.
</event>
<event>
 5    1  0.6336319E-005  0.2180282E+03  0.7818608E-02  0.1096188E+00
         21   -1    0    0  501  502  0.00000000000E+00  0.00000000000E+00  0.22242254502E+04  0.22242254502E+04  0.00000000000E+00 0. -1.
         -4   -1    0    0    0  501 -0.00000000000E+00 -0.00000000000E+00 -0.30289457950E+03  0.30289457950E+03  0.00000000000E+00 0. -1.
        -13    1    1    2    0    0  0.13211505163E+02  0.54249134497E+02 -0.19025206998E+03  0.19827600399E+03  0.10566000000E+00 0.  1.
         13    1    1    2    0    0  0.17602470442E+03  0.58061799490E+02 -0.19548674172E+02  0.18638141257E+03  0.10566000000E+00 0. -1.
         -4    1    1    2    0  502 -0.18923620958E+03 -0.11231093399E+03  0.21311316149E+04  0.21424626132E+04  0.00000000000E+00 0. -1.
</event>
<event>
 5    1  0.6336319E-005  0.3511584E+03  0.7818608E-02  0.9881795E-01
          4   -1    0    0  502    0 -0.00000000000E+00  0.00000000000E+00  0.12523034560E+03  0.12523034560E+03  0.00000000000E+00 0.  1.
         21   -1    0    0  501  502  0.00000000000E+00 -0.00000000000E+00 -0.34126077240E+04  0.34126077240E+04  0.00000000000E+00 0.  1.
        -13    1    1    2    0    0 -0.35476145431E+03 -0.30977204433E+03 -0.55775562850E+03  0.73000394602E+03  0.10566000000E+00 0.  1.
         13    1    1    2    0    0  0.16771153356E+03  0.19878362376E+03 -0.46500032935E+03  0.53279208423E+03  0.10566000000E+00 0. -1.
          4    1    1    2  501    0  0.18704992075E+03  0.11098842057E+03 -0.22646214205E+04  0.22750420393E+04  0.00000000000E+00 0.  1.
</event>
<event>
 5    1  0.6336319E-005  0.4609896E+03  0.7818608E-02  0.9802589E-01
         21   -1    0    0  501  502  0.00000000000E+00  0.00000000000E+00  0.16898513338E+03  0.16898513338E+03  0.00000000000E+00 0.  1.
          4   -1    0    0  502    0 -0.00000000000E+00 -0.00000000000E+00 -0.22849085159E+04  0.22849085159E+04  0.00000000000E+00 0.  1.
        -13    1    1    2    0    0  0.49598148199E+03  0.16693019378E+03 -0.11836891277E+04  0.12942114519E+04  0.10566000000E+00 0.  1.
         13    1    1    2    0    0 -0.15957186707E+03  0.12539372632E+03 -0.49657712241E+03  0.53644721737E+03  0.10566000000E+00 0. -1.
          4    1    1    2  501    0 -0.33640961492E+03 -0.29232392010E+03 -0.43565713241E+03  0.62323497999E+03  0.00000000000E+00 0.  1.
</event>
<event>
 5    1  0.6336319E-005  0.4638023E+02  0.7818608E-02  0.1307272E+00
         21   -1    0    0  501  502  0.00000000000E+00  0.00000000000E+00  0.28266879663E+03  0.28266879663E+03  0.00000000000E+00 0.  1.
          4   -1    0    0  502    0 -0.00000000000E+00 -0.00000000000E+00 -0.73051983810E+02  0.73051983810E+02  0.00000000000E+00 0.  1.
        -13    1    1    2    0    0  0.42616083713E+02 -0.21420695925E+02 -0.55541681281E+02  0.73211107959E+02  0.10566000000E+00 0.  1.
         13    1    1    2    0    0 -0.39872152859E+02  0.73302807533E+01  0.40196732990E+02  0.57090367810E+02  0.10566000000E+00 0. -1.
          4    1    1    2  501    0 -0.27439308538E+01  0.14090415172E+02  0.22496176112E+03  0.22541930468E+03  0.00000000000E+00 0.  1.
</event>
<event>
 5    1  0.6336319E-005  0.7298137E+02  0.7818608E-02  0.1240283E+00
         21   -1    0    0  501  502  0.00000000000E+00  0.00000000000E+00  0.60079898392E+03  0.60079898392E+03  0.00000000000E+00 0.  1.
          4   -1    0    0  502    0 -0.00000000000E+00 -0.00000000000E+00 -0.14072845837E+03  0.14072845837E+03  0.00000000000E+00 0.  1.
        -13    1    1    2    0    0  0.45334182307E+02  0.62617491011E+01 -0.12360978518E+03  0.13180966483E+03  0.10566000000E+00 0.  1.
         13    1    1    2    0    0 -0.58250276608E+02 -0.78091095230E+02  0.25369011792E+03  0.27175356662E+03  0.10566000000E+00 0. -1.
          4    1    1    2  501    0  0.12916094301E+02  0.71829346129E+02  0.32999019281E+03  0.33796421084E+03  0.00000000000E+00 0.  1.
</event>
<event>
 5    1  0.6336319E-005  0.1731382E+03  0.7818608E-02  0.1080293E+00
         -4   -1    0    0    0  501 -0.00000000000E+00  0.00000000000E+00  0.49629516510E+03  0.49629516510E+03  0.00000000000E+00 0. -1.
         21   -1    0    0  501  502  0.00000000000E+00 -0.00000000000E+00 -0.90162580156E+02  0.90162580156E+02  0.00000000000E+00 0.  1.
        -13    1    1    2    0    0 -0.71930591666E+02  0.15327855061E+03  0.96698554737E+02  0.19498447566E+03  0.10566000000E+00 0.  1.
         13    1    1    2    0    0  0.82337108011E+02 -0.15431985928E+03  0.32710830227E+03  0.37093647826E+03  0.10566000000E+00 0. -1.
         -4    1    1    2    0  502 -0.10406516345E+02  0.10413086719E+01 -0.17674272057E+02  0.20536791349E+02  0.00000000000E+00 0. -1.
</event>
<event>
 5    1  0.6336319E-005  0.3209306E+03  0.7818608E-02  0.1001950E+00
         21   -1    0    0  501  502  0.00000000000E+00  0.00000000000E+00  0.21478359041E+03  0.21478359041E+03  0.00000000000E+00 0.  1.
         -4   -1    0    0    0  501 -0.00000000000E+00 -0.00000000000E+00 -0.23932970604E+04  0.23932970604E+04  0.00000000000E+00 0. -1.
        -13    1    1    2    0    0  0.87185533107E+02 -0.33578702261E+03 -0.75564713974E+03  0.83147871452E+03  0.10566000000E+00 0.  1.
         13    1    1    2    0    0 -0.32971077954E+03  0.10224668679E+03 -0.13968911945E+04  0.14389122988E+04  0.10566000000E+00 0. -1.
         -4    1    1    2    0  502  0.24252524644E+03  0.23354033582E+03 -0.25975135746E+02  0.33768963752E+03  0.00000000000E+00 0. -1.
</event>
<event>
 5    1  0.6336319E-005  0.3676189E+03  0.7818608E-02  0.9977765E-01
         21   -1    0    0  501  502  0.00000000000E+00  0.00000000000E+00  0.68737505391E+03  0.68737505391E+03  0.00000000000E+00 0. -1.
         -4   -1    0    0    0  501 -0.00000000000E+00 -0.00000000000E+00 -0.62487333076E+03  0.62487333076E+03  0.00000000000E+00 0. -1.
        -13    1    1    2    0    0  0.36090900114E+02  0.21950117207E+03 -0.13396169022E+03  0.25967106736E+03  0.10566000000E+00 0.  1.
         13    1    1    2    0    0  0.12464490489E+03  0.30923042640E+03  0.34557545604E+03  0.48018977072E+03  0.10566000000E+00 0. -1.
         -4    1    1    2    0  502 -0.16073580500E+03 -0.52873159847E+03 -0.14911204266E+03  0.57238754659E+03  0.00000000000E+00 0. -1.
</event>
<event>
 5    1  0.6336319E-005  0.1784895E+03  0.7818608E-02  0.1075975E+00
         -4   -1    0    0    0  501 -0.00000000000E+00  0.00000000000E+00  0.11523693934E+04  0.11523693934E+04  0.00000000000E+00 0. -1.
         21   -1    0    0  501  502  0.00000000000E+00 -0.00000000000E+00 -0.66627974551E+02  0.66627974551E+02  0.00000000000E+00 0. -1.
        -13    1    1    2    0    0  0.13446105986E+03 -0.12637728039E+03  0.71664904697E+03  0.74002490587E+03  0.10566000000E+00 0.  1.
         13    1    1    2    0    0 -0.11304932037E+03  0.12700701301E+03  0.40382716545E+03  0.43816357780E+03  0.10566000000E+00 0. -1.
         -4    1    1    2    0  502 -0.21411739491E+02 -0.62973262629E+00 -0.34734793577E+02  0.40808884279E+02  0.00000000000E+00 0. -1.
</event>
<event>
 5    1  0.6336319E-005  0.3680694E+03  0.7818608E-02  0.1011815E+00
         21   -1    0    0  501  502  0.00000000000E+00  0.00000000000E+00  0.19028769305E+03  0.19028769305E+03  0.00000000000E+00 0. -1.
         -4   -1    0    0    0  501 -0.00000000000E+00 -0.00000000000E+00 -0.17984704254E+04  0.17984704254E+04  0.00000000000E+00 0. -1.
        -13    1    1    2    0    0 -0.61988061735E+02  0.12609551479E+03 -0.89305330686E+02  0.16648739262E+03  0.10566000000E+00 0.  1.
         13    1    1    2    0    0  0.39299131211E+03  0.32741517845E+02 -0.13707939137E+04  0.14263905999E+04  0.10566000000E+00 0. -1.
         -4    1    1    2    0  502 -0.33100325037E+03 -0.15883703264E+03 -0.14808348790E+03  0.39588012590E+03  0.00000000000E+00 0. -1.
</event>
<event>
 5    1  0.6336319E-005  0.1513301E+02  0.7818608E-02  0.1591620E+00
         21   -1    0    0  501  502  0.00000000000E+00  0.00000000000E+00  0.37855751341E+01  0.37855751341E+01  0.00000000000E+00 0.  1.
         -4   -1    0    0    0  501 -0.00000000000E+00 -0.00000000000E+00 -0.16801992663E+03  0.16801992663E+03  0.00000000000E+00 0. -1.
        -13    1    1    2    0    0 -0.94071501842E+00 -0.17633824011E+02 -0.26923652479E+02  0.32198306180E+02  0.10566000000E+00 0.  1.
         13    1    1    2    0    0  0.92683404194E+01  0.11933488019E+02 -0.79886797670E+02  0.81303271006E+02  0.10566000000E+00 0. -1.
         -4    1    1    2    0  502 -0.83276254010E+01  0.57003359922E+01 -0.57423901344E+02  0.58303924575E+02  0.00000000000E+00 0. -1.
</event>
<event>
 5    1  0.6336319E-005  0.4524910E+03  0.7818608E-02  0.9751893E-01
         21   -1    0    0  501  502  0.00000000000E+00  0.00000000000E+00  0.93355972031E+03  0.93355972031E+03  0.00000000000E+00 0.  1.
          4   -1    0    0  502    0 -0.00000000000E+00 -0.00000000000E+00 -0.45349162705E+03  0.45349162705E+03  0.00000000000E+00 0.  1.
        -13    1    1    2    0    0 -0.25893774413E+03  0.84336093873E+02 -0.17726645161E+03  0.32493805270E+03  0.10566000000E+00 0.  1.
         13    1    1    2    0    0 -0.25512555009E+03  0.10635224354E+02  0.48973282552E+02  0.26000105361E+03  0.10566000000E+00 0. -1.
          4    1    1    2  501    0  0.51406329422E+03 -0.94971318227E+02  0.60836126231E+03  0.80211224105E+03  0.00000000000E+00 0.  1.
</event>
<event>
 5    1  0.6336319E-005  0.5102644E+03  0.7818608E-02  0.9455754E-01
         21   -1    0    0  501  502  0.00000000000E+00  0.00000000000E+00  0.56128291690E+03  0.56128291690E+03  0.00000000000E+00 0.  1.
          4   -1    0    0  502    0 -0.00000000000E+00 -0.00000000000E+00 -0.15277964836E+04  0.15277964836E+04  0.00000000000E+00 0.  1.
        -13    1    1    2    0    0 -0.70735799278E+03  0.22704726421E+03 -0.71236657095E+02  0.74631123710E+03  0.10566000000E+00 0.  1.
         13    1    1    2    0    0  0.39334391579E+03 -0.26490248973E+03 -0.90998252208E+03  0.10261388633E+04  0.10566000000E+00 0. -1.
          4    1    1    2  501    0  0.31401407700E+03  0.37855225522E+02  0.14705612442E+02  0.31662930011E+03  0.00000000000E+00 0.  1.
</event>
<event>
 5    1  0.6336319E-005  0.1622547E+03  0.7818608E-02  0.1089617E+00
         -4   -1    0    0    0  501 -0.00000000000E+00  0.00000000000E+00  0.71211798331E+03  0.71211798331E+03  0.00000000000E+00 0. -1.
         21   -1    0    0  501  502  0.00000000000E+00 -0.00000000000E+00 -0.43142377068E+02  0.43142377068E+02  0.00000000000E+00 0.  1.
        -13    1    1    2    0    0 -0.90169042212E+02 -0.13128225407E+03  0.29913478262E+03  0.33889100865E+03  0.10566000000E+00 0.  1.
         13    1    1    2    0    0  0.79945890647E+02  0.14470977669E+03  0.36157254508E+03  0.39757638438E+03  0.10566000000E+00 0. -1.
         -4    1    1    2    0  502  0.10223151565E+02 -0.13427522615E+02  0.82682785413E+01  0.18792967342E+02  0.00000000000E+00 0. -1.
</event>
<event>
 5    1  0.6336319E-005  0.4985026E+03  0.7818608E-02  0.9690231E-01
         -4   -1    0    0    0  501 -0.00000000000E+00  0.00000000000E+00  0.28661046110E+03  0.28661046110E+03  0.00000000000E+00 0. -1.
         21   -1    0    0  501  502  0.00000000000E+00 -0.00000000000E+00 -0.16801703015E+04  0.16801703015E+04  0.00000000000E+00 0. -1.
        -13    1    1    2    0    0 -0.19210351253E+03 -0.13794431821E+03  0.68343133100E+00  0.23650131647E+03  0.10566000000E+00 0.  1.
         13    1    1    2    0    0 -0.38945700511E+03  0.18253978435E+03 -0.46743531068E+03  0.63521123458E+03  0.10566000000E+00 0. -1.
         -4    1    1    2    0  502  0.58156051764E+03 -0.44595466139E+02 -0.92680796100E+03  0.10950682115E+04  0.00000000000E+00 0. -1.
</event>
<event>
 5    1  0.6336319E-005  0.1730498E+03  0.7818608E-02  0.1080366E+00
          4   -1    0    0  502    0 -0.00000000000E+00  0.00000000000E+00  0.17735433185E+04  0.17735433185E+04  0.00000000000E+00 0.  1.
         21   -1    0    0  501  502  0.00000000000E+00 -0.00000000000E+00 -0.67640325425E+02  0.67640325425E+02  0.00000000000E+00 0.  1.
        -13    1    1    2    0    0  0.12470592061E+03  0.15114084627E+03  0.11393243189E+04  0.11560514854E+04  0.10566000000E+00 0.  1.
         13    1    1    2    0    0 -0.13895885531E+03 -0.66713045844E+02  0.57849988237E+03  0.59868382224E+03  0.10566000000E+00 0. -1.
          4    1    1    2  501    0  0.14252934695E+02 -0.84427800422E+02 -0.11921208259E+02  0.86448336235E+02  0.00000000000E+00 0.  1.
</event>
<event>
 5    1  0.6336319E-005  0.5580149E+02  0.7818608E-02  0.1269816E+00
          4   -1    0    0  502    0 -0.00000000000E+00  0.00000000000E+00  0.84212294990E+02  0.84212294990E+02  0.00000000000E+00 0.  1.
         21   -1    0    0  501  502  0.00000000000E+00 -0.00000000000E+00 -0.62590281326E+02  0.62590281326E+02  0.00000000000E+00 0. -1.
        -13    1    1    2    0    0  0.53510949155E+02 -0.67762908291E+01  0.35266489764E+02  0.64444365628E+02  0.10566000000E+00 0.  1.
         13    1    1    2    0    0 -0.61784117385E+02 -0.94189235399E+01 -0.14478197417E+02  0.64153118756E+02  0.10566000000E+00 0. -1.
          4    1    1    2  501    0  0.82731682294E+01  0.16195214369E+02  0.83372131667E+00  0.18205091932E+02  0.00000000000E+00 0.  1.
</event>
<event>
 5    1  0.6336319E-005  0.2337078E+02  0.7818608E-02  0.1467738E+00
         21   -1    0    0  501  502  0.00000000000E+00  0.00000000000E+00  0.23359692006E+03  0.23359692006E+03  0.00000000000E+00 0. -1.
          4   -1    0    0  502    0 -0.00000000000E+00 -0.00000000000E+00 -0.96434901124E+01  0.96434901124E+01  0.00000000000E+00 0.  1.
        -13    1    1    2    0    0 -0.20164466234E+02  0.58476299351E+01  0.15244599287E+02  0.25946280000E+02  0.10566000000E+00 0.  1.
         13    1    1    2    0    0  0.33829014249E+02  0.37944970979E+01  0.72863923574E+02  0.80423646622E+02  0.10566000000E+00 0. -1.
          4    1    1    2  501    0 -0.13664548015E+02 -0.96421270329E+01  0.13584490709E+03  0.13687048355E+03  0.00000000000E+00 0.  1.
</event>
<event>
 5    1  0.6336319E-005  0.1387499E+03  0.7818608E-02  0.1112770E+00
         21   -1    0    0  501  502  0.00000000000E+00  0.00000000000E+00  0.24487805441E+03  0.24487805441E+03  0.00000000000E+00 0.  1.
         -4   -1    0    0    0  501 -0.00000000000E+00 -0.00000000000E+00 -0.31634621442E+03  0.31634621442E+03  0.00000000000E+00 0. -1.
        -13    1    1    2    0    0  0.76354541453E+02  0.11283338475E+03  0.18816183806E+03  0.23230642949E+03  0.10566000000E+00 0.  1.
         13    1    1    2    0    0 -0.45612885476E+02 -0.13164107179E+03 -0.25755253194E+03  0.29281944091E+03  0.10566000000E+00 0. -1.
         -4    1    1    2    0  502 -0.30741655978E+02  0.18807687045E+02 -0.20774661342E+01  0.36098398437E+02  0.00000000000E+00 0. -1.
</event>
<event>
 5    1  0.6336319E-005  0.7070706E+02  0.7818608E-02  0.1224884E+00
         21   -1    0    0  501  502  0.00000000000E+00  0.00000000000E+00  0.33918605096E+03  0.33918605096E+03  0.00000000000E+00 0.  1.
         -4   -1    0    0    0  501 -0.00000000000E+00 -0.00000000000E+00 -0.53429924674E+02  0.53429924674E+02  0.00000000000E+00 0. -1.
        -13    1    1    2    0    0 -0.86740077163E+02 -0.52726961583E+02  0.17563510343E+03  0.20285875427E+03  0.10566000000E+00 0.  1.
         13    1    1    2    0    0  0.60523173440E+02  0.26382071040E+02 -0.74585238351E+01  0.66443276089E+02  0.10566000000E+00 0. -1.
         -4    1    1    2    0  502  0.26216903724E+02  0.26344890543E+02  0.11757954670E+03  0.12331394528E+03  0.00000000000E+00 0. -1.
</event>
<event>
 5    1  0.6336319E-005  0.3263771E+03  0.7818608E-02  0.9969761E-01
          4   -1    0    0  502    0 -0.00000000000E+00  0.00000000000E+00  0.11982616319E+04  0.11982616319E+04  0.00000000000E+00 0.  1.
         21   -1    0    0  501  502  0.00000000000E+00 -0.00000000000E+00 -0.52524644326E+03  0.52524644326E+03  0.00000000000E+00 0.  1.
        -13    1    1    2    0    0 -0.29402623584E+02 -0.37776884691E+03 -0.39469652606E+03  0.54713725409E+03  0.10566000000E+00 0.  1.
         13    1    1    2    0    0 -0.10948590890E+03  0.30535496686E+03  0.58548883608E+03  0.66934744967E+03  0.10566000000E+00 0. -1.
          4    1    1    2  501    0  0.13888853248E+03  0.72413880048E+02  0.48222287857E+03  0.50702337135E+03  0.00000000000E+00 0.  1.
</event>
<event>
 5    1  0.6336319E-005  0.2317979E+03  0.7818608E-02  0.1052384E+00
         -4   -1    0    0    0  501 -0.00000000000E+00  0.00000000000E+00  0.49684517667E+03  0.49684517667E+03  0.00000000000E+00 0. -1.
         21   -1    0    0  501  502  0.00000000000E+00 -0.00000000000E+00 -0.66600030886E+03  0.66600030886E+03  0.00000000000E+00 0. -1.
        -13    1    1    2    0    0  0.64802900245E+02  0.14775145370E+03  0.43006133684E+02  0.16697139470E+03  0.10566000000E+00 0.  1.
         13    1    1    2    0    0  0.70527920755E+02  0.21028439679E+03 -0.47996246681E+03  0.52873215889E+03  0.10566000000E+00 0. -1.
         -4    1    1    2    0  502 -0.13533082100E+03 -0.35803585049E+03  0.26780120094E+03  0.46714193193E+03  0.00000000000E+00 0. -1.
</event>
<event>
 5    1  0.6336319E-005  0.2361231E+03  0.7818608E-02  0.1037846E+00
          4   -1    0    0  502    0 -0.00000000000E+00  0.00000000000E+00  0.13205047491E+04  0.13205047491E+04  0.00000000000E+00 0.  1.
         21   -1    0    0  501  502  0.00000000000E+00 -0.00000000000E+00 -0.16951016337E+03  0.16951016337E+03  0.00000000000E+00 0.  1.
        -13    1    1    2    0    0 -0.21394042295E+03 -0.11509681535E+03  0.10378917039E+04  0.10659441738E+04  0.10566000000E+00 0.  1.
         13    1    1    2    0    0  0.15957141059E+03  0.15070467295E+03  0.21237613831E+03  0.30541540369E+03  0.10566000000E+00 0. -1.
          4    1    1    2  501    0  0.54369012366E+02 -0.35607857606E+02 -0.99273256560E+02  0.11865533489E+03  0.00000000000E+00 0.  1.
</event>
<event>
 5    1  0.6336319E-005  0.3295544E+02  0.7818608E-02  0.1382638E+00
         -4   -1    0    0    0  501 -0.00000000000E+00  0.00000000000E+00  0.59453895658E+02  0.59453895658E+02  0.00000000000E+00 0. -1.
         21   -1    0    0  501  502  0.00000000000E+00 -0.00000000000E+00 -0.52462291377E+02  0.52462291377E+02  0.00000000000E+00 0. -1.
        -13    1    1    2    0    0 -0.20901166916E+02 -0.17945187563E+02  0.12777588449E+02  0.30367193906E+02  0.10566000000E+00 0.  1.
         13    1    1    2    0    0  0.21828278981E+02  0.34893073712E+02  0.23723803756E+02  0.47506108923E+02  0.10566000000E+00 0. -1.
         -4    1    1    2    0  502 -0.92711206462E+00 -0.16947886149E+02 -0.29509787924E+02  0.34042884206E+02  0.00000000000E+00 0. -1.
</event>
<event>
 5    1  0.6336319E-005  0.1034517E+03  0.7818608E-02  0.1158968E+00
         -4   -1    0    0    0  501 -0.00000000000E+00  0.00000000000E+00  0.14178243370E+02  0.14178243370E+02  0.00000000000E+00 0. -1.
         21   -1    0    0  501  502  0.00000000000E+00 -0.00000000000E+00 -0.96723148464E+03  0.96723148464E+03  0.00000000000E+00 0.  1.
        -13    1    1    2    0    0 -0.55679371880E+02 -0.73300029169E+02 -0.54307720987E+03  0.55082297862E+03  0.10566000000E+00 0.  1.
         13    1    1    2    0    0  0.73799709947E+02  0.82384395229E+02 -0.32821406526E+03  0.34634963486E+03  0.10566000000E+00 0. -1.
         -4    1    1    2    0  502 -0.18120338068E+02 -0.90843660599E+01 -0.81761966136E+02  0.84237114533E+02  0.00000000000E+00 0. -1.
</event>
<event>
 5    1  0.6336319E-005  0.4627136E+03  0.7818608E-02  0.9602649E-01
         21   -1    0    0  501  502  0.00000000000E+00  0.00000000000E+00  0.13165524259E+04  0.13165524259E+04  0.00000000000E+00 0. -1.
         -4   -1    0    0    0  501 -0.00000000000E+00 -0.00000000000E+00 -0.52480837288E+03  0.52480837288E+03  0.00000000000E+00 0. -1.
        -13    1    1    2    0    0  0.14106293449E+03 -0.37707752772E+03 -0.14147625213E+03  0.42673382158E+03  0.10566000000E+00 0.  1.
         13    1    1    2    0    0  0.36543879148E+03  0.20195963855E+03  0.10905277660E+03  0.43153878756E+03  0.10566000000E+00 0. -1.
         -4    1    1    2    0  502 -0.50650172596E+03  0.17511788917E+03  0.82416752851E+03  0.98308818962E+03  0.00000000000E+00 0. -1.
</event>
<event>
 5    1  0.6336319E-005  0.2120031E+03  0.7818608E-02  0.1052205E+00
          4   -1    0    0  502    0 -0.00000000000E+00  0.00000000000E+00  0.14060423335E+04  0.14060423335E+04  0.00000000000E+00 0.  1.
         21   -1    0    0  501  502  0.00000000000E+00 -0.00000000000E+00 -0.90296104810E+02  0.90296104810E+02  0.00000000000E+00 0. -1.
        -13    1    1    2    0    0  0.20239701360E+03 -0.27713923328E+02  0.90937821934E+03  0.93204150639E+03  0.10566000000E+00 0.  1.
         13    1    1    2    0    0 -0.22864886829E+03  0.31646348896E+02  0.45425864877E+03  0.50954168379E+03  0.10566000000E+00 0. -1.
          4    1    1    2  501    0  0.26251854691E+02 -0.39324255682E+01 -0.47890639464E+02  0.54755248094E+02  0.00000000000E+00 0.  1.
</event>
<event>
 5    1  0.6336319E-005  0.1693830E+03  0.7818608E-02  0.1083425E+00
         21   -1    0    0  501  502  0.00000000000E+00  0.00000000000E+00  0.21160436686E+04  0.21160436686E+04  0.00000000000E+00 0.  1.
          4   -1    0    0  502    0 -0.00000000000E+00 -0.00000000000E+00 -0.15253990723E+03  0.15253990723E+03  0.00000000000E+00 0.  1.
        -13    1    1    2    0    0 -0.16895937616E+03 -0.39395857804E+02 -0.90049271842E+02  0.19546914572E+03  0.10566000000E+00 0.  1.
         13    1    1    2    0    0  0.13594297139E+03 -0.16965200114E+02  0.50701559279E+03  0.52519818353E+03  0.10566000000E+00 0. -1.
          4    1    1    2  501    0  0.33016404776E+02  0.56361057918E+02  0.15465374404E+04  0.15479162466E+04  0.00000000000E+00 0.  1.
</event>
<event>
 5    1  0.1147490E-004  0.4183223E+03  0.7818608E-02  0.9677572E-01
          4   -1    0    0  502    0 -0.00000000000E+00  0.00000000000E+00  0.97725317505E+03  0.97725317505E+03  0.00000000000E+00 0.  1.
         21   -1    0    0  501  502  0.00000000000E+00 -0.00000000000E+00 -0.74436411610E+03  0.74436411610E+03  0.00000000000E+00 0. -1.
        -13    1    1    2    0    0 -0.36976119681E+03  0.15156735999E+03  0.67863488470E+03  0.78755401413E+03  0.10566000000E+00 0.  1.
         13    1    1    2    0    0  0.52385340495E+03 -0.10490734601E+03 -0.87594341263E+02  0.54138777314E+03  0.10566000000E+00 0. -1.
          4    1    1    2  501    0 -0.15409220813E+03 -0.46660013978E+02 -0.35815148448E+03  0.39267550388E+03  0.00000000000E+00 0.  1.
</event>
<event>
 5    1  0.6336319E-005  0.4970593E+03  0.7818608E-02  0.9626547E-01
          4   -1    0    0  502    0 -0.00000000000E+00  0.00000000000E+00  0.17512308030E+04  0.17512308030E+04  0.00000000000E+00 0.  1.
         21   -1    0    0  501  502  0.00000000000E+00 -0.00000000000E+00 -0.29810486842E+03  0.29810486842E+03  0.00000000000E+00 0.  1.
        -13    1    1    2    0    0  0.32664494274E+03 -0.15449437283E+03  0.41956392009E+03  0.55371411763E+03  0.10566000000E+00 0.  1.
         13    1    1    2    0    0  0.29827025258E+03 -0.83163249439E+01  0.71662496947E+03  0.77626391315E+03  0.10566000000E+00 0. -1.
          4    1    1    2  501    0 -0.62491519531E+03  0.16281069777E+03  0.31693704502E+03  0.71935764064E+03  0.00000000000E+00 0.  1.
</event>
<event>
 5    1  0.6336319E-005  0.2187884E+03  0.7818608E-02  0.1047967E+00
         21   -1    0    0  501  502  0.00000000000E+00  0.00000000000E+00  0.58087028443E+02  0.58087028443E+02  0.00000000000E+00 0.  1.
          4   -1    0    0  502    0 -0.00000000000E+00 -0.00000000000E+00 -0.18626092414E+04  0.18626092414E+04  0.00000000000E+00 0.  1.
        -13    1    1    2    0    0 -0.24219312003E+02  0.21067939367E+03 -0.10256726440E+04  0.10473665862E+04  0.10566000000E+00 0.  1.
         13    1    1    2    0    0 -0.14575692795E+02 -0.23065580280E+03 -0.79414401604E+03  0.82709085327E+03  0.10566000000E+00 0. -1.
          4    1    1    2  501    0  0.38795004797E+02  0.19976409132E+02  0.15294447145E+02  0.46238830354E+02  0.00000000000E+00 0.  1.
</event>
<event>
 5    1  0.6336319E-005  0.4965784E+03  0.7818608E-02  0.9697922E-01
         -4   -1    0    0    0  501 -0.00000000000E+00  0.00000000000E+00  0.16083897513E+04  0.16083897513E+04  0.00000000000E+00 0. -1.
         21   -1    0    0  501  502  0.00000000000E+00 -0.00000000000E+00 -0.26276785979E+03  0.26276785979E+03  0.00000000000E+00 0. -1.
        -13    1    1    2    0    0 -0.15474731501E+03 -0.17409649019E+03  0.44486860011E+03  0.50215973746E+03  0.10566000000E+00 0.  1.
         13    1    1    2    0    0  0.49109379012E+03 -0.18237448311E+03  0.34131898125E+03  0.62524572843E+03  0.10566000000E+00 0. -1.
         -4    1    1    2    0  502 -0.33634647512E+03  0.35647097330E+03  0.55943431015E+03  0.74375214521E+03  0.00000000000E+00 0. -1.
</event>
<event>
 5    1  0.6336319E-005  0.3643780E+03  0.7818608E-02  0.1017087E+00
         -4   -1    0    0    0  501 -0.00000000000E+00  0.00000000000E+00  0.22639211207E+04  0.22639211207E+04  0.00000000000E+00 0. -1.
         21   -1    0    0  501  502  0.00000000000E+00 -0.00000000000E+00 -0.14116898874E+03  0.14116898874E+03  0.00000000000E+00 0. -1.
        -13    1    1    2    0    0 -0.88184095285E+02 -0.84927590757E+02  0.38964693374E+03  0.40842854267E+03  0.10566000000E+00 0.  1.
         13    1    1    2    0    0 -0.25747759770E+03  0.22292321832E+03  0.15402903655E+04  0.15774929146E+04  0.10566000000E+00 0. -1.
         -4    1    1    2    0  502  0.34566169299E+03 -0.13799562757E+03  0.19281483280E+03  0.41916865219E+03  0.00000000000E+00 0. -1.
</event>
<event>
 5    1  0.6336319E-005  0.4313235E+03  0.7818608E-02  0.9642713E-01
         21   -1    0    0  501  502  0.00000000000E+00  0.00000000000E+00  0.12028087877E+03  0.12028087877E+03  0.00000000000E+00 0. -1.
          4   -1    0    0  502    0 -0.00000000000E+00 -0.00000000000E+00 -0.24991429205E+04  0.24991429205E+04  0.00000000000E+00 0.  1.
        -13    1    1    2    0    0 -0.24024895509E+03  0.36036570727E+03 -0.19830918733E+04  0.20298365433E+04  0.10566000000E+00 0.  1.
         13    1    1    2    0    0  0.22954723937E+03 -0.35682223863E+03 -0.39214087558E+03  0.57774434013E+03  0.10566000000E+00 0. -1.
          4    1    1    2  501    0  0.10701715721E+02 -0.35434686366E+01 -0.36292928798E+01  0.11842915864E+02  0.00000000000E+00 0.  1.
</event>
<event>
 5    1  0.6336319E-005  0.1964874E+02  0.7818608E-02  0.1556195E+00
         -4   -1    0    0    0  501 -0.00000000000E+00  0.00000000000E+00  0.71971408340E+02  0.71971408340E+02  0.00000000000E+00 0. -1.
         21   -1    0    0  501  502  0.00000000000E+00 -0.00000000000E+00 -0.59971100223E+02  0.59971100223E+02  0.00000000000E+00 0.  1.
        -13    1    1    2    0    0  0.64166333778E+01 -0.89946009311E+01 -0.27213580502E+02  0.29371179030E+02  0.10566000000E+00 0.  1.
         13    1    1    2    0    0 -0.30262965832E+01  0.27986755534E+02  0.64728040557E+02  0.70584327968E+02  0.10566000000E+00 0. -1.
         -4    1    1    2    0  502 -0.33903367947E+01 -0.18992154603E+02 -0.25514151938E+02  0.31987001565E+02  0.00000000000E+00 0. -1.
</event>
<event>
 5    1  0.6336319E-005  0.1531658E+03  0.7818608E-02  0.1098031E+00
          4   -1    0    0  502    0 -0.00000000000E+00  0.00000000000E+00  0.10281933375E+03  0.10281933375E+03  0.00000000000E+00 0.  1.
         21   -1    0    0  501  502  0.00000000000E+00 -0.00000000000E+00 -0.18925529916E+04  0.18925529916E+04  0.00000000000E+00 0.  1.
        -13    1    1    2    0    0  0.13453107915E+03  0.95337079352E+02  0.20990235417E+02  0.16621784231E+03  0.10566000000E+00 0.  1.
         13    1    1    2    0    0 -0.67624534100E+02 -0.79091480486E+02 -0.31291702910E+03  0.32976600517E+03  0.10566000000E+00 0. -1.
          4    1    1    2  501    0 -0.66906545047E+02 -0.16245598866E+02 -0.14978068642E+04  0.14993884779E+04  0.00000000000E+00 0.  1.
</event>
<event>
 5    1  0.6336319E-005  0.3914874E+03  0.7818608E-02  0.9753957E-01
         21   -1    0    0  501  502  0.00000000000E+00  0.00000000000E+00  0.80811842691E+03  0.80811842691E+03  0.00000000000E+00 0. -1.
         -4   -1    0    0    0  501 -0.00000000000E+00 -0.00000000000E+00 -0.72352241102E+03  0.72352241102E+03  0.00000000000E+00 0. -1.
        -13    1    1    2    0    0 -0.21710637821E+03  0.36879234546E+03 -0.62714056810E+02  0.43252287525E+03  0.10566000000E+00 0.  1.
         13    1    1    2    0    0  0.41151342137E+03 -0.91960260387E+02 -0.31495246743E+03  0.52630319528E+03  0.10566000000E+00 0. -1.
         -4    1    1    2    0  502 -0.19440704316E+03 -0.27683208507E+03  0.46226254013E+03  0.57281476741E+03  0.00000000000E+00 0. -1.
</event>
<event>
 5    1  0.6336319E-005  0.4951281E+03  0.7818608E-02  0.9928226E-01
         21   -1    0    0  501  502  0.00000000000E+00  0.00000000000E+00  0.15797722841E+03  0.15797722841E+03  0.00000000000E+00 0.  1.
          4   -1    0    0  502    0 -0.00000000000E+00 -0.00000000000E+00 -0.19488051928E+04  0.19488051928E+04  0.00000000000E+00 0.  1.
        -13    1    1    2    0    0  0.30804691920E+02 -0.51382537800E+03 -0.70631571836E+03  0.87398361157E+03  0.10566000000E+00 0.  1.
         13    1    1    2    0    0  0.92762188116E+02  0.53865177903E+02 -0.15688832898E+03  0.19005325535E+03  0.10566000000E+00 0. -1.
          4    1    1    2  501    0 -0.12356688004E+03  0.45996020009E+03 -0.92762391703E+03  0.10427455543E+04  0.00000000000E+00 0.  1.
</event>
<event>
 5    1  0.6336319E-005  0.3321967E+03  0.7818608E-02  0.9948371E-01
          4   -1    0    0  502    0 -0.00000000000E+00  0.00000000000E+00  0.14884547641E+04  0.14884547641E+04  0.00000000000E+00 0.  1.
         21   -1    0    0  501  502  0.00000000000E+00 -0.00000000000E+00 -0.10782463596E+03  0.10782463596E+03  0.00000000000E+00 0. -1.
        -13    1    1    2    0    0  0.27161204084E+03  0.19578295916E+03  0.10491091828E+04  0.11012420971E+04  0.10566000000E+00 0.  1.
         13    1    1    2    0    0 -0.28253340512E+03 -0.16371179378E+03  0.32466361086E+03  0.46047057214E+03  0.10566000000E+00 0. -1.
          4    1    1    2  501    0  0.10921364287E+02 -0.32071165387E+02  0.68573345684E+01  0.34566730892E+02  0.00000000000E+00 0.  1.
</event>
<event>
 5    1  0.6336319E-005  0.1429217E+03  0.7818608E-02  0.1108310E+00
         -4   -1    0    0    0  501 -0.00000000000E+00  0.00000000000E+00  0.85095652750E+02  0.85095652750E+02  0.00000000000E+00 0. -1.
         21   -1    0    0  501  502  0.00000000000E+00 -0.00000000000E+00 -0.92916655237E+03  0.92916655237E+03  0.00000000000E+00 0.  1.
        -13    1    1    2    0    0  0.16543224787E+03  0.29597770561E+02 -0.78214451699E+03  0.79999619579E+03  0.10566000000E+00 0.  1.
         13    1    1    2    0    0 -0.13605256905E+03 -0.36283990464E+02  0.49716891684E+01  0.14089555837E+03  0.10566000000E+00 0. -1.
         -4    1    1    2    0  502 -0.29379678819E+02  0.66862199027E+01 -0.66898071796E+02  0.73370450960E+02  0.00000000000E+00 0. -1.
</event>
<event>
 5    1  0.6336319E-005  0.1969340E+03  0.7818608E-02  0.1091789E+00
         -4   -1    0    0    0  501 -0.00000000000E+00  0.00000000000E+00  0.31836074710E+04  0.31836074710E+04  0.00000000000E+00 0. -1.
         21   -1    0    0  501  502  0.00000000000E+00 -0.00000000000E+00 -0.10234079951E+03  0.10234079951E+03  0.00000000000E+00 0. -1.
        -13    1    1    2    0    0  0.48979966877E+02  0.70046465170E+02  0.75950266805E+02  0.11434158749E+03  0.10566000000E+00 0.  1.
         13    1    1    2    0    0 -0.24590187802E+02  0.19285339443E+03  0.45020098238E+02  0.19955933826E+03  0.10566000000E+00 0. -1.
         -4    1    1    2    0  502 -0.24389779075E+02 -0.26289985960E+03  0.29602963065E+04  0.29720473448E+04  0.00000000000E+00 0. -1.
</event>
<event>
 5    1  0.6336319E-005  0.1091824E+03  0.7818608E-02  0.1150196E+00
          4   -1    0    0  502    0 -0.00000000000E+00  0.00000000000E+00  0.60648868079E+03  0.60648868079E+03  0.00000000000E+00 0.  1.
         21   -1    0    0  501  502  0.00000000000E+00 -0.00000000000E+00 -0.91717175917E+02  0.91717175917E+02  0.00000000000E+00 0.  1.
        -13    1    1    2    0    0 -0.92059680653E+02 -0.57666707930E+02  0.54734729885E+03  0.55802285861E+03  0.10566000000E+00 0.  1.
         13    1    1    2    0    0  0.10272053480E+03  0.54192894142E+02 -0.12009515672E+02  0.11675880128E+03  0.10566000000E+00 0. -1.
          4    1    1    2  501    0 -0.10660854144E+02  0.34738137884E+01 -0.20566278308E+02  0.23424196822E+02  0.00000000000E+00 0.  1.
</event>
<event>
 5    1  0.6336319E-005  0.1288865E+03  0.7818608E-02  0.1124025E+00
          4   -1    0    0  502    0 -0.00000000000E+00  0.00000000000E+00  0.28961926291E+03  0.28961926291E+03  0.00000000000E+00 0.  1.
         21   -1    0    0  501  502  0.00000000000E+00 -0.00000000000E+00 -0.11570375946E+03  0.11570375946E+03  0.00000000000E+00 0.  1.
        -13    1    1    2    0    0  0.15836550154E+03  0.57931008948E+02  0.13147483246E+03  0.21382534136E+03  0.10566000000E+00 0.  1.
         13    1    1    2    0    0 -0.75043282717E+02 -0.66268880972E+02  0.39744865620E+02  0.10771594299E+03  0.10566000000E+00 0. -1.
          4    1    1    2  501    0 -0.83322218821E+02  0.83378720243E+01  0.26958053712E+01  0.83781738020E+02  0.00000000000E+00 0.  1.
</event>
<event>
 5    1  0.6336319E-005  0.4244488E+03  0.7818608E-02  0.9836505E-01
         -4   -1    0    0    0  501 -0.00000000000E+00  0.00000000000E+00  0.26357472509E+04  0.26357472509E+04  0.00000000000E+00 0. -1.
         21   -1    0    0  501  502  0.00000000000E+00 -0.00000000000E+00 -0.15155213506E+03  0.15155213506E+03  0.00000000000E+00 0. -1.
        -13    1    1    2    0    0  0.18796075027E+03  0.13544833531E+03  0.79135333527E+03  0.82456995313E+03  0.10566000000E+00 0.  1.
         13    1    1    2    0    0 -0.90203736058E+02 -0.52168678664E+03  0.12979332590E+04  0.14017576728E+04  0.10566000000E+00 0. -1.
         -4    1    1    2    0  502 -0.97757014216E+02  0.38623845133E+03  0.39490852155E+03  0.56097175999E+03  0.00000000000E+00 0. -1.
</event>
<event>
 5    1  0.6336319E-005  0.1313039E+03  0.7818608E-02  0.1121168E+00
         21   -1    0    0  501  502  0.00000000000E+00  0.00000000000E+00  0.47265557336E+02  0.47265557336E+02  0.00000000000E+00 0.  1.
         -4   -1    0    0    0  501 -0.00000000000E+00 -0.00000000000E+00 -0.48806808678E+03  0.48806808678E+03  0.00000000000E+00 0. -1.
        -13    1    1    2    0    0 -0.59098057797E+02  0.11174993910E+03 -0.10542802290E+03  0.16460774132E+03  0.10566000000E+00 0.  1.
         13    1    1    2    0    0  0.80610063387E+02 -0.10723066594E+03 -0.30531039845E+03  0.33348290601E+03  0.10566000000E+00 0. -1.
         -4    1    1    2    0  502 -0.21512005590E+02 -0.45192731612E+01 -0.30064108089E+02  0.37242996786E+02  0.00000000000E+00 0. -1.
</event>
<event>
 5    1  0.6336319E-005  0.4994905E+03  0.7818608E-02  0.9723005E-01
          4   -1    0    0  502    0 -0.00000000000E+00  0.00000000000E+00  0.14076919512E+04  0.14076919512E+04  0.00000000000E+00 0.  1.
         21   -1    0    0  501  502  0.00000000000E+00 -0.00000000000E+00 -0.28603436730E+03  0.28603436730E+03  0.00000000000E+00 0.  1.
        -13    1    1    2    0    0  0.39684542936E+03  0.11536642979E+03  0.70184706349E+03  0.81448451159E+03  0.10566000000E+00 0.  1.
         13    1    1    2    0    0  0.16033324684E+03 -0.13526856057E+03  0.16169499454E+03  0.26485772775E+03  0.10566000000E+00 0. -1.
          4    1    1    2  501    0 -0.55717867620E+03  0.19902130784E+02  0.25811552584E+03  0.61438407915E+03  0.00000000000E+00 0.  1.
</event>
<event>
 5    1  0.6336319E-005  0.9427061E+02  0.7818608E-02  0.1174399E+00
         21   -1    0    0  501  502  0.00000000000E+00  0.00000000000E+00  0.35222323494E+03  0.35222323494E+03  0.00000000000E+00 0.  1.
          4   -1    0    0  502    0 -0.00000000000E+00 -0.00000000000E+00 -0.77895327240E+02  0.77895327240E+02  0.00000000000E+00 0.  1.
        -13    1    1    2    0    0 -0.77574356684E+02  0.61850689236E+02 -0.29430130513E+02  0.10348638712E+03  0.10566000000E+00 0.  1.
         13    1    1    2    0    0  0.69218963690E+02 -0.32753445628E+02  0.13522925156E+03  0.15540596763E+03  0.10566000000E+00 0. -1.
          4    1    1    2  501    0  0.83553929939E+01 -0.29097243609E+02  0.16852878666E+03  0.17122620743E+03  0.00000000000E+00 0.  1.
</event>
<event>
 5    1  0.6336319E-005  0.4023607E+03  0.7818608E-02  0.1011386E+00
         21   -1    0    0  501  502  0.00000000000E+00  0.00000000000E+00  0.37524173155E+03  0.37524173155E+03  0.00000000000E+00 0.  1.
          4   -1    0    0  502    0 -0.00000000000E+00 -0.00000000000E+00 -0.10977592874E+04  0.10977592874E+04  0.00000000000E+00 0.  1.
        -13    1    1    2    0    0  0.40351206685E+03  0.10678533575E+03  0.16834593073E+03  0.45007272699E+03  0.10566000000E+00 0.  1.
         13    1    1    2    0    0 -0.91459344244E+02  0.59387371888E+02 -0.42111323098E+03  0.43500348971E+03  0.10566000000E+00 0. -1.
          4    1    1    2  501    0 -0.31205272261E+03 -0.16617270764E+03 -0.46975025555E+03  0.58792480220E+03  0.00000000000E+00 0.  1.
</event>
<event>
 5    1  0.6336319E-005  0.4293964E+02  0.7818608E-02  0.1323548E+00
         -4   -1    0    0    0  501 -0.00000000000E+00  0.00000000000E+00  0.48043201815E+03  0.48043201815E+03  0.00000000000E+00 0. -1.
         21   -1    0    0  501  502  0.00000000000E+00 -0.00000000000E+00 -0.10001006905E+02  0.10001006905E+02  0.00000000000E+00 0. -1.
        -13    1    1    2    0    0 -0.28166919141E+02 -0.21879198311E+02  0.20227209811E+03  0.20539252053E+03  0.10566000000E+00 0.  1.
         13    1    1    2    0    0  0.49294330126E+02  0.35001410010E+02  0.23987798446E+03  0.24737923978E+03  0.10566000000E+00 0. -1.
         -4    1    1    2    0  502 -0.21127410984E+02 -0.13122211699E+02  0.28280928678E+02  0.37661264738E+02  0.00000000000E+00 0. -1.
</event>
<event>
 5    1  0.6336319E-005  0.2369122E+03  0.7818608E-02  0.1037407E+00
         21   -1    0    0  501  502  0.00000000000E+00  0.00000000000E+00  0.76648091193E+03  0.76648091193E+03  0.00000000000E+00 0.  1.
          4   -1    0    0  502    0 -0.00000000000E+00 -0.00000000000E+00 -0.32995028263E+03  0.32995028263E+03  0.00000000000E+00 0.  1.
        -13    1    1    2    0    0 -0.33865660974E+03  0.30723244616E+02 -0.34746903310E+02  0.34181804448E+03  0.10566000000E+00 0.  1.
         13    1    1    2    0    0  0.18103713053E+03 -0.63596275663E+02 -0.58745393466E+02  0.20067376840E+03  0.10566000000E+00 0. -1.
          4    1    1    2  501    0  0.15761947921E+03  0.32873031047E+02  0.53002292608E+03  0.55393938167E+03  0.00000000000E+00 0.  1.
</event>
<event>
 5    1  0.6336319E-005  0.8711698E+03  0.7818608E-02  0.8906080E-01
         -4   -1    0    0    0  501 -0.00000000000E+00  0.00000000000E+00  0.17654257077E+04  0.17654257077E+04  0.00000000000E+00 0. -1.
         21   -1    0    0  501  502  0.00000000000E+00 -0.00000000000E+00 -0.74279775459E+03  0.74279775459E+03  0.00000000000E+00 0. -1.
        -13    1    1    2    0    0 -0.86568190187E+03 -0.71268140762E+02  0.75741367447E+03  0.11524581505E+04  0.10566000000E+00 0.  1.
         13    1    1    2    0    0  0.87302735758E+03 -0.29985997082E+03  0.32732288008E+03  0.97940443545E+03  0.10566000000E+00 0. -1.
         -4    1    1    2    0  502 -0.73454557072E+01  0.37112811159E+03 -0.62108601406E+02  0.37636087642E+03  0.00000000000E+00 0. -1.
</event>
<event>
 5    1  0.6336319E-005  0.2163815E+03  0.7818608E-02  0.1049451E+00
          4   -1    0    0  502    0 -0.00000000000E+00  0.00000000000E+00  0.31407253033E+04  0.31407253033E+04  0.00000000000E+00 0.  1.
         21   -1    0    0  501  502  0.00000000000E+00 -0.00000000000E+00 -0.14634041986E+03  0.14634041986E+03  0.00000000000E+00 0.  1.
        -13    1    1    2    0    0 -0.18072643221E+03 -0.19055972470E+02 -0.70456750198E+02  0.19490853804E+03  0.10566000000E+00 0.  1.
         13    1    1    2    0    0  0.21641666148E+03  0.39238799139E+02  0.88471209252E+03  0.91164211868E+03  0.10566000000E+00 0. -1.
          4    1    1    2  501    0 -0.35690229263E+02 -0.20182826669E+02  0.21801295411E+04  0.21805150664E+04  0.00000000000E+00 0.  1.
</event>
<event>
 5    1  0.6336319E-005  0.1168004E+03  0.7818608E-02  0.1170719E+00
         -4   -1    0    0    0  501 -0.00000000000E+00  0.00000000000E+00  0.17006069184E+04  0.17006069184E+04  0.00000000000E+00 0. -1.
         21   -1    0    0  501  502  0.00000000000E+00 -0.00000000000E+00 -0.37906833759E+03  0.37906833759E+03  0.00000000000E+00 0. -1.
        -13    1    1    2    0    0 -0.16986487601E+03 -0.24354151194E+02  0.10043532943E+04  0.10189076267E+04  0.10566000000E+00 0.  1.
         13    1    1    2    0    0 -0.61354528979E+02 -0.49052407279E+02 -0.34589556725E+03  0.35470307511E+03  0.10566000000E+00 0. -1.
         -4    1    1    2    0  502  0.23121940499E+03  0.73406558473E+02  0.66308085371E+03  0.70606455414E+03  0.00000000000E+00 0. -1.
</event>
<event>
 5    1  0.6336319E-005  0.4930394E+03  0.7818608E-02  0.9804499E-01
          4   -1    0    0  502    0 -0.00000000000E+00  0.00000000000E+00  0.10788474887E+04  0.10788474887E+04  0.00000000000E+00 0.  1.
         21   -1    0    0  501  502  0.00000000000E+00 -0.00000000000E+00 -0.10244951742E+04  0.10244951742E+04  0.00000000000E+00 0.  1.
        -13    1    1    2    0    0  0.47886233315E+02 -0.51712535714E+03 -0.58089628324E+03  0.77919973651E+03  0.10566000000E+00 0.  1.
         13    1    1    2    0    0  0.13784012790E+03  0.90341405371E+02  0.81028366083E+03  0.82687429066E+03  0.10566000000E+00 0. -1.
          4    1    1    2  501    0 -0.18572636121E+03  0.42678395177E+03 -0.17503506316E+03  0.49726863572E+03  0.00000000000E+00 0.  1.
</event>
<event>
 5    1  0.6336319E-005  0.4139545E+03  0.7818608E-02  0.9689587E-01
         -4   -1    0    0    0  501 -0.00000000000E+00  0.00000000000E+00  0.98459661678E+03  0.98459661678E+03  0.00000000000E+00 0. -1.
         21   -1    0    0  501  502  0.00000000000E+00 -0.00000000000E+00 -0.91168844814E+03  0.91168844814E+03  0.00000000000E+00 0. -1.
        -13    1    1    2    0    0  0.31151101743E+03  0.24935991838E+03  0.55974332458E+03  0.68740969112E+03  0.10566000000E+00 0.  1.
         13    1    1    2    0    0 -0.32653621825E+03 -0.53275367980E+03 -0.63316519272E+03  0.88957886531E+03  0.10566000000E+00 0. -1.
         -4    1    1    2    0  502  0.15025200821E+02  0.28339376142E+03  0.14633003678E+03  0.31929650849E+03  0.00000000000E+00 0. -1.
</event>
<event>
 5    1  0.6336319E-005  0.4677403E+03  0.7818608E-02  0.9754649E-01
         21   -1    0    0  501  502  0.00000000000E+00  0.00000000000E+00  0.51378650389E+03  0.51378650389E+03  0.00000000000E+00 0.  1.
          4   -1    0    0  502    0 -0.00000000000E+00 -0.00000000000E+00 -0.94252433330E+03  0.94252433330E+03  0.00000000000E+00 0.  1.
        -13    1    1    2    0    0 -0.23980419304E+03 -0.41461093073E+03  0.15418490140E+03  0.50317121327E+03  0.10566000000E+00 0.  1.
         13    1    1    2    0    0  0.21925390785E+03 -0.66069061293E+02 -0.35086706504E+03  0.41898103234E+03  0.10566000000E+00 0. -1.
          4    1    1    2  501    0  0.20550285191E+02  0.48067999202E+03 -0.23205566576E+03  0.53415859158E+03  0.00000000000E+00 0.  1.
</event>
<event>
 5    1  0.6336319E-005  0.2547928E+03  0.7818608E-02  0.1027939E+00
          4   -1    0    0  502    0 -0.00000000000E+00  0.00000000000E+00  0.18730291693E+04  0.18730291693E+04  0.00000000000E+00 0.  1.
         21   -1    0    0  501  502  0.00000000000E+00 -0.00000000000E+00 -0.56414433528E+02  0.56414433528E+02  0.00000000000E+00 0. -1.
        -13    1    1    2    0    0  0.24121718381E+03 -0.36405976258E+02  0.35823829906E+03  0.43341183065E+03  0.10566000000E+00 0.  1.
         13    1    1    2    0    0 -0.25638342797E+03  0.29713482299E+02  0.14566790816E+04  0.14793678755E+04  0.10566000000E+00 0. -1.
          4    1    1    2  501    0  0.15166244156E+02  0.66924939591E+01  0.16973551016E+01  0.16663896649E+02  0.00000000000E+00 0.  1.
</event>
<event>
 5    1  0.6336319E-005  0.2143246E+03  0.7818608E-02  0.1050736E+00
         21   -1    0    0  501  502  0.00000000000E+00  0.00000000000E+00  0.34515794928E+03  0.34515794928E+03  0.00000000000E+00 0.  1.
         -4   -1    0    0    0  501 -0.00000000000E+00 -0.00000000000E+00 -0.18839517509E+03  0.18839517509E+03  0.00000000000E+00 0. -1.
        -13    1    1    2    0    0  0.10161198114E+03 -0.20850482899E+03  0.64758365378E+02  0.24081718268E+03  0.10566000000E+00 0.  1.
         13    1    1    2    0    0 -0.10058517331E+03  0.17561418203E+03  0.80246200426E+01  0.20253919056E+03  0.10566000000E+00 0. -1.
         -4    1    1    2    0  502 -0.10268078227E+01  0.32890646956E+02  0.83979788769E+02  0.90196751124E+02  0.00000000000E+00 0. -1.
</event>
<event>
 5    1  0.6336319E-005  0.4276772E+03  0.7818608E-02  0.9684324E-01
         21   -1    0    0  501  502  0.00000000000E+00  0.00000000000E+00  0.25326896432E+03  0.25326896432E+03  0.00000000000E+00 0.  1.
          4   -1    0    0  502    0 -0.00000000000E+00 -0.00000000000E+00 -0.17507337868E+04  0.17507337868E+04  0.00000000000E+00 0.  1.
        -13    1    1    2    0    0  0.24183570081E+03  0.19872194886E+03 -0.62269805617E+03  0.69694174755E+03  0.10566000000E+00 0.  1.
         13    1    1    2    0    0 -0.14911382398E+03  0.35205700648E+03 -0.51983770330E+03  0.64529862641E+03  0.10566000000E+00 0. -1.
          4    1    1    2  501    0 -0.92721876833E+02 -0.55077895534E+03 -0.35492906304E+03  0.66176237720E+03  0.00000000000E+00 0.  1.
</event>
<event>
 5    1  0.6336319E-005  0.4206876E+03  0.7818608E-02  0.9671131E-01
         21   -1    0    0  501  502  0.00000000000E+00  0.00000000000E+00  0.66330507056E+03  0.66330507056E+03  0.00000000000E+00 0.  1.
          4   -1    0    0  502    0 -0.00000000000E+00 -0.00000000000E+00 -0.74567516838E+03  0.74567516838E+03  0.00000000000E+00 0.  1.
        -13    1    1    2    0    0 -0.41166743145E+03 -0.10247186177E+03 -0.47861769027E+03  0.63956661981E+03  0.10566000000E+00 0.  1.
         13    1    1    2    0    0  0.39585909650E+03  0.10990550212E+03  0.40041656228E+02  0.41277958897E+03  0.10566000000E+00 0. -1.
          4    1    1    2  501    0  0.15808334955E+02 -0.74336403492E+01  0.35620593622E+03  0.35663403015E+03  0.00000000000E+00 0.  1.
</event>
<event>
 5    1  0.6336319E-005  0.1032729E+03  0.7818608E-02  0.1159251E+00
         21   -1    0    0  501  502  0.00000000000E+00  0.00000000000E+00  0.14026352295E+03  0.14026352295E+03  0.00000000000E+00 0. -1.
         -4   -1    0    0    0  501 -0.00000000000E+00 -0.00000000000E+00 -0.19247894920E+03  0.19247894920E+03  0.00000000000E+00 0. -1.
        -13    1    1    2    0    0 -0.77974399939E+02 -0.64215786912E+02 -0.12961272674E+03  0.16432633518E+03  0.10566000000E+00 0.  1.
         13    1    1    2    0    0  0.75226164475E+02  0.92345722873E+02  0.73303038966E+02  0.13985726667E+03  0.10566000000E+00 0. -1.
         -4    1    1    2    0  502  0.27482354643E+01 -0.28129935962E+02  0.40942615302E+01  0.28558870301E+02  0.00000000000E+00 0. -1.
</event>
<event>
 5    1  0.6336319E-005  0.4783260E+02  0.7818608E-02  0.1300874E+00
         21   -1    0    0  501  502  0.00000000000E+00  0.00000000000E+00  0.15703041439E+03  0.15703041439E+03  0.00000000000E+00 0.  1.
          4   -1    0    0  502    0 -0.00000000000E+00 -0.00000000000E+00 -0.21737466934E+03  0.21737466934E+03  0.00000000000E+00 0.  1.
        -13    1    1    2    0    0 -0.57892117028E+02 -0.10065427672E+02 -0.11288398228E+03  0.12726199224E+03  0.10566000000E+00 0.  1.
         13    1    1    2    0    0  0.35664188257E+02  0.22789622987E+02 -0.91515584380E+02  0.10082863972E+03  0.10566000000E+00 0. -1.
          4    1    1    2  501    0  0.22227928771E+02 -0.12724195315E+02  0.14405531171E+03  0.14631445177E+03  0.00000000000E+00 0.  1.
</event>
<event>
 5    1  0.6336319E-005  0.2580607E+03  0.7818608E-02  0.1026298E+00
         21   -1    0    0  501  502  0.00000000000E+00  0.00000000000E+00  0.40128776477E+02  0.40128776477E+02  0.00000000000E+00 0.  1.
         -4   -1    0    0    0  501 -0.00000000000E+00 -0.00000000000E+00 -0.21381013365E+04  0.21381013365E+04  0.00000000000E+00 0. -1.
        -13    1    1    2    0    0  0.53273079911E+02 -0.25680751848E+03 -0.10940562189E+04  0.11250542849E+04  0.10566000000E+00 0.  1.
         13    1    1    2    0    0 -0.19532163236E+02  0.25395564572E+03 -0.97775410734E+03  0.10103851152E+04  0.10566000000E+00 0. -1.
         -4    1    1    2    0  502 -0.33740916675E+02  0.28518727635E+01 -0.26162233741E+02  0.42790712902E+02  0.00000000000E+00 0. -1.
</event>
<event>
 5    1  0.6336319E-005  0.4802015E+03  0.7818608E-02  0.9786796E-01
         21   -1    0    0  501  502  0.00000000000E+00  0.00000000000E+00  0.44581181823E+03  0.44581181823E+03  0.00000000000E+00 0. -1.
         -4   -1    0    0    0  501 -0.00000000000E+00 -0.00000000000E+00 -0.85782587836E+03  0.85782587836E+03  0.00000000000E+00 0. -1.
        -13    1    1    2    0    0  0.78738053475E+02  0.17237389361E+03 -0.22610849704E+03  0.29502119223E+03  0.10566000000E+00 0.  1.
         13    1    1    2    0    0 -0.52577745408E+03 -0.89271357630E+02 -0.14150228957E+03  0.55175557599E+03  0.10566000000E+00 0. -1.
         -4    1    1    2    0  502  0.44703940061E+03 -0.83102535982E+02 -0.44403273517E+02  0.45686092838E+03  0.00000000000E+00 0. -1.
</event>
<event>
 5    1  0.6336319E-005  0.1073031E+03  0.7818608E-02  0.1153007E+00
         -4   -1    0    0    0  501 -0.00000000000E+00  0.00000000000E+00  0.12790723160E+03  0.12790723160E+03  0.00000000000E+00 0. -1.
         21   -1    0    0  501  502  0.00000000000E+00 -0.00000000000E+00 -0.34242132266E+03  0.34242132266E+03  0.00000000000E+00 0.  1.
        -13    1    1    2    0    0  0.14771632768E+03  0.12511169419E+01 -0.17316944108E+03  0.22761666293E+03  0.10566000000E+00 0.  1.
         13    1    1    2    0    0 -0.85322413403E+02 -0.59908911389E+02  0.51603820364E+02  0.11632694156E+03  0.10566000000E+00 0. -1.
         -4    1    1    2    0  502 -0.62393914274E+02  0.58657794448E+02 -0.92948470342E+02  0.12638494976E+03  0.00000000000E+00 0. -1.
</event>
<event>
 5    1  0.6336319E-005  0.3951591E+03  0.7818608E-02  0.9797999E-01
          4   -1    0    0  502    0 -0.00000000000E+00  0.00000000000E+00  0.34393258457E+04  0.34393258457E+04  0.00000000000E+00 0.  1.
         21   -1    0    0  501  502  0.00000000000E+00 -0.00000000000E+00 -0.28932755127E+03  0.28932755127E+03  0.00000000000E+00 0. -1.
        -13    1    1    2    0    0  0.28353802213E+03 -0.78467664215E+02  0.12708123637E+04  0.13044213503E+04  0.10566000000E+00 0.  1.
         13    1    1    2    0    0 -0.39667506350E+03  0.49766668206E+03  0.18854790388E+04  0.19899885551E+04  0.10566000000E+00 0. -1.
          4    1    1    2  501    0  0.11313704137E+03 -0.41919901785E+03 -0.62931081374E+01  0.43424349149E+03  0.00000000000E+00 0.  1.
</event>
<event>
 5    1  0.1136025E-004  0.1631524E+03  0.7818608E-02  0.1121696E+00
         -4   -1    0    0    0  501 -0.00000000000E+00  0.00000000000E+00  0.29536124413E+03  0.29536124413E+03  0.00000000000E+00 0. -1.
         21   -1    0    0  501  502  0.00000000000E+00 -0.00000000000E+00 -0.11269108485E+04  0.11269108485E+04  0.00000000000E+00 0. -1.
        -13    1    1    2    0    0  0.35399302592E+02  0.57481416511E+02  0.49635936431E+02  0.83791176251E+02  0.10566000000E+00 0.  1.
         13    1    1    2    0    0 -0.54480366084E+02 -0.21784208791E+03  0.16579056303E+03  0.27912328370E+03  0.10566000000E+00 0. -1.
         -4    1    1    2    0  502  0.19081063492E+02  0.16036067140E+03 -0.10469761038E+04  0.10593576327E+04  0.00000000000E+00 0. -1.
</event>
<event>
 5    1  0.6336319E-005  0.3334426E+03  0.7818608E-02  0.9943853E-01
         21   -1    0    0  501  502  0.00000000000E+00  0.00000000000E+00  0.45676504973E+03  0.45676504973E+03  0.00000000000E+00 0. -1.
          4   -1    0    0  502    0 -0.00000000000E+00 -0.00000000000E+00 -0.36672869111E+03  0.36672869111E+03  0.00000000000E+00 0.  1.
        -13    1    1    2    0    0 -0.34369516011E+03  0.49368101341E+02 -0.15538698539E+03  0.38040596591E+03  0.10566000000E+00 0.  1.
         13    1    1    2    0    0  0.28765283461E+03 -0.70586995932E+02  0.24300138807E+03  0.38311403397E+03  0.10566000000E+00 0. -1.
          4    1    1    2  501    0  0.56042325494E+02  0.21218894590E+02  0.24219559394E+01  0.59973740962E+02  0.00000000000E+00 0.  1.
</event>
<event>
 5    1  0.6336319E-005  0.1157926E+03  0.7818608E-02  0.1155728E+00
         -4   -1    0    0    0  501 -0.00000000000E+00  0.00000000000E+00  0.15847835262E+04  0.15847835262E+04  0.00000000000E+00 0. -1.
         21   -1    0    0  501  502  0.00000000000E+00 -0.00000000000E+00 -0.18818343225E+02  0.18818343225E+02  0.00000000000E+00 0. -1.
        -13    1    1    2    0    0 -0.74795974001E+02  0.27990951113E+02  0.19468922683E+03  0.21043250053E+03  0.10566000000E+00 0.  1.
         13    1    1    2    0    0  0.38447415437E+01 -0.12501435515E+03  0.75326221484E+03  0.76357537055E+03  0.10566000000E+00 0. -1.
         -4    1    1    2    0  502  0.70951232457E+02  0.97023404041E+02  0.61801374128E+03  0.62959399833E+03  0.00000000000E+00 0. -1.
</event>
<event>
 5    1  0.6336319E-005  0.4940116E+03  0.7818608E-02  0.1014224E+00
         21   -1    0    0  501  502  0.00000000000E+00  0.00000000000E+00  0.38391537860E+03  0.38391537860E+03  0.00000000000E+00 0.  1.
          4   -1    0    0  502    0 -0.00000000000E+00 -0.00000000000E+00 -0.73835675007E+03  0.73835675007E+03  0.00000000000E+00 0.  1.
        -13    1    1    2    0    0  0.24247882756E+03 -0.45748955180E+03 -0.70445797513E+02  0.52254692935E+03  0.10566000000E+00 0.  1.
         13    1    1    2    0    0 -0.16347278012E+02  0.51265741734E+02 -0.68992842778E+02  0.87495332976E+02  0.10566000000E+00 0. -1.
          4    1    1    2  501    0 -0.22613154955E+03  0.40622381006E+03 -0.21500273117E+03  0.51222986635E+03  0.00000000000E+00 0.  1.
</event>
<event>
 5    1  0.6336319E-005  0.2500464E+03  0.7818608E-02  0.1030369E+00
         21   -1    0    0  501  502  0.00000000000E+00  0.00000000000E+00  0.46420081032E+03  0.46420081032E+03  0.00000000000E+00 0. -1.
          4   -1    0    0  502    0 -0.00000000000E+00 -0.00000000000E+00 -0.67852800767E+03  0.67852800767E+03  0.00000000000E+00 0.  1.
        -13    1    1    2    0    0 -0.12229691139E+02 -0.25109724360E+03 -0.53560869199E+03  0.59167226839E+03  0.10566000000E+00 0.  1.
         13    1    1    2    0    0  0.28628628625E+01  0.24393086789E+03  0.14851149480E+02  0.24439932917E+03  0.10566000000E+00 0. -1.
          4    1    1    2  501    0  0.93668282761E+01  0.71663757132E+01  0.30643034516E+03  0.30665722044E+03  0.00000000000E+00 0.  1.
</event>
<event>
 5    1  0.6336319E-005  0.4863528E+03  0.7818608E-02  0.9683228E-01
         -4   -1    0    0    0  501 -0.00000000000E+00  0.00000000000E+00  0.23939893184E+03  0.23939893184E+03  0.00000000000E+00 0. -1.
         21   -1    0    0  501  502  0.00000000000E+00 -0.00000000000E+00 -0.19226026010E+04  0.19226026010E+04  0.00000000000E+00 0. -1.
        -13    1    1    2    0    0 -0.24726536870E+03  0.83476326677E+02 -0.10603003228E+03  0.28169280889E+03  0.10566000000E+00 0.  1.
         13    1    1    2    0    0 -0.33970373961E+03 -0.56392891653E+02 -0.24002849262E+03  0.41975287655E+03  0.10566000000E+00 0. -1.
         -4    1    1    2    0  502  0.58696910831E+03 -0.27083435024E+02 -0.13371451443E+04  0.14605558474E+04  0.00000000000E+00 0. -1.
</event>
<event>
 5    1  0.6336319E-005  0.6454949E+03  0.7818608E-02  0.9206032E-01
         21   -1    0    0  501  502  0.00000000000E+00  0.00000000000E+00  0.44742410171E+03  0.44742410171E+03  0.00000000000E+00 0. -1.
         -4   -1    0    0    0  501 -0.00000000000E+00 -0.00000000000E+00 -0.24316384976E+04  0.24316384976E+04  0.00000000000E+00 0. -1.
        -13    1    1    2    0    0 -0.49363464487E+03 -0.54482544059E+03 -0.11603006581E+04  0.13736111355E+04  0.10566000000E+00 0.  1.
         13    1    1    2    0    0 -0.25146430875E+02  0.54858014216E+03 -0.21055619162E+02  0.54955970159E+03  0.10566000000E+00 0. -1.
         -4    1    1    2    0  502  0.51878107575E+03 -0.37547015697E+01 -0.80285811861E+03  0.95589176216E+03  0.00000000000E+00 0. -1.
</event>
<event>
 5    1  0.6336319E-005  0.4565325E+03  0.7818608E-02  0.9578698E-01
         21   -1    0    0  501  502  0.00000000000E+00  0.00000000000E+00  0.55527323149E+03  0.55527323149E+03  0.00000000000E+00 0. -1.
         -4   -1    0    0    0  501 -0.00000000000E+00 -0.00000000000E+00 -0.11684689330E+04  0.11684689330E+04  0.00000000000E+00 0. -1.
        -13    1    1    2    0    0  0.33728123986E+03  0.38752341916E+03 -0.33647746075E+03  0.61412549851E+03  0.10566000000E+00 0.  1.
         13    1    1    2    0    0  0.47867332073E+02 -0.41554563334E+03  0.22620309209E+03  0.47553896255E+03  0.10566000000E+00 0. -1.
         -4    1    1    2    0  502 -0.38514857193E+03  0.28022214174E+02 -0.50292133282E+03  0.63407770340E+03  0.00000000000E+00 0. -1.
</event>
<event>
 5    1  0.6336319E-005  0.2125307E+03  0.7818608E-02  0.1051869E+00
         21   -1    0    0  501  502  0.00000000000E+00  0.00000000000E+00  0.99485349403E+03  0.99485349403E+03  0.00000000000E+00 0.  1.
          4   -1    0    0  502    0 -0.00000000000E+00 -0.00000000000E+00 -0.42916777166E+03  0.42916777166E+03  0.00000000000E+00 0.  1.
        -13    1    1    2    0    0  0.18454930658E+03  0.98023005052E+02 -0.33969572179E+03  0.39882345799E+03  0.10566000000E+00 0.  1.
         13    1    1    2    0    0 -0.18675654978E+03 -0.17029663900E+03  0.21726053259E+03  0.33328832012E+03  0.10566000000E+00 0. -1.
          4    1    1    2  501    0  0.22072432060E+01  0.72273633945E+02  0.68812091156E+03  0.69190948759E+03  0.00000000000E+00 0.  1.
</event>
<event>
 5    1  0.6336319E-005  0.5512902E+03  0.7818608E-02  0.9479126E-01
         21   -1    0    0  501  502  0.00000000000E+00  0.00000000000E+00  0.57795348293E+03  0.57795348293E+03  0.00000000000E+00 0.  1.
         -4   -1    0    0    0  501 -0.00000000000E+00 -0.00000000000E+00 -0.24764315018E+04  0.24764315018E+04  0.00000000000E+00 0. -1.
        -13    1    1    2    0    0  0.27257105043E+03  0.74034736684E+03 -0.15335183677E+04  0.17245543762E+04  0.10566000000E+00 0.  1.
         13    1    1    2    0    0  0.87812084890E+01 -0.26625683994E+03 -0.65485303133E+03  0.70696698526E+03  0.10566000000E+00 0. -1.
         -4    1    1    2    0  502 -0.28135225892E+03 -0.47409052690E+03  0.28989338021E+03  0.62286362326E+03  0.00000000000E+00 0. -1.
</event>
<event>
 5    1  0.6336319E-005  0.4539569E+03  0.7818608E-02  0.9959487E-01
         21   -1    0    0  501  502  0.00000000000E+00  0.00000000000E+00  0.23119330744E+03  0.23119330744E+03  0.00000000000E+00 0.  1.
          4   -1    0    0  502    0 -0.00000000000E+00 -0.00000000000E+00 -0.13914969598E+04  0.13914969598E+04  0.00000000000E+00 0.  1.
        -13    1    1    2    0    0 -0.16261783306E+03 -0.39598239640E+03 -0.24309060918E+03  0.49228007610E+03  0.10566000000E+00 0.  1.
         13    1    1    2    0    0 -0.11711863067E+03 -0.45030640601E+02 -0.99442334731E+02  0.16010409534E+03  0.10566000000E+00 0. -1.
          4    1    1    2  501    0  0.27973646374E+03  0.44101303700E+03 -0.81777070842E+03  0.97030609578E+03  0.00000000000E+00 0.  1.
</event>
<event>
 5    1  0.6336319E-005  0.4658484E+03  0.7818608E-02  0.9746678E-01
          4   -1    0    0  502    0 -0.00000000000E+00  0.00000000000E+00  0.22804771883E+04  0.22804771883E+04  0.00000000000E+00 0.  1.
         21   -1    0    0  501  502  0.00000000000E+00 -0.00000000000E+00 -0.19337204822E+03  0.19337204822E+03  0.00000000000E+00 0.  1.
        -13    1    1    2    0    0 -0.51796592750E+03  0.13172739259E+03  0.36810821912E+03  0.64895645475E+03  0.10566000000E+00 0.  1.
         13    1    1    2    0    0  0.22388382352E+03  0.81488805637E+02  0.85664553819E+03  0.88916026741E+03  0.10566000000E+00 0. -1.
          4    1    1    2  501    0  0.29408210399E+03 -0.21321619822E+03  0.86235138276E+03  0.93573251435E+03  0.00000000000E+00 0.  1.
</event>
<event>
 5    1  0.6336319E-005  0.1036660E+04  0.7818608E-02  0.8740889E-01
         21   -1    0    0  501  502  0.00000000000E+00  0.00000000000E+00  0.13423215020E+04  0.13423215020E+04  0.00000000000E+00 0. -1.
          4   -1    0    0  502    0 -0.00000000000E+00 -0.00000000000E+00 -0.10569763153E+04  0.10569763153E+04  0.00000000000E+00 0.  1.
        -13    1    1    2    0    0 -0.80015448412E+03  0.59669668744E+03  0.34601387527E+03  0.10564183586E+04  0.10566000000E+00 0.  1.
         13    1    1    2    0    0  0.83689773067E+03 -0.64856894768E+03 -0.29577744649E+03  0.10993287955E+04  0.10566000000E+00 0. -1.
          4    1    1    2  501    0 -0.36743246558E+02  0.51872260239E+02  0.23510875786E+03  0.24355066326E+03  0.00000000000E+00 0.  1.
</event>
<event>
 5    1  0.6336319E-005  0.4578413E+02  0.7818608E-02  0.1309975E+00
         21   -1    0    0  501  502  0.00000000000E+00  0.00000000000E+00  0.78652314431E+03  0.78652314431E+03  0.00000000000E+00 0. -1.
         -4   -1    0    0    0  501 -0.00000000000E+00 -0.00000000000E+00 -0.60174919234E+02  0.60174919234E+02  0.00000000000E+00 0. -1.
        -13    1    1    2    0    0 -0.32470906805E+02  0.11153703122E+02  0.83488070619E+02  0.90271999988E+02  0.10566000000E+00 0.  1.
         13    1    1    2    0    0  0.46579294273E+02 -0.71911207643E+01 -0.46911686233E+02  0.66498573985E+02  0.10566000000E+00 0. -1.
         -4    1    1    2    0  502 -0.14108387468E+02 -0.39625823574E+01  0.68977184069E+03  0.68992748957E+03  0.00000000000E+00 0. -1.
</event>
<event>
 5    1  0.6336319E-005  0.3993139E+03  0.7818608E-02  0.9731029E-01
         21   -1    0    0  501  502  0.00000000000E+00  0.00000000000E+00  0.16481178712E+03  0.16481178712E+03  0.00000000000E+00 0.  1.
          4   -1    0    0  502    0 -0.00000000000E+00 -0.00000000000E+00 -0.37965816098E+04  0.37965816098E+04  0.00000000000E+00 0.  1.
        -13    1    1    2    0    0 -0.18130663266E+03  0.44888904796E+03 -0.17887872585E+04  0.18531414786E+04  0.10566000000E+00 0.  1.
         13    1    1    2    0    0  0.27219772024E+03 -0.24686074454E+03 -0.18504600733E+04  0.18865933107E+04  0.10566000000E+00 0. -1.
          4    1    1    2  501    0 -0.90891087587E+02 -0.20202830342E+03  0.74775090681E+01  0.22165860761E+03  0.00000000000E+00 0.  1.
</event>
<event>
 5    1  0.6336319E-005  0.5377809E+02  0.7818608E-02  0.1277127E+00
         21   -1    0    0  501  502  0.00000000000E+00  0.00000000000E+00  0.26128383320E+03  0.26128383320E+03  0.00000000000E+00 0.  1.
          4   -1    0    0  502    0 -0.00000000000E+00 -0.00000000000E+00 -0.80626244344E+02  0.80626244344E+02  0.00000000000E+00 0.  1.
        -13    1    1    2    0    0  0.31558660970E+02 -0.36735247649E+02 -0.30481340350E+02  0.57223690685E+02  0.10566000000E+00 0.  1.
         13    1    1    2    0    0 -0.61315142961E+02  0.34511667757E+02 -0.10909648469E+01  0.70369050981E+02  0.10566000000E+00 0. -1.
          4    1    1    2  501    0  0.29756481991E+02  0.22235798928E+01  0.21222989405E+03  0.21431733587E+03  0.00000000000E+00 0.  1.
</event>
<event>
 5    1  0.6336319E-005  0.4626496E+03  0.7818608E-02  0.9727152E-01
         21   -1    0    0  501  502  0.00000000000E+00  0.00000000000E+00  0.24620562828E+03  0.24620562828E+03  0.00000000000E+00 0.  1.
          4   -1    0    0  502    0 -0.00000000000E+00 -0.00000000000E+00 -0.17155413489E+04  0.17155413489E+04  0.00000000000E+00 0.  1.
        -13    1    1    2    0    0 -0.31119572775E+03 -0.42667870133E+03 -0.32318997941E+03  0.61915205652E+03  0.10566000000E+00 0.  1.
         13    1    1    2    0    0  0.18919048713E+01  0.26020746343E+03 -0.18499859865E+03  0.31927417057E+03  0.10566000000E+00 0. -1.
          4    1    1    2  501    0  0.30930382288E+03  0.16647123790E+03 -0.96114714253E+03  0.10233207501E+04  0.00000000000E+00 0.  1.
</event>
<event>
 5    1  0.6336319E-005  0.4908066E+03  0.7818608E-02  0.9627733E-01
         -4   -1    0    0    0  501 -0.00000000000E+00  0.00000000000E+00  0.18481400488E+04  0.18481400488E+04  0.00000000000E+00 0. -1.
         21   -1    0    0  501  502  0.00000000000E+00 -0.00000000000E+00 -0.79390930134E+03  0.79390930134E+03  0.00000000000E+00 0. -1.
        -13    1    1    2    0    0  0.29049373285E+03 -0.10426698307E+03  0.14831923626E+04  0.15149646227E+04  0.10566000000E+00 0.  1.
         13    1    1    2    0    0 -0.65875333585E+03  0.99034790770E+02 -0.34130407513E+03  0.74850005353E+03  0.10566000000E+00 0. -1.
         -4    1    1    2    0  502  0.36825960300E+03  0.52321923017E+01 -0.87657539920E+02  0.37858467394E+03  0.00000000000E+00 0. -1.
</event>
<event>
 5    1  0.6336319E-005  0.3994075E+03  0.7818608E-02  0.9730759E-01
         21   -1    0    0  501  502  0.00000000000E+00  0.00000000000E+00  0.32621140712E+03  0.32621140712E+03  0.00000000000E+00 0.  1.
          4   -1    0    0  502    0 -0.00000000000E+00 -0.00000000000E+00 -0.14514663643E+04  0.14514663643E+04  0.00000000000E+00 0.  1.
        -13    1    1    2    0    0 -0.92922743540E+02  0.57256055693E+03 -0.78390489834E+03  0.97517543470E+03  0.10566000000E+00 0.  1.
         13    1    1    2    0    0  0.86466046315E+02 -0.29302722010E+03 -0.41313126200E+03  0.51382757778E+03  0.10566000000E+00 0. -1.
          4    1    1    2  501    0  0.64566972249E+01 -0.27953333684E+03  0.71781203133E+02  0.28867475897E+03  0.00000000000E+00 0.  1.
</event>
<event>
 5    1  0.6336319E-005  0.3941339E+03  0.7818608E-02  0.9746142E-01
         -4   -1    0    0    0  501 -0.00000000000E+00  0.00000000000E+00  0.53391989588E+03  0.53391989588E+03  0.00000000000E+00 0. -1.
         21   -1    0    0  501  502  0.00000000000E+00 -0.00000000000E+00 -0.71695416815E+03  0.71695416815E+03  0.00000000000E+00 0. -1.
        -13    1    1    2    0    0  0.17530421964E+02 -0.37452773466E+03 -0.88880824913E+02  0.38532862848E+03  0.10566000000E+00 0.  1.
         13    1    1    2    0    0  0.10052031308E+02  0.43324253793E+03 -0.37758880944E+03  0.57478122811E+03  0.10566000000E+00 0. -1.
         -4    1    1    2    0  502 -0.27582453272E+02 -0.58714803269E+02  0.28343536209E+03  0.29076420745E+03  0.00000000000E+00 0. -1.
</event>
<event>
 5    1  0.6336319E-005  0.3703860E+02  0.7818608E-02  0.1368798E+00
         -4   -1    0    0    0  501 -0.00000000000E+00  0.00000000000E+00  0.10300534413E+03  0.10300534413E+03  0.00000000000E+00 0. -1.
         21   -1    0    0  501  502  0.00000000000E+00 -0.00000000000E+00 -0.12064122826E+04  0.12064122826E+04  0.00000000000E+00 0. -1.
        -13    1    1    2    0    0  0.51132530218E+02  0.53220504586E+02 -0.35509229404E+03  0.36268099786E+03  0.10566000000E+00 0.  1.
         13    1    1    2    0    0 -0.25436122557E+02 -0.20633317350E+02  0.95984201600E+02  0.10141848074E+03  0.10566000000E+00 0. -1.
         -4    1    1    2    0  502 -0.25696407661E+02 -0.32587187236E+02 -0.84429884605E+03  0.84531814814E+03  0.00000000000E+00 0. -1.
</event>
<event>
 5    1  0.1029026E-004  0.7106735E+03  0.7818608E-02  0.9107637E-01
         21   -1    0    0  501  502  0.00000000000E+00  0.00000000000E+00  0.72084092488E+03  0.72084092488E+03  0.00000000000E+00 0. -1.
          4   -1    0    0  502    0 -0.00000000000E+00 -0.00000000000E+00 -0.18177524702E+04  0.18177524702E+04  0.00000000000E+00 0.  1.
        -13    1    1    2    0    0 -0.52086984451E+03  0.31219696414E+03  0.37677701868E+02  0.60843402249E+03  0.10566000000E+00 0.  1.
         13    1    1    2    0    0  0.12911234606E+03 -0.85656857057E+03 -0.80635831969E+03  0.11834667147E+04  0.10566000000E+00 0. -1.
          4    1    1    2  501    0  0.39175749846E+03  0.54437160643E+03 -0.32823092746E+03  0.74669265781E+03  0.00000000000E+00 0.  1.
</event>
<event>
 5    1  0.6689429E-005  0.3076828E+03  0.7818608E-02  0.1056507E+00
         -4   -1    0    0    0  501 -0.00000000000E+00  0.00000000000E+00  0.58225895689E+03  0.58225895689E+03  0.00000000000E+00 0. -1.
         21   -1    0    0  501  502  0.00000000000E+00 -0.00000000000E+00 -0.51507355502E+03  0.51507355502E+03  0.00000000000E+00 0. -1.
        -13    1    1    2    0    0  0.28798414131E+02  0.53873123635E+02  0.57814142217E+02  0.84107956289E+02  0.10566000000E+00 0.  1.
         13    1    1    2    0    0 -0.16526963389E+03 -0.32258320061E+03  0.38689834876E+03  0.53015499303E+03  0.10566000000E+00 0. -1.
         -4    1    1    2    0  502  0.13647121976E+03  0.26871007698E+03 -0.37752708911E+03  0.48306956259E+03  0.00000000000E+00 0. -1.
</event>
<event>
 5    1  0.6336319E-005  0.4889563E+03  0.7818608E-02  0.9922373E-01
         -4   -1    0    0    0  501 -0.00000000000E+00  0.00000000000E+00  0.12243243046E+04  0.12243243046E+04  0.00000000000E+00 0. -1.
         21   -1    0    0  501  502  0.00000000000E+00 -0.00000000000E+00 -0.29352609947E+03  0.29352609947E+03  0.00000000000E+00 0. -1.
        -13    1    1    2    0    0 -0.29798786197E+02  0.10959273227E+03  0.31052410689E+03  0.33064144742E+03  0.10566000000E+00 0.  1.
         13    1    1    2    0    0 -0.12452486039E+03  0.42771944045E+03  0.20264955036E+03  0.48940495709E+03  0.10566000000E+00 0. -1.
         -4    1    1    2    0  502  0.15432364658E+03 -0.53731217272E+03  0.41762454792E+03  0.69780399961E+03  0.00000000000E+00 0. -1.
</event>
<event>
 5    1  0.6336319E-005  0.4188966E+03  0.7818608E-02  0.9808545E-01
          4   -1    0    0  502    0 -0.00000000000E+00  0.00000000000E+00  0.23775638335E+04  0.23775638335E+04  0.00000000000E+00 0.  1.
         21   -1    0    0  501  502  0.00000000000E+00 -0.00000000000E+00 -0.17979955929E+03  0.17979955929E+03  0.00000000000E+00 0.  1.
        -13    1    1    2    0    0 -0.61043952569E+03 -0.38399342415E+01  0.10655823352E+04  0.12280541046E+04  0.10566000000E+00 0.  1.
         13    1    1    2    0    0  0.26045975963E+03  0.49057923391E+02  0.80711803205E+03  0.84952074434E+03  0.10566000000E+00 0. -1.
          4    1    1    2  501    0  0.34997976606E+03 -0.45217989149E+02  0.32506390698E+03  0.47978854386E+03  0.00000000000E+00 0.  1.
</event>
<event>
 5    1  0.6336319E-005  0.1386679E+03  0.7818608E-02  0.1112859E+00
         21   -1    0    0  501  502  0.00000000000E+00  0.00000000000E+00  0.29244873676E+03  0.29244873676E+03  0.00000000000E+00 0. -1.
          4   -1    0    0  502    0 -0.00000000000E+00 -0.00000000000E+00 -0.26598834477E+03  0.26598834477E+03  0.00000000000E+00 0.  1.
        -13    1    1    2    0    0 -0.21803539443E+02 -0.13803716223E+03 -0.22738575329E+03  0.26689687982E+03  0.10566000000E+00 0.  1.
         13    1    1    2    0    0  0.24671960743E+02  0.12402840835E+03  0.20710577225E+03  0.24266141800E+03  0.10566000000E+00 0. -1.
          4    1    1    2  501    0 -0.28684213002E+01  0.14008753887E+02  0.46740373038E+02  0.48878783720E+02  0.00000000000E+00 0.  1.
</event>
<event>
 5    1  0.6336319E-005  0.7933637E+02  0.7818608E-02  0.1204163E+00
         21   -1    0    0  501  502  0.00000000000E+00  0.00000000000E+00  0.29826556123E+03  0.29826556123E+03  0.00000000000E+00 0.  1.
         -4   -1    0    0    0  501 -0.00000000000E+00 -0.00000000000E+00 -0.27966743566E+02  0.27966743566E+02  0.00000000000E+00 0. -1.
        -13    1    1    2    0    0 -0.73319653079E+02  0.57369442784E+01  0.16045870316E+03  0.17650974659E+03  0.10566000000E+00 0.  1.
         13    1    1    2    0    0  0.81426499636E+02 -0.13028214669E+02  0.69216787115E+02  0.10766143229E+03  0.10566000000E+00 0. -1.
         -4    1    1    2    0  502 -0.81068465570E+01  0.72912703911E+01  0.40623327389E+02  0.42061125914E+02  0.00000000000E+00 0. -1.
</event>
<event>
 5    1  0.6336319E-005  0.3596700E+03  0.7818608E-02  0.1012196E+00
         21   -1    0    0  501  502  0.00000000000E+00  0.00000000000E+00  0.21493812451E+04  0.21493812451E+04  0.00000000000E+00 0. -1.
         -4   -1    0    0    0  501 -0.00000000000E+00 -0.00000000000E+00 -0.32547516367E+03  0.32547516367E+03  0.00000000000E+00 0. -1.
        -13    1    1    2    0    0 -0.12523515698E+03  0.80282245923E+02 -0.17695230388E+03  0.23117355508E+03  0.10566000000E+00 0.  1.
         13    1    1    2    0    0  0.18895721306E+03 -0.41819817719E+03  0.40775048355E+03  0.61388517800E+03  0.10566000000E+00 0. -1.
         -4    1    1    2    0  502 -0.63722056075E+02  0.33791593126E+03  0.15931079018E+04  0.16297976757E+04  0.00000000000E+00 0. -1.
</event>
<event>
 5    1  0.6336319E-005  0.4270735E+03  0.7818608E-02  0.9653963E-01
         21   -1    0    0  501  502  0.00000000000E+00  0.00000000000E+00  0.45249435746E+03  0.45249435746E+03  0.00000000000E+00 0. -1.
          4   -1    0    0  502    0 -0.00000000000E+00 -0.00000000000E+00 -0.14916151529E+04  0.14916151529E+04  0.00000000000E+00 0.  1.
        -13    1    1    2    0    0  0.15357917941E+03  0.55758635140E+03  0.73815601232E+02  0.58304190053E+03  0.10566000000E+00 0.  1.
         13    1    1    2    0    0  0.15612076314E+03 -0.38760874586E+03 -0.72158705530E+03  0.83384778113E+03  0.10566000000E+00 0. -1.
          4    1    1    2  501    0 -0.30969994256E+03 -0.16997760555E+03 -0.39134934141E+03  0.52721982875E+03  0.00000000000E+00 0.  1.
</event>
<event>
 5    1  0.6336319E-005  0.1648516E+03  0.7818608E-02  0.1087322E+00
         21   -1    0    0  501  502  0.00000000000E+00  0.00000000000E+00  0.28150553452E+02  0.28150553452E+02  0.00000000000E+00 0. -1.
          4   -1    0    0  502    0 -0.00000000000E+00 -0.00000000000E+00 -0.15210830443E+04  0.15210830443E+04  0.00000000000E+00 0.  1.
        -13    1    1    2    0    0 -0.15966112083E+03 -0.22049937687E+02 -0.69565299898E+03  0.71408051326E+03  0.10566000000E+00 0.  1.
         13    1    1    2    0    0  0.16964416307E+03 -0.70177188509E+01 -0.78311871944E+03  0.80131350316E+03  0.10566000000E+00 0. -1.
          4    1    1    2  501    0 -0.99830422417E+01  0.29067656538E+02 -0.14160772417E+02  0.33839581328E+02  0.00000000000E+00 0.  1.
</event>
<event>
 5    1  0.6336319E-005  0.2287934E+03  0.7818608E-02  0.1070939E+00
          4   -1    0    0  502    0 -0.00000000000E+00  0.00000000000E+00  0.13719207526E+04  0.13719207526E+04  0.00000000000E+00 0.  1.
         21   -1    0    0  501  502  0.00000000000E+00 -0.00000000000E+00 -0.74036842871E+02  0.74036842871E+02  0.00000000000E+00 0.  1.
        -13    1    1    2    0    0  0.10710752322E+03 -0.18562095678E+03  0.23840646623E+03  0.32056951731E+03  0.10566000000E+00 0.  1.
         13    1    1    2    0    0  0.97747184595E+02  0.30753585278E+01  0.38517503842E+03  0.39739626484E+03  0.10566000000E+00 0. -1.
          4    1    1    2  501    0 -0.20485470781E+03  0.18254559825E+03  0.67430240506E+03  0.72799181329E+03  0.00000000000E+00 0.  1.
</event>
<event>
 5    1  0.6336319E-005  0.3614961E+03  0.7818608E-02  0.9896190E-01
          4   -1    0    0  502    0 -0.00000000000E+00  0.00000000000E+00  0.12349457502E+04  0.12349457502E+04  0.00000000000E+00 0.  1.
         21   -1    0    0  501  502  0.00000000000E+00 -0.00000000000E+00 -0.51914294134E+03  0.51914294134E+03  0.00000000000E+00 0.  1.
        -13    1    1    2    0    0 -0.24058870296E+03 -0.28578815303E+03  0.42812013035E+03  0.56819420058E+03  0.10566000000E+00 0.  1.
         13    1    1    2    0    0 -0.13747979652E+03  0.27418143298E+03  0.61399626541E+03  0.68634362949E+03  0.10566000000E+00 0. -1.
          4    1    1    2  501    0  0.37806849948E+03  0.11606720052E+02 -0.32631358686E+03  0.49955086149E+03  0.00000000000E+00 0.  1.
</event>
<event>
 5    1  0.6336319E-005  0.3362276E+03  0.7818608E-02  0.9947551E-01
         21   -1    0    0  501  502  0.00000000000E+00  0.00000000000E+00  0.12134182759E+04  0.12134182759E+04  0.00000000000E+00 0. -1.
         -4   -1    0    0    0  501 -0.00000000000E+00 -0.00000000000E+00 -0.48300973832E+03  0.48300973832E+03  0.00000000000E+00 0. -1.
        -13    1    1    2    0    0 -0.33912341912E+03 -0.57533392506E+02 -0.48326638231E+02  0.34734746260E+03  0.10566000000E+00 0.  1.
         13    1    1    2    0    0 -0.14024811753E+02  0.14311895912E+03 -0.23314858115E+03  0.27393065521E+03  0.10566000000E+00 0. -1.
         -4    1    1    2    0  502  0.35314823087E+03 -0.85585566617E+02  0.10118837570E+04  0.10751498965E+04  0.00000000000E+00 0. -1.
</event>
<event>
 5    1  0.6336319E-005  0.4222930E+03  0.7818608E-02  0.9672685E-01
         21   -1    0    0  501  502  0.00000000000E+00  0.00000000000E+00  0.33772851089E+03  0.33772851089E+03  0.00000000000E+00 0. -1.
         -4   -1    0    0    0  501 -0.00000000000E+00 -0.00000000000E+00 -0.18612511974E+04  0.18612511974E+04  0.00000000000E+00 0. -1.
        -13    1    1    2    0    0 -0.87639292385E+02  0.41758523016E+03 -0.67410779525E+03  0.79779659111E+03  0.10566000000E+00 0.  1.
         13    1    1    2    0    0  0.41547356764E+03 -0.96327407297E+02 -0.84001705231E+03  0.94208593777E+03  0.10566000000E+00 0. -1.
         -4    1    1    2    0  502 -0.32783427525E+03 -0.32125782286E+03 -0.93978389651E+01  0.45909717942E+03  0.00000000000E+00 0. -1.
</event>
<event>
 5    1  0.6336319E-005  0.4979971E+03  0.7818608E-02  0.9482373E-01
          4   -1    0    0  502    0 -0.00000000000E+00  0.00000000000E+00  0.17163557648E+04  0.17163557648E+04  0.00000000000E+00 0.  1.
         21   -1    0    0  501  502  0.00000000000E+00 -0.00000000000E+00 -0.37488308311E+03  0.37488308311E+03  0.00000000000E+00 0.  1.
        -13    1    1    2    0    0 -0.67272613706E+03 -0.33047363251E+03  0.40601524539E+03  0.85242106257E+03  0.10566000000E+00 0.  1.
         13    1    1    2    0    0  0.41803894447E+03  0.11260115532E+03  0.72074358698E+03  0.84077756191E+03  0.10566000000E+00 0. -1.
          4    1    1    2  501    0  0.25468719259E+03  0.21787247719E+03  0.21471384933E+03  0.39804022344E+03  0.00000000000E+00 0.  1.
</event>
<event>
 5    1  0.6336319E-005  0.1925170E+03  0.7818608E-02  0.1114973E+00
         21   -1    0    0  501  502  0.00000000000E+00  0.00000000000E+00  0.22542622170E+03  0.22542622170E+03  0.00000000000E+00 0.  1.
          4   -1    0    0  502    0 -0.00000000000E+00 -0.00000000000E+00 -0.30772975156E+04  0.30772975156E+04  0.00000000000E+00 0.  1.
        -13    1    1    2    0    0  0.47917268523E+02  0.84567803871E+02  0.16334464807E+03  0.19007699306E+03  0.10566000000E+00 0.  1.
         13    1    1    2    0    0  0.32466997668E+03 -0.20047120346E+03 -0.15663924242E+04  0.16121986648E+04  0.10566000000E+00 0. -1.
          4    1    1    2  501    0 -0.37258724520E+03  0.11590339959E+03 -0.14488235178E+04  0.15004480795E+04  0.00000000000E+00 0.  1.
</event>
<event>
 5    1  0.6336319E-005  0.2571774E+03  0.7818608E-02  0.1045076E+00
          4   -1    0    0  502    0 -0.00000000000E+00  0.00000000000E+00  0.13490449642E+04  0.13490449642E+04  0.00000000000E+00 0.  1.
         21   -1    0    0  501  502  0.00000000000E+00 -0.00000000000E+00 -0.21888471721E+03  0.21888471721E+03  0.00000000000E+00 0.  1.
        -13    1    1    2    0    0 -0.17295031107E+03 -0.19832449860E+03 -0.96882081252E+02  0.28041142216E+03  0.10566000000E+00 0.  1.
         13    1    1    2    0    0  0.14245331264E+03 -0.35805993202E+02  0.35770570310E+03  0.38668901798E+03  0.10566000000E+00 0. -1.
          4    1    1    2  501    0  0.30496998426E+02  0.23413049180E+03  0.86933662512E+03  0.90082924124E+03  0.00000000000E+00 0.  1.
</event>
<event>
 5    1  0.6336319E-005  0.6307061E+02  0.7818608E-02  0.1246173E+00
          4   -1    0    0  502    0 -0.00000000000E+00  0.00000000000E+00  0.41287045714E+02  0.41287045714E+02  0.00000000000E+00 0.  1.
         21   -1    0    0  501  502  0.00000000000E+00 -0.00000000000E+00 -0.15505886997E+03  0.15505886997E+03  0.00000000000E+00 0. -1.
        -13    1    1    2    0    0  0.37229765509E+02 -0.45320268145E+02 -0.51899327415E+02  0.78316878734E+02  0.10566000000E+00 0.  1.
         13    1    1    2    0    0 -0.29023053091E+02  0.59902748840E+02 -0.14963079481E+02  0.68224495901E+02  0.10566000000E+00 0. -1.
          4    1    1    2  501    0 -0.82067124180E+01 -0.14582480696E+02 -0.46909417357E+02  0.49804541045E+02  0.00000000000E+00 0.  1.
</event>
<event>
 5    1  0.6336319E-005  0.2308688E+03  0.7818608E-02  0.1040813E+00
         21   -1    0    0  501  502  0.00000000000E+00  0.00000000000E+00  0.38525430298E+03  0.38525430298E+03  0.00000000000E+00 0.  1.
          4   -1    0    0  502    0 -0.00000000000E+00 -0.00000000000E+00 -0.10918505499E+04  0.10918505499E+04  0.00000000000E+00 0.  1.
        -13    1    1    2    0    0  0.24016574054E+03 -0.84517958312E+02 -0.71541028782E+03  0.75936470769E+03  0.10566000000E+00 0.  1.
         13    1    1    2    0    0 -0.20362765572E+03  0.10926751283E+02 -0.31964957121E+03  0.37915626806E+03  0.10566000000E+00 0. -1.
          4    1    1    2  501    0 -0.36538084813E+02  0.73591207029E+02  0.32846361209E+03  0.33858387714E+03  0.00000000000E+00 0.  1.
</event>
<event>
 5    1  0.6336319E-005  0.7803550E+03  0.7818608E-02  0.9013914E-01
         -4   -1    0    0    0  501 -0.00000000000E+00  0.00000000000E+00  0.15198833007E+04  0.15198833007E+04  0.00000000000E+00 0. -1.
         21   -1    0    0  501  502  0.00000000000E+00 -0.00000000000E+00 -0.64572271034E+03  0.64572271034E+03  0.00000000000E+00 0.  1.
        -13    1    1    2    0    0 -0.15635076167E+03  0.71763774680E+03  0.33245639083E+03  0.80621136141E+03  0.10566000000E+00 0.  1.
         13    1    1    2    0    0  0.52638255572E+03 -0.70065400162E+03  0.38474384439E+03  0.95709062367E+03  0.10566000000E+00 0. -1.
         -4    1    1    2    0  502 -0.37003179405E+03 -0.16983745185E+02  0.15696035513E+03  0.40230402595E+03  0.00000000000E+00 0. -1.
</event>
<event>
 5    1  0.6336319E-005  0.4570732E+03  0.7818608E-02  0.9720951E-01
         21   -1    0    0  501  502  0.00000000000E+00  0.00000000000E+00  0.10266215537E+03  0.10266215537E+03  0.00000000000E+00 0. -1.
         -4   -1    0    0    0  501 -0.00000000000E+00 -0.00000000000E+00 -0.43095527259E+04  0.43095527259E+04  0.00000000000E+00 0. -1.
        -13    1    1    2    0    0 -0.62994954373E+02 -0.26842565699E+03 -0.12949881699E+04  0.13240147541E+04  0.10566000000E+00 0.  1.
         13    1    1    2    0    0  0.28277542878E+03  0.45595989857E+03 -0.84322444514E+03  0.99944426971E+03  0.10566000000E+00 0. -1.
         -4    1    1    2    0  502 -0.21978047441E+03 -0.18753424157E+03 -0.20686779555E+04  0.20887558575E+04  0.00000000000E+00 0. -1.
</event>
<event>
 5    1  0.6336319E-005  0.6794465E+02  0.7818608E-02  0.1232226E+00
         -4   -1    0    0    0  501 -0.00000000000E+00  0.00000000000E+00  0.18253011660E+03  0.18253011660E+03  0.00000000000E+00 0. -1.
         21   -1    0    0  501  502  0.00000000000E+00 -0.00000000000E+00 -0.73406787042E+02  0.73406787042E+02  0.00000000000E+00 0.  1.
        -13    1    1    2    0    0 -0.19191570658E+01 -0.53859541049E+02  0.39562433688E+02  0.66856044223E+02  0.10566000000E+00 0.  1.
         13    1    1    2    0    0 -0.34080190904E+01  0.81763004892E+02  0.11157254766E+03  0.13836635472E+03  0.10566000000E+00 0. -1.
         -4    1    1    2    0  502  0.53271761561E+01 -0.27903463843E+02 -0.42011651792E+02  0.50714504696E+02  0.00000000000E+00 0. -1.
</event>
<event>
 5    1  0.6336319E-005  0.2456570E+03  0.7818608E-02  0.1032668E+00
         21   -1    0    0  501  502  0.00000000000E+00  0.00000000000E+00  0.14190624651E+03  0.14190624651E+03  0.00000000000E+00 0.  1.
         -4   -1    0    0    0  501 -0.00000000000E+00 -0.00000000000E+00 -0.55071868255E+03  0.55071868255E+03  0.00000000000E+00 0. -1.
        -13    1    1    2    0    0 -0.21646066637E+01  0.23555656391E+03 -0.24051618327E+03  0.33665951034E+03  0.10566000000E+00 0.  1.
         13    1    1    2    0    0 -0.38324831734E+01 -0.25942696470E+03 -0.19123858819E+03  0.32231854851E+03  0.10566000000E+00 0. -1.
         -4    1    1    2    0  502  0.59970898371E+01  0.23870400787E+02  0.22942335419E+02  0.33646870207E+02  0.00000000000E+00 0. -1.
</event>
<event>
 5    1  0.6336319E-005  0.4970351E+03  0.7818608E-02  0.9484494E-01
         21   -1    0    0  501  502  0.00000000000E+00  0.00000000000E+00  0.37622953851E+03  0.37622953851E+03  0.00000000000E+00 0.  1.
          4   -1    0    0  502    0 -0.00000000000E+00 -0.00000000000E+00 -0.19067302821E+04  0.19067302821E+04  0.00000000000E+00 0.  1.
        -13    1    1    2    0    0  0.45855131315E+03 -0.24478600764E+03 -0.90588208777E+03  0.10444193911E+04  0.10566000000E+00 0.  1.
         13    1    1    2    0    0 -0.40304475148E+03  0.25609964599E+03 -0.86690202722E+03  0.98972280783E+03  0.10566000000E+00 0. -1.
          4    1    1    2  501    0 -0.55506561675E+02 -0.11313638343E+02  0.24228337142E+03  0.24881762170E+03  0.00000000000E+00 0.  1.
</event>
<event>
 5    1  0.6336319E-005  0.6691905E+03  0.7818608E-02  0.9168911E-01
          4   -1    0    0  502    0 -0.00000000000E+00  0.00000000000E+00  0.78357335517E+03  0.78357335517E+03  0.00000000000E+00 0.  1.
         21   -1    0    0  501  502  0.00000000000E+00 -0.00000000000E+00 -0.92214579450E+03  0.92214579450E+03  0.00000000000E+00 0. -1.
        -13    1    1    2    0    0  0.32740912049E+03 -0.74357886252E+03 -0.67711707690E+02  0.81528592745E+03  0.10566000000E+00 0.  1.
         13    1    1    2    0    0 -0.35740489326E+03  0.43870030667E+03 -0.12457485793E+03  0.57940928815E+03  0.10566000000E+00 0. -1.
          4    1    1    2  501    0  0.29995772775E+02  0.30487855585E+03  0.53714126297E+02  0.31102393408E+03  0.00000000000E+00 0.  1.
</event>
<event>
 5    1  0.6336319E-005  0.3388407E+02  0.7818608E-02  0.1376187E+00
         21   -1    0    0  501  502  0.00000000000E+00  0.00000000000E+00  0.28135485582E+02  0.28135485582E+02  0.00000000000E+00 0. -1.
          4   -1    0    0  502    0 -0.00000000000E+00 -0.00000000000E+00 -0.13174407683E+03  0.13174407683E+03  0.00000000000E+00 0.  1.
        -13    1    1    2    0    0 -0.46299490272E+01  0.30545509734E+02 -0.79293570435E+02  0.85099624378E+02  0.10566000000E+00 0.  1.
         13    1    1    2    0    0  0.21015817481E+01 -0.46737541885E+02 -0.31997469753E+02  0.56680364342E+02  0.10566000000E+00 0. -1.
          4    1    1    2  501    0  0.25283672791E+01  0.16192032151E+02  0.76824489375E+01  0.18099573695E+02  0.00000000000E+00 0.  1.
</event>
<event>
 5    1  0.6336319E-005  0.2440431E+03  0.7818608E-02  0.1033527E+00
         21   -1    0    0  501  502  0.00000000000E+00  0.00000000000E+00  0.31157216916E+03  0.31157216916E+03  0.00000000000E+00 0. -1.
         -4   -1    0    0    0  501 -0.00000000000E+00 -0.00000000000E+00 -0.20431668205E+04  0.20431668205E+04  0.00000000000E+00 0. -1.
        -13    1    1    2    0    0  0.12269403982E+03  0.29835028076E+03 -0.10719447810E+04  0.11194339382E+04  0.10566000000E+00 0.  1.
         13    1    1    2    0    0 -0.13132597221E+03 -0.16259122835E+03 -0.91898788353E+03  0.94245485820E+03  0.10566000000E+00 0. -1.
         -4    1    1    2    0  502  0.86319323972E+01 -0.13575905240E+03  0.25933801320E+03  0.29285019320E+03  0.00000000000E+00 0. -1.
</event>
<event>
 5    1  0.6336319E-005  0.4492007E+03  0.7818608E-02  0.9858006E-01
         -4   -1    0    0    0  501 -0.00000000000E+00  0.00000000000E+00  0.15135604952E+04  0.15135604952E+04  0.00000000000E+00 0. -1.
         21   -1    0    0  501  502  0.00000000000E+00 -0.00000000000E+00 -0.22196816789E+03  0.22196816789E+03  0.00000000000E+00 0. -1.
        -13    1    1    2    0    0 -0.17491841003E+03  0.49350251102E+02  0.38261129055E+03  0.42358388575E+03  0.10566000000E+00 0.  1.
         13    1    1    2    0    0 -0.38316164813E+03 -0.42266134069E+02  0.32576822311E+03  0.50470211119E+03  0.10566000000E+00 0. -1.
         -4    1    1    2    0  502  0.55808005816E+03 -0.70841170326E+01  0.58321281367E+03  0.80724266616E+03  0.00000000000E+00 0. -1.
</event>
<event>
 5    1  0.6336319E-005  0.4754200E+03  0.7818608E-02  0.9605292E-01
          4   -1    0    0  502    0 -0.00000000000E+00  0.00000000000E+00  0.40334745563E+03  0.40334745563E+03  0.00000000000E+00 0.  1.
         21   -1    0    0  501  502  0.00000000000E+00 -0.00000000000E+00 -0.14775646247E+04  0.14775646247E+04  0.00000000000E+00 0. -1.
        -13    1    1    2    0    0  0.49974389772E+03 -0.27278520832E+03 -0.84912378559E+03  0.10223340685E+04  0.10566000000E+00 0.  1.
         13    1    1    2    0    0 -0.34943438036E+03 -0.11446198414E+03  0.33567715516E+02  0.36923262949E+03  0.10566000000E+00 0. -1.
          4    1    1    2  501    0 -0.15030951737E+03  0.38724719246E+03 -0.25866109899E+03  0.48934538233E+03  0.00000000000E+00 0.  1.
</event>
<event>
 5    1  0.6336319E-005  0.6378489E+03  0.7818608E-02  0.9218368E-01
          4   -1    0    0  502    0 -0.00000000000E+00  0.00000000000E+00  0.32878743972E+04  0.32878743972E+04  0.00000000000E+00 0.  1.
         21   -1    0    0  501  502  0.00000000000E+00 -0.00000000000E+00 -0.36319279612E+03  0.36319279612E+03  0.00000000000E+00 0. -1.
        -13    1    1    2    0    0  0.32647693014E+03  0.56257137017E+03  0.21176601071E+04  0.22153008990E+04  0.10566000000E+00 0.  1.
         13    1    1    2    0    0 -0.66060492442E+03 -0.25574604656E+03  0.34375110727E+03  0.78738157295E+03  0.10566000000E+00 0. -1.
          4    1    1    2  501    0  0.33412799428E+03 -0.30682532361E+03  0.46327038667E+03  0.64838472139E+03  0.00000000000E+00 0.  1.
</event>
<event>
 5    1  0.6336319E-005  0.1318090E+03  0.7818608E-02  0.1120579E+00
          4   -1    0    0  502    0 -0.00000000000E+00  0.00000000000E+00  0.58013024030E+02  0.58013024030E+02  0.00000000000E+00 0.  1.
         21   -1    0    0  501  502  0.00000000000E+00 -0.00000000000E+00 -0.55972456986E+03  0.55972456986E+03  0.00000000000E+00 0. -1.
        -13    1    1    2    0    0 -0.12435468375E+03  0.57467557543E+02 -0.57147376496E+02  0.14843328921E+03  0.10566000000E+00 0.  1.
         13    1    1    2    0    0  0.10969681771E+03 -0.41182830068E+02 -0.28354847681E+03  0.30680477045E+03  0.10566000000E+00 0. -1.
          4    1    1    2  501    0  0.14657866036E+02 -0.16284727475E+02 -0.16101569253E+03  0.16249953423E+03  0.00000000000E+00 0.  1.
</event>
<event>
 5    1  0.6336319E-005  0.1694733E+03  0.7818608E-02  0.1083349E+00
         21   -1    0    0  501  502  0.00000000000E+00  0.00000000000E+00  0.13879981288E+04  0.13879981288E+04  0.00000000000E+00 0. -1.
          4   -1    0    0  502    0 -0.00000000000E+00 -0.00000000000E+00 -0.25021861500E+02  0.25021861500E+02  0.00000000000E+00 0.  1.
        -13    1    1    2    0    0  0.13174245318E+03  0.10448258972E+03  0.45778890435E+03  0.48769188801E+03  0.10566000000E+00 0.  1.
         13    1    1    2    0    0 -0.14625722957E+03 -0.91388866444E+02  0.81251438823E+03  0.83061588256E+03  0.10566000000E+00 0. -1.
          4    1    1    2  501    0  0.14514776394E+02 -0.13093723274E+02  0.92672974758E+02  0.94712219768E+02  0.00000000000E+00 0.  1.
</event>
<event>
 5    1  0.6336319E-005  0.4342709E+02  0.7818608E-02  0.1321140E+00
         21   -1    0    0  501  502  0.00000000000E+00  0.00000000000E+00  0.86273994095E+02  0.86273994095E+02  0.00000000000E+00 0. -1.
         -4   -1    0    0    0  501 -0.00000000000E+00 -0.00000000000E+00 -0.46175681329E+02  0.46175681329E+02  0.00000000000E+00 0. -1.
        -13    1    1    2    0    0 -0.15252057183E+02  0.33835720467E+02  0.94940383449E+01  0.38309648340E+02  0.10566000000E+00 0.  1.
         13    1    1    2    0    0  0.17855219644E+02 -0.45032785516E+02 -0.12086556485E+02  0.49928515415E+02  0.10566000000E+00 0. -1.
         -4    1    1    2    0  502 -0.26031624617E+01  0.11197065049E+02  0.42690830906E+02  0.44211511668E+02  0.00000000000E+00 0. -1.
</event>
<event>
 5    1  0.6336319E-005  0.4367328E+03  0.7818608E-02  0.9628592E-01
         21   -1    0    0  501  502  0.00000000000E+00  0.00000000000E+00  0.38497550222E+03  0.38497550222E+03  0.00000000000E+00 0.  1.
          4   -1    0    0  502    0 -0.00000000000E+00 -0.00000000000E+00 -0.28884896369E+04  0.28884896369E+04  0.00000000000E+00 0.  1.
        -13    1    1    2    0    0 -0.53512133906E+03 -0.33245604343E+03 -0.60963090031E+03  0.87665940599E+03  0.10566000000E+00 0.  1.
         13    1    1    2    0    0  0.37593044214E+03  0.16024439876E+03 -0.20659216809E+04  0.21059521285E+04  0.10566000000E+00 0. -1.
          4    1    1    2  501    0  0.15919089693E+03  0.17221164467E+03  0.17203844656E+03  0.29085360462E+03  0.00000000000E+00 0.  1.
</event>
<event>
 5    1  0.6336319E-005  0.1957683E+03  0.7818608E-02  0.1064801E+00
         21   -1    0    0  501  502  0.00000000000E+00  0.00000000000E+00  0.10665350436E+04  0.10665350436E+04  0.00000000000E+00 0. -1.
          4   -1    0    0  502    0 -0.00000000000E+00 -0.00000000000E+00 -0.11199816058E+03  0.11199816058E+03  0.00000000000E+00 0.  1.
        -13    1    1    2    0    0  0.13924725747E+03  0.76524324226E+02  0.18498414628E+03  0.24385429348E+03  0.10566000000E+00 0.  1.
         13    1    1    2    0    0 -0.68721518674E+02 -0.26444613210E+03  0.22380383784E+03  0.35318914608E+03  0.10566000000E+00 0. -1.
          4    1    1    2  501    0 -0.70525738793E+02  0.18792180788E+03  0.54574889887E+03  0.58148976459E+03  0.00000000000E+00 0.  1.
</event>
<event>
 5    1  0.6336319E-005  0.2724017E+03  0.7818608E-02  0.1019396E+00
         -4   -1    0    0    0  501 -0.00000000000E+00  0.00000000000E+00  0.16225376569E+04  0.16225376569E+04  0.00000000000E+00 0. -1.
         21   -1    0    0  501  502  0.00000000000E+00 -0.00000000000E+00 -0.22418931263E+03  0.22418931263E+03  0.00000000000E+00 0. -1.
        -13    1    1    2    0    0  0.17263833104E+03  0.16929487005E+03  0.91594859450E+03  0.94732601849E+03  0.10566000000E+00 0.  1.
         13    1    1    2    0    0 -0.24613321579E+03 -0.38682764646E+03  0.48816208419E+03  0.66971592455E+03  0.10566000000E+00 0. -1.
         -4    1    1    2    0  502  0.73494884758E+02  0.21753277641E+03 -0.57623344262E+01  0.22968502649E+03  0.00000000000E+00 0. -1.
</event>
<event>
 5    1  0.6336319E-005  0.3735986E+03  0.7818608E-02  0.1002915E+00
          4   -1    0    0  502    0 -0.00000000000E+00  0.00000000000E+00  0.29377378535E+04  0.29377378535E+04  0.00000000000E+00 0.  1.
         21   -1    0    0  501  502  0.00000000000E+00 -0.00000000000E+00 -0.14512757630E+03  0.14512757630E+03  0.00000000000E+00 0.  1.
        -13    1    1    2    0    0  0.22467004206E+03 -0.31740020895E+03  0.19252592678E+03  0.43391907550E+03  0.10566000000E+00 0.  1.
         13    1    1    2    0    0 -0.17902279653E+03 -0.56931150468E+01  0.10034143308E+04  0.10192751855E+04  0.10566000000E+00 0. -1.
          4    1    1    2  501    0 -0.45647245535E+02  0.32309332399E+03  0.15966700195E+04  0.16296711688E+04  0.00000000000E+00 0.  1.
</event>
<event>
 5    1  0.6336319E-005  0.4481465E+03  0.7818608E-02  0.1002236E+00
          4   -1    0    0  502    0 -0.00000000000E+00  0.00000000000E+00  0.10323517885E+04  0.10323517885E+04  0.00000000000E+00 0.  1.
         21   -1    0    0  501  502  0.00000000000E+00 -0.00000000000E+00 -0.39755365192E+03  0.39755365192E+03  0.00000000000E+00 0.  1.
        -13    1    1    2    0    0 -0.30005585807E+03 -0.24758027143E+03  0.47697520908E+03  0.61549562956E+03  0.10566000000E+00 0.  1.
         13    1    1    2    0    0 -0.10523399534E+03  0.13470023874E+02  0.30567755918E+03  0.32356516603E+03  0.10566000000E+00 0. -1.
          4    1    1    2  501    0  0.40528985341E+03  0.23411024756E+03 -0.14785463165E+03  0.49084464486E+03  0.00000000000E+00 0.  1.
</event>
<event>
 5    1  0.9643472E-005  0.4326443E+03  0.7818608E-02  0.1015246E+00
         21   -1    0    0  501  502  0.00000000000E+00  0.00000000000E+00  0.37265839122E+03  0.37265839122E+03  0.00000000000E+00 0.  1.
          4   -1    0    0  502    0 -0.00000000000E+00 -0.00000000000E+00 -0.85414725937E+03  0.85414725937E+03  0.00000000000E+00 0.  1.
        -13    1    1    2    0    0 -0.64123969322E+02  0.36961888891E+03 -0.43314165850E+03  0.57301109411E+03  0.10566000000E+00 0.  1.
         13    1    1    2    0    0 -0.18336661018E+02  0.75345483271E+02 -0.16857533388E+03  0.18555546164E+03  0.10566000000E+00 0. -1.
          4    1    1    2  501    0  0.82460630340E+02 -0.44496437218E+03  0.12022812424E+03  0.46823909483E+03  0.00000000000E+00 0.  1.
</event>
<event>
 5    1  0.6336319E-005  0.5308080E+03  0.7818608E-02  0.9451205E-01
         21   -1    0    0  501  502  0.00000000000E+00  0.00000000000E+00  0.95498041099E+03  0.95498041099E+03  0.00000000000E+00 0.  1.
         -4   -1    0    0    0  501 -0.00000000000E+00 -0.00000000000E+00 -0.11198310554E+04  0.11198310554E+04  0.00000000000E+00 0. -1.
        -13    1    1    2    0    0 -0.29727024497E+03  0.48591738897E+03 -0.60393496328E+03  0.83019441005E+03  0.10566000000E+00 0.  1.
         13    1    1    2    0    0  0.44332406389E+03  0.18204432871E+03  0.21318942906E+03  0.52452464867E+03  0.10566000000E+00 0. -1.
         -4    1    1    2    0  502 -0.14605381891E+03 -0.66796171768E+03  0.22589488982E+03  0.72009240765E+03  0.00000000000E+00 0. -1.
</event>
<event>
 5    1  0.6336319E-005  0.3985509E+03  0.7818608E-02  0.9828504E-01
         -4   -1    0    0    0  501 -0.00000000000E+00  0.00000000000E+00  0.20387273938E+04  0.20387273938E+04  0.00000000000E+00 0. -1.
         21   -1    0    0  501  502  0.00000000000E+00 -0.00000000000E+00 -0.24399164710E+03  0.24399164710E+03  0.00000000000E+00 0. -1.
        -13    1    1    2    0    0  0.28681290913E+03 -0.20422052260E+02  0.79265480465E+03  0.84319651064E+03  0.10566000000E+00 0.  1.
         13    1    1    2    0    0 -0.55153150303E+03  0.25025303295E+03  0.88005992877E+03  0.10683253572E+04  0.10566000000E+00 0. -1.
         -4    1    1    2    0  502  0.26471859391E+03 -0.22983098069E+03  0.12202101328E+03  0.37119717312E+03  0.00000000000E+00 0. -1.
</event>
<event>
 5    1  0.6336319E-005  0.1548387E+03  0.7818608E-02  0.1096435E+00
         21   -1    0    0  501  502  0.00000000000E+00  0.00000000000E+00  0.42332027628E+02  0.42332027628E+02  0.00000000000E+00 0. -1.
          4   -1    0    0  502    0 -0.00000000000E+00 -0.00000000000E+00 -0.11753325037E+04  0.11753325037E+04  0.00000000000E+00 0.  1.
        -13    1    1    2    0    0 -0.13670108683E+02 -0.15105447157E+03 -0.66276834548E+03  0.67990162243E+03  0.10566000000E+00 0.  1.
         13    1    1    2    0    0  0.96245141307E+02  0.14975148883E+03 -0.30890960525E+03  0.35653021052E+03  0.10566000000E+00 0. -1.
          4    1    1    2  501    0 -0.82575032624E+02  0.13029827410E+01 -0.16132252532E+03  0.18123269835E+03  0.00000000000E+00 0.  1.
</event>
<event>
 5    1  0.6336319E-005  0.1507830E+03  0.7818608E-02  0.1100342E+00
          4   -1    0    0  502    0 -0.00000000000E+00  0.00000000000E+00  0.40766935407E+03  0.40766935407E+03  0.00000000000E+00 0.  1.
         21   -1    0    0  501  502  0.00000000000E+00 -0.00000000000E+00 -0.23339580236E+03  0.23339580236E+03  0.00000000000E+00 0. -1.
        -13    1    1    2    0    0 -0.45846048681E+02 -0.92705629618E+02  0.66096190394E+02  0.12273920112E+03  0.10566000000E+00 0.  1.
         13    1    1    2    0    0  0.66281784344E+02  0.21557341397E+03  0.24520220999E+03  0.33315057661E+03  0.10566000000E+00 0. -1.
          4    1    1    2  501    0 -0.20435735664E+02 -0.12286778435E+03 -0.13702484867E+03  0.18517537870E+03  0.00000000000E+00 0.  1.
</event>
<event>
 5    1  0.6336319E-005  0.4134224E+03  0.7818608E-02  0.9891017E-01
         21   -1    0    0  501  502  0.00000000000E+00  0.00000000000E+00  0.20315273964E+03  0.20315273964E+03  0.00000000000E+00 0. -1.
         -4   -1    0    0    0  501 -0.00000000000E+00 -0.00000000000E+00 -0.18538253520E+04  0.18538253520E+04  0.00000000000E+00 0. -1.
        -13    1    1    2    0    0  0.50917750873E+01 -0.20857602437E+03 -0.20526339609E+03  0.29268234839E+03  0.10566000000E+00 0.  1.
         13    1    1    2    0    0  0.51093250789E+02  0.45704981064E+03 -0.21478355384E+03  0.50757958572E+03  0.10566000000E+00 0. -1.
         -4    1    1    2    0  502 -0.56185025876E+02 -0.24847378626E+03 -0.12306256625E+04  0.12567161576E+04  0.00000000000E+00 0. -1.
</event>
<event>
 5    1  0.6336319E-005  0.4860459E+03  0.7818608E-02  0.9894178E-01
         21   -1    0    0  501  502  0.00000000000E+00  0.00000000000E+00  0.75055724148E+03  0.75055724148E+03  0.00000000000E+00 0. -1.
         -4   -1    0    0    0  501 -0.00000000000E+00 -0.00000000000E+00 -0.86909435122E+03  0.86909435122E+03  0.00000000000E+00 0. -1.
        -13    1    1    2    0    0 -0.11140411525E+03  0.61062468422E+02 -0.52048797739E+03  0.53576790471E+03  0.10566000000E+00 0.  1.
         13    1    1    2    0    0 -0.13902748552E+03  0.40203037944E+03  0.65058127300E+01  0.42544024784E+03  0.10566000000E+00 0. -1.
         -4    1    1    2    0  502  0.25043160076E+03 -0.46309284786E+03  0.39544505493E+03  0.65844344014E+03  0.00000000000E+00 0. -1.
</event>
<event>
 5    1  0.6336319E-005  0.4664624E+03  0.7818608E-02  0.9956555E-01
         -4   -1    0    0    0  501 -0.00000000000E+00  0.00000000000E+00  0.35759278072E+03  0.35759278072E+03  0.00000000000E+00 0. -1.
         21   -1    0    0  501  502  0.00000000000E+00 -0.00000000000E+00 -0.91401727971E+03  0.91401727971E+03  0.00000000000E+00 0. -1.
        -13    1    1    2    0    0  0.94997286914E+02 -0.67919059881E+02 -0.79243855959E+02  0.14112789621E+03  0.10566000000E+00 0.  1.
         13    1    1    2    0    0 -0.34073449156E+02 -0.41777103081E+03  0.36719997403E+02  0.42076359574E+03  0.10566000000E+00 0. -1.
         -4    1    1    2    0  502 -0.60923837757E+02  0.48569009070E+03 -0.51390064044E+03  0.70971856848E+03  0.00000000000E+00 0. -1.
</event>
<event>
 5    1  0.6336319E-005  0.1047389E+03  0.7818608E-02  0.1156944E+00
         21   -1    0    0  501  502  0.00000000000E+00  0.00000000000E+00  0.45200165001E+03  0.45200165001E+03  0.00000000000E+00 0.  1.
         -4   -1    0    0    0  501 -0.00000000000E+00 -0.00000000000E+00 -0.62273350499E+02  0.62273350499E+02  0.00000000000E+00 0. -1.
        -13    1    1    2    0    0  0.76715777414E+02  0.16477503272E+02  0.28600297819E+03  0.29657129550E+03  0.10566000000E+00 0.  1.
         13    1    1    2    0    0 -0.10966578344E+03 -0.72336345108E+01  0.15130507656E+01  0.10991455778E+03  0.10566000000E+00 0. -1.
         -4    1    1    2    0  502  0.32950006027E+02 -0.92438687610E+01  0.10221227056E+03  0.10778914723E+03  0.00000000000E+00 0. -1.
</event>
<event>
 5    1  0.6336319E-005  0.5887174E+03  0.7818608E-02  0.9302227E-01
         21   -1    0    0  501  502  0.00000000000E+00  0.00000000000E+00  0.10275529139E+04  0.10275529139E+04  0.00000000000E+00 0. -1.
         -4   -1    0    0    0  501 -0.00000000000E+00 -0.00000000000E+00 -0.19538730712E+04  0.19538730712E+04  0.00000000000E+00 0. -1.
        -13    1    1    2    0    0  0.18389679044E+03  0.52831751430E+03 -0.76834631698E+03  0.95041753952E+03  0.10566000000E+00 0.  1.
         13    1    1    2    0    0 -0.18587720678E+03 -0.58817316846E+03 -0.10064396809E+04  0.11804316390E+04  0.10566000000E+00 0. -1.
         -4    1    1    2    0  502  0.19804163414E+01  0.59855654163E+02  0.84846584048E+03  0.85057680655E+03  0.00000000000E+00 0. -1.
</event>
<event>
 5    1  0.6336319E-005  0.1340553E+03  0.7818608E-02  0.1123481E+00
         -4   -1    0    0    0  501 -0.00000000000E+00  0.00000000000E+00  0.38647327795E+03  0.38647327795E+03  0.00000000000E+00 0. -1.
         21   -1    0    0  501  502  0.00000000000E+00 -0.00000000000E+00 -0.62412587325E+03  0.62412587325E+03  0.00000000000E+00 0. -1.
        -13    1    1    2    0    0  0.54191762997E+02  0.10275914229E+03 -0.16824328822E+01  0.11618532715E+03  0.10566000000E+00 0.  1.
         13    1    1    2    0    0  0.13255339693E+03 -0.86012124567E+01 -0.52281281778E+03  0.53942343061E+03  0.10566000000E+00 0. -1.
         -4    1    1    2    0  502 -0.18674515992E+03 -0.94157929835E+02  0.28684265536E+03  0.35499039344E+03  0.00000000000E+00 0. -1.
</event>
<event>
 5    1  0.6336319E-005  0.4617235E+03  0.7818608E-02  0.9607933E-01
          4   -1    0    0  502    0 -0.00000000000E+00  0.00000000000E+00  0.16145006153E+04  0.16145006153E+04  0.00000000000E+00 0.  1.
         21   -1    0    0  501  502  0.00000000000E+00 -0.00000000000E+00 -0.36780456584E+03  0.36780456584E+03  0.00000000000E+00 0.  1.
        -13    1    1    2    0    0 -0.28736817044E+03 -0.30864198949E+03  0.61242761616E+03  0.74357779638E+03  0.10566000000E+00 0.  1.
         13    1    1    2    0    0  0.33563175702E+03 -0.21326911952E+03  0.59163754794E+03  0.71285860657E+03  0.10566000000E+00 0. -1.
          4    1    1    2  501    0 -0.48263586583E+02  0.52191110901E+03  0.42630885346E+02  0.52586877819E+03  0.00000000000E+00 0.  1.
</event>
<event>
 5    1  0.6336319E-005  0.3008333E+03  0.7818608E-02  0.1011644E+00
          4   -1    0    0  502    0 -0.00000000000E+00  0.00000000000E+00  0.10563810477E+04  0.10563810477E+04  0.00000000000E+00 0.  1.
         21   -1    0    0  501  502  0.00000000000E+00 -0.00000000000E+00 -0.55807107591E+03  0.55807107591E+03  0.00000000000E+00 0.  1.
        -13    1    1    2    0    0  0.15515954179E+03  0.33178880083E+02  0.73255992343E+03  0.74954611204E+03  0.10566000000E+00 0.  1.
         13    1    1    2    0    0  0.76046346331E+02 -0.24733423233E+03  0.20091936159E+03  0.32760627329E+03  0.10566000000E+00 0. -1.
          4    1    1    2  501    0 -0.23120588812E+03  0.21415535225E+03 -0.43516931323E+03  0.53729973829E+03  0.00000000000E+00 0.  1.
</event>
<event>
 5    1  0.6336319E-005  0.3417096E+03  0.7818608E-02  0.9949378E-01
         -4   -1    0    0    0  501 -0.00000000000E+00  0.00000000000E+00  0.25170525878E+04  0.25170525878E+04  0.00000000000E+00 0. -1.
         21   -1    0    0  501  502  0.00000000000E+00 -0.00000000000E+00 -0.11575929634E+03  0.11575929634E+03  0.00000000000E+00 0.  1.
        -13    1    1    2    0    0 -0.11630853255E+03  0.28108866541E+03  0.97654023848E+03  0.10228242083E+04  0.10566000000E+00 0.  1.
         13    1    1    2    0    0 -0.19322593280E+03 -0.36622852827E+03  0.64191232333E+03  0.76387894200E+03  0.10566000000E+00 0. -1.
         -4    1    1    2    0  502  0.30953446535E+03  0.85139862855E+02  0.78284072968E+03  0.84610873387E+03  0.00000000000E+00 0. -1.
</event>
<event>
 5    1  0.6336319E-005  0.3829322E+03  0.7818608E-02  0.9779674E-01
          4   -1    0    0  502    0 -0.00000000000E+00  0.00000000000E+00  0.15050012686E+04  0.15050012686E+04  0.00000000000E+00 0.  1.
         21   -1    0    0  501  502  0.00000000000E+00 -0.00000000000E+00 -0.29638535200E+03  0.29638535200E+03  0.00000000000E+00 0.  1.
        -13    1    1    2    0    0 -0.22468879006E+03 -0.36842466948E+03  0.11620626198E+04  0.12396012798E+04  0.10566000000E+00 0.  1.
         13    1    1    2    0    0  0.13773871495E+03  0.25354861942E+03  0.20016998766E+03  0.35117928630E+03  0.10566000000E+00 0. -1.
          4    1    1    2  501    0  0.86950075108E+02  0.11487605007E+03 -0.15361669090E+03  0.21060605443E+03  0.00000000000E+00 0.  1.
</event>
<event>
 5    1  0.6336319E-005  0.4840614E+03  0.7818608E-02  0.9631593E-01
         21   -1    0    0  501  502  0.00000000000E+00  0.00000000000E+00  0.21734148979E+03  0.21734148979E+03  0.00000000000E+00 0. -1.
         -4   -1    0    0    0  501 -0.00000000000E+00 -0.00000000000E+00 -0.20920608097E+04  0.20920608097E+04  0.00000000000E+00 0. -1.
        -13    1    1    2    0    0  0.10985198409E+03 -0.29774314383E+03 -0.33373334837E+03  0.46053924598E+03  0.10566000000E+00 0.  1.
         13    1    1    2    0    0  0.23478119899E+03  0.54499719179E+03 -0.81681418375E+03  0.10096185282E+04  0.10566000000E+00 0. -1.
         -4    1    1    2    0  502 -0.34463318308E+03 -0.24725404795E+03 -0.72417178782E+03  0.83924452538E+03  0.00000000000E+00 0. -1.
</event>
<event>
 5    1  0.6336319E-005  0.9587794E+02  0.7818608E-02  0.1171562E+00
         21   -1    0    0  501  502  0.00000000000E+00  0.00000000000E+00  0.22304518089E+02  0.22304518089E+02  0.00000000000E+00 0.  1.
         -4   -1    0    0    0  501 -0.00000000000E+00 -0.00000000000E+00 -0.12718754856E+04  0.12718754856E+04  0.00000000000E+00 0. -1.
        -13    1    1    2    0    0 -0.65844584346E+02 -0.13985645417E+02 -0.65866643297E+02  0.94178200390E+02  0.10566000000E+00 0.  1.
         13    1    1    2    0    0  0.83375496824E+02  0.76041444381E+02 -0.46858601364E+03  0.48198198937E+03  0.10566000000E+00 0. -1.
         -4    1    1    2    0  502 -0.17530912478E+02 -0.62055798964E+02 -0.71511831060E+03  0.71801981395E+03  0.00000000000E+00 0. -1.
</event>
<event>
 5    1  0.6336319E-005  0.3133249E+03  0.7818608E-02  0.1028358E+00
         21   -1    0    0  501  502  0.00000000000E+00  0.00000000000E+00  0.29234514448E+03  0.29234514448E+03  0.00000000000E+00 0.  1.
          4   -1    0    0  502    0 -0.00000000000E+00 -0.00000000000E+00 -0.11309637693E+04  0.11309637693E+04  0.00000000000E+00 0.  1.
        -13    1    1    2    0    0  0.24277027148E+03  0.35739864386E+03 -0.74280309893E+03  0.85931813101E+03  0.10566000000E+00 0.  1.
         13    1    1    2    0    0 -0.63253655281E+02 -0.11954094830E+03 -0.20587033881E+03  0.24632026063E+03  0.10566000000E+00 0. -1.
          4    1    1    2  501    0 -0.17951661620E+03 -0.23785769556E+03  0.11005481288E+03  0.31767052219E+03  0.00000000000E+00 0.  1.
</event>
<event>
 5    1  0.6336319E-005  0.1052783E+03  0.7818608E-02  0.1156106E+00
          4   -1    0    0  502    0 -0.00000000000E+00  0.00000000000E+00  0.15368665740E+03  0.15368665740E+03  0.00000000000E+00 0.  1.
         21   -1    0    0  501  502  0.00000000000E+00 -0.00000000000E+00 -0.17840424217E+03  0.17840424217E+03  0.00000000000E+00 0. -1.
        -13    1    1    2    0    0 -0.10602146771E+03 -0.46064965177E+02  0.82688747679E+02  0.14212660831E+03  0.10566000000E+00 0.  1.
         13    1    1    2    0    0  0.60504993121E+02  0.67225029005E+02 -0.25618386775E+02  0.94001976693E+02  0.10566000000E+00 0. -1.
          4    1    1    2  501    0  0.45516474589E+02 -0.21160063828E+02 -0.81787945675E+02  0.95962314571E+02  0.00000000000E+00 0.  1.
</event>
<event>
 5    1  0.6336319E-005  0.2974824E+03  0.7818608E-02  0.1008350E+00
         -4   -1    0    0    0  501 -0.00000000000E+00  0.00000000000E+00  0.19825781440E+04  0.19825781440E+04  0.00000000000E+00 0. -1.
         21   -1    0    0  501  502  0.00000000000E+00 -0.00000000000E+00 -0.10846160269E+03  0.10846160269E+03  0.00000000000E+00 0. -1.
        -13    1    1    2    0    0 -0.28637572404E+03 -0.96137888452E+02  0.47699757153E+03  0.56460627284E+03  0.10566000000E+00 0.  1.
         13    1    1    2    0    0  0.27671990646E+03  0.10498484812E+03  0.14459230646E+04  0.14759028575E+04  0.10566000000E+00 0. -1.
         -4    1    1    2    0  502  0.96558175849E+01 -0.88469596638E+01 -0.48804094852E+02  0.50530616292E+02  0.00000000000E+00 0. -1.
</event>
<event>
 5    1  0.6336319E-005  0.3864075E+03  0.7818608E-02  0.9769143E-01
         21   -1    0    0  501  502  0.00000000000E+00  0.00000000000E+00  0.64862957369E+03  0.64862957369E+03  0.00000000000E+00 0. -1.
         -4   -1    0    0    0  501 -0.00000000000E+00 -0.00000000000E+00 -0.84226963085E+03  0.84226963085E+03  0.00000000000E+00 0. -1.
        -13    1    1    2    0    0 -0.30516762405E+02 -0.36590472998E+03 -0.35815323605E+03  0.51292425939E+03  0.10566000000E+00 0.  1.
         13    1    1    2    0    0 -0.81030053101E+02  0.52581169691E+03  0.40482021490E+03  0.66852316913E+03  0.10566000000E+00 0. -1.
         -4    1    1    2    0  502  0.11154681551E+03 -0.15990696693E+03 -0.24030703600E+03  0.30945177601E+03  0.00000000000E+00 0. -1.
</event>
<event>
 5    1  0.6336319E-005  0.4045798E+03  0.7818608E-02  0.9795302E-01
         -4   -1    0    0    0  501 -0.00000000000E+00  0.00000000000E+00  0.20144032126E+03  0.20144032126E+03  0.00000000000E+00 0. -1.
         21   -1    0    0  501  502  0.00000000000E+00 -0.00000000000E+00 -0.29352942980E+04  0.29352942980E+04  0.00000000000E+00 0. -1.
        -13    1    1    2    0    0 -0.83382400025E+02 -0.29627410014E+03 -0.16429055318E+03  0.34888732290E+03  0.10566000000E+00 0.  1.
         13    1    1    2    0    0 -0.38215597739E+03  0.12936867795E+03 -0.19687701393E+04  0.20096853780E+04  0.10566000000E+00 0. -1.
         -4    1    1    2    0  502  0.46553837742E+03  0.16690542219E+03 -0.60079328419E+03  0.77816191833E+03  0.00000000000E+00 0. -1.
</event>
<event>
 5    1  0.6336319E-005  0.6210055E+03  0.7818608E-02  0.9246195E-01
          4   -1    0    0  502    0 -0.00000000000E+00  0.00000000000E+00  0.29380278142E+04  0.29380278142E+04  0.00000000000E+00 0.  1.
         21   -1    0    0  501  502  0.00000000000E+00 -0.00000000000E+00 -0.61560431166E+03  0.61560431166E+03  0.00000000000E+00 0.  1.
        -13    1    1    2    0    0 -0.56168316658E+03 -0.30979311846E+03  0.22116153959E+04  0.23027597413E+04  0.10566000000E+00 0.  1.
         13    1    1    2    0    0  0.64584024775E+03 -0.12285232174E+03  0.35484069470E+03  0.74707044404E+03  0.10566000000E+00 0. -1.
          4    1    1    2  501    0 -0.84157081171E+02  0.43264544020E+03 -0.24403258802E+03  0.50380194050E+03  0.00000000000E+00 0.  1.
</event>
<event>
 5    1  0.6336319E-005  0.4413164E+03  0.7818608E-02  0.1004344E+00
         21   -1    0    0  501  502  0.00000000000E+00  0.00000000000E+00  0.26258246605E+03  0.26258246605E+03  0.00000000000E+00 0. -1.
         -4   -1    0    0    0  501 -0.00000000000E+00 -0.00000000000E+00 -0.14651372751E+04  0.14651372751E+04  0.00000000000E+00 0. -1.
        -13    1    1    2    0    0  0.91188565521E+02 -0.49436611890E+02 -0.46306283667E+03  0.47453823339E+03  0.10566000000E+00 0.  1.
         13    1    1    2    0    0  0.24923952153E+03  0.34389858105E+03 -0.67637519597E+03  0.79866763427E+03  0.10566000000E+00 0. -1.
         -4    1    1    2    0  502 -0.34042808705E+03 -0.29446196916E+03 -0.63116776414E+02  0.45451387349E+03  0.00000000000E+00 0. -1.
</event>
<event>
 5    1  0.6336319E-005  0.3967411E+03  0.7818608E-02  0.9981120E-01
         21   -1    0    0  501  502  0.00000000000E+00  0.00000000000E+00  0.34070018356E+03  0.34070018356E+03  0.00000000000E+00 0. -1.
         -4   -1    0    0    0  501 -0.00000000000E+00 -0.00000000000E+00 -0.75669396985E+03  0.75669396985E+03  0.00000000000E+00 0. -1.
        -13    1    1    2    0    0  0.90121971897E+02 -0.15004241676E+03 -0.53818028238E+02  0.18311495836E+03  0.10566000000E+00 0.  1.
         13    1    1    2    0    0 -0.48772271628E+01  0.48764388007E+03 -0.25285856973E+03  0.54932486614E+03  0.10566000000E+00 0. -1.
         -4    1    1    2    0  502 -0.85244744734E+02 -0.33760146330E+03 -0.10931718832E+03  0.36495432891E+03  0.00000000000E+00 0. -1.
</event>
<event>
 5    1  0.6336319E-005  0.5306946E+03  0.7818608E-02  0.9531667E-01
         21   -1    0    0  501  502  0.00000000000E+00  0.00000000000E+00  0.63856601568E+03  0.63856601568E+03  0.00000000000E+00 0. -1.
          4   -1    0    0  502    0 -0.00000000000E+00 -0.00000000000E+00 -0.10744899346E+04  0.10744899346E+04  0.00000000000E+00 0.  1.
        -13    1    1    2    0    0  0.83018892960E+02 -0.37126471692E+03 -0.35694435276E+03  0.52166934810E+03  0.10566000000E+00 0.  1.
         13    1    1    2    0    0 -0.14584498274E+02 -0.34380767426E+03  0.22524566367E+03  0.41128098016E+03  0.10566000000E+00 0. -1.
          4    1    1    2  501    0 -0.68434394686E+02  0.71507239118E+03 -0.30422522981E+03  0.78010562199E+03  0.00000000000E+00 0.  1.
</event>
<event>
 5    1  0.6336319E-005  0.4614621E+03  0.7818608E-02  0.9566691E-01
         21   -1    0    0  501  502  0.00000000000E+00  0.00000000000E+00  0.26562825117E+03  0.26562825117E+03  0.00000000000E+00 0.  1.
          4   -1    0    0  502    0 -0.00000000000E+00 -0.00000000000E+00 -0.24513296101E+04  0.24513296101E+04  0.00000000000E+00 0.  1.
        -13    1    1    2    0    0 -0.18774441809E+03  0.47980825005E+03 -0.12067052454E+04  0.13120981228E+04  0.10566000000E+00 0.  1.
         13    1    1    2    0    0  0.41701895532E+03 -0.21580378891E+03 -0.94288966213E+03  0.10533361337E+04  0.10566000000E+00 0. -1.
          4    1    1    2  501    0 -0.22927453723E+03 -0.26400446114E+03 -0.36106451423E+02  0.35152360484E+03  0.00000000000E+00 0.  1.
</event>
<event>
 5    1  0.6336319E-005  0.9980350E+02  0.7818608E-02  0.1164881E+00
         -4   -1    0    0    0  501 -0.00000000000E+00  0.00000000000E+00  0.43489513698E+02  0.43489513698E+02  0.00000000000E+00 0. -1.
         21   -1    0    0  501  502  0.00000000000E+00 -0.00000000000E+00 -0.46661433540E+03  0.46661433540E+03  0.00000000000E+00 0.  1.
        -13    1    1    2    0    0 -0.16326524349E+02 -0.10203954728E+03 -0.57710222254E+02  0.11836006727E+03  0.10566000000E+00 0.  1.
         13    1    1    2    0    0  0.66594741209E+01  0.93064242802E+02 -0.15499370088E+03  0.18090981278E+03  0.10566000000E+00 0. -1.
         -4    1    1    2    0  502  0.96670502283E+01  0.89753044806E+01 -0.21042089857E+03  0.21083396905E+03  0.00000000000E+00 0. -1.
</event>
<event>
 5    1  0.6336319E-005  0.6219123E+02  0.7818608E-02  0.1248839E+00
         21   -1    0    0  501  502  0.00000000000E+00  0.00000000000E+00  0.82094730411E+02  0.82094730411E+02  0.00000000000E+00 0. -1.
          4   -1    0    0  502    0 -0.00000000000E+00 -0.00000000000E+00 -0.20637143603E+03  0.20637143603E+03  0.00000000000E+00 0.  1.
        -13    1    1    2    0    0  0.63568311565E+02 -0.62384904404E+01 -0.17783883004E+03  0.18896166181E+03  0.10566000000E+00 0.  1.
         13    1    1    2    0    0 -0.40814862259E+02  0.21454171898E+02  0.55390688392E+02  0.72071311890E+02  0.10566000000E+00 0. -1.
          4    1    1    2  501    0 -0.22753449306E+02 -0.15215681457E+02 -0.18285639618E+01  0.27433192736E+02  0.00000000000E+00 0.  1.
</event>
<event>
 5    1  0.6336319E-005  0.2259927E+03  0.7818608E-02  0.1045505E+00
         21   -1    0    0  501  502  0.00000000000E+00  0.00000000000E+00  0.21967250071E+03  0.21967250071E+03  0.00000000000E+00 0. -1.
         -4   -1    0    0    0  501 -0.00000000000E+00 -0.00000000000E+00 -0.10795950169E+04  0.10795950169E+04  0.00000000000E+00 0. -1.
        -13    1    1    2    0    0  0.29163261813E+03 -0.48140883247E+02 -0.70706956505E+03  0.76636447568E+03  0.10566000000E+00 0.  1.
         13    1    1    2    0    0 -0.89598749232E+02  0.14940796269E+03 -0.23492152899E+03  0.29247018844E+03  0.10566000000E+00 0. -1.
         -4    1    1    2    0  502 -0.20203386890E+03 -0.10126707945E+03  0.82068577850E+02  0.24043285348E+03  0.00000000000E+00 0. -1.
</event>
<event>
 5    1  0.6336319E-005  0.4952933E+02  0.7818608E-02  0.1293717E+00
         21   -1    0    0  501  502  0.00000000000E+00  0.00000000000E+00  0.77474882901E+02  0.77474882901E+02  0.00000000000E+00 0.  1.
         -4   -1    0    0    0  501 -0.00000000000E+00 -0.00000000000E+00 -0.75275721467E+02  0.75275721467E+02  0.00000000000E+00 0. -1.
        -13    1    1    2    0    0  0.45027853303E+02  0.43703324218E+01 -0.35032195555E+01  0.45375005122E+02  0.10566000000E+00 0.  1.
         13    1    1    2    0    0 -0.42936189022E+02 -0.43509528108E+02 -0.15152274343E+02  0.62977757548E+02  0.10566000000E+00 0. -1.
         -4    1    1    2    0  502 -0.20916642804E+01  0.39139195686E+02  0.20854655332E+02  0.44397841698E+02  0.00000000000E+00 0. -1.
</event>
<event>
 5    1  0.6336319E-005  0.1410071E+03  0.7818608E-02  0.1110336E+00
         -4   -1    0    0    0  501 -0.00000000000E+00  0.00000000000E+00  0.95113459608E+02  0.95113459608E+02  0.00000000000E+00 0. -1.
         21   -1    0    0  501  502  0.00000000000E+00 -0.00000000000E+00 -0.44763970849E+03  0.44763970849E+03  0.00000000000E+00 0.  1.
        -13    1    1    2    0    0 -0.80629073596E+01 -0.13610790904E+03  0.39445370368E+01  0.13640360667E+03  0.10566000000E+00 0.  1.
         13    1    1    2    0    0  0.98750562412E+01  0.16463932852E+03 -0.32003909208E+03  0.36003979898E+03  0.10566000000E+00 0. -1.
         -4    1    1    2    0  502 -0.18121488817E+01 -0.28531419480E+02 -0.36431693836E+02  0.46309762436E+02  0.00000000000E+00 0. -1.
</event>
<event>
 5    1  0.6336319E-005  0.4921448E+03  0.7818608E-02  0.9682594E-01
         -4   -1    0    0    0  501 -0.00000000000E+00  0.00000000000E+00  0.27104016264E+04  0.27104016264E+04  0.00000000000E+00 0. -1.
         21   -1    0    0  501  502  0.00000000000E+00 -0.00000000000E+00 -0.15388519489E+03  0.15388519489E+03  0.00000000000E+00 0. -1.
        -13    1    1    2    0    0 -0.24644717193E+03 -0.54624050082E+02  0.67426723151E+03  0.71996965634E+03  0.10566000000E+00 0.  1.
         13    1    1    2    0    0 -0.26203571579E+03 -0.24975372712E+03  0.11306476871E+04  0.11871831553E+04  0.10566000000E+00 0. -1.
         -4    1    1    2    0  502  0.50848288772E+03  0.30437777720E+03  0.75160151285E+03  0.95713400968E+03  0.00000000000E+00 0. -1.
</event>
<event>
 5    1  0.7024238E-005  0.2974731E+03  0.7818608E-02  0.1008633E+00
          4   -1    0    0  502    0 -0.00000000000E+00  0.00000000000E+00  0.12611948209E+04  0.12611948209E+04  0.00000000000E+00 0.  1.
         21   -1    0    0  501  502  0.00000000000E+00 -0.00000000000E+00 -0.55904386865E+03  0.55904386865E+03  0.00000000000E+00 0.  1.
        -13    1    1    2    0    0  0.11873539603E+03 -0.12897069315E+03  0.45047451676E+03  0.48338270075E+03  0.10566000000E+00 0.  1.
         13    1    1    2    0    0 -0.24276068915E+03 -0.16727654547E+03  0.71483505347E+03  0.77324210937E+03  0.10566000000E+00 0. -1.
          4    1    1    2  501    0  0.12402529313E+03  0.29624723862E+03 -0.46315861796E+03  0.56361387946E+03  0.00000000000E+00 0.  1.
</event>
<event>
 5    1  0.6336319E-005  0.6401263E+03  0.7818608E-02  0.9214675E-01
          4   -1    0    0  502    0 -0.00000000000E+00  0.00000000000E+00  0.14490905424E+04  0.14490905424E+04  0.00000000000E+00 0.  1.
         21   -1    0    0  501  502  0.00000000000E+00 -0.00000000000E+00 -0.50766198061E+03  0.50766198061E+03  0.00000000000E+00 0. -1.
        -13    1    1    2    0    0  0.70262125150E+03  0.23263792989E+02  0.81625171279E+03  0.10772579528E+04  0.10566000000E+00 0.  1.
         13    1    1    2    0    0 -0.54190776444E+03 -0.16127501679E+03  0.26628063460E+03  0.62496323390E+03  0.10566000000E+00 0. -1.
          4    1    1    2  501    0 -0.16071348706E+03  0.13801122380E+03 -0.14110378563E+03  0.25453133626E+03  0.00000000000E+00 0.  1.
</event>
<event>
 5    1  0.6336319E-005  0.1495730E+03  0.7818608E-02  0.1101533E+00
          4   -1    0    0  502    0 -0.00000000000E+00  0.00000000000E+00  0.56619922648E+02  0.56619922648E+02  0.00000000000E+00 0.  1.
         21   -1    0    0  501  502  0.00000000000E+00 -0.00000000000E+00 -0.90533442219E+03  0.90533442219E+03  0.00000000000E+00 0. -1.
        -13    1    1    2    0    0  0.13529033244E+03  0.60670864470E+02 -0.81921525747E+02  0.16939768414E+03  0.10566000000E+00 0.  1.
         13    1    1    2    0    0 -0.14847717384E+03 -0.46028324141E+02 -0.46854204027E+03  0.49365547950E+03  0.10566000000E+00 0. -1.
          4    1    1    2  501    0  0.13186841401E+02 -0.14642540329E+02 -0.29825093352E+03  0.29890118120E+03  0.00000000000E+00 0.  1.
</event>
<event>
 5    1  0.6336319E-005  0.4973651E+03  0.7818608E-02  0.9633214E-01
         21   -1    0    0  501  502  0.00000000000E+00  0.00000000000E+00  0.17151112455E+04  0.17151112455E+04  0.00000000000E+00 0. -1.
          4   -1    0    0  502    0 -0.00000000000E+00 -0.00000000000E+00 -0.26633429750E+03  0.26633429750E+03  0.00000000000E+00 0.  1.
        -13    1    1    2    0    0 -0.28959453919E+02 -0.52308038594E+03  0.60949404043E+03  0.80370065112E+03  0.10566000000E+00 0.  1.
         13    1    1    2    0    0  0.28073417566E+03  0.76228894307E+02  0.17863115699E+03  0.34136728479E+03  0.10566000000E+00 0. -1.
          4    1    1    2  501    0 -0.25177472174E+03  0.44685149163E+03  0.66065175054E+03  0.83637760705E+03  0.00000000000E+00 0.  1.
</event>
<event>
 5    1  0.6336319E-005  0.5497809E+03  0.7818608E-02  0.9375064E-01
          4   -1    0    0  502    0 -0.00000000000E+00  0.00000000000E+00  0.19287959421E+04  0.19287959421E+04  0.00000000000E+00 0.  1.
         21   -1    0    0  501  502  0.00000000000E+00 -0.00000000000E+00 -0.27131269515E+03  0.27131269515E+03  0.00000000000E+00 0. -1.
        -13    1    1    2    0    0  0.18034774942E+03 -0.52359221583E+03  0.14450231051E+04  0.15475031194E+04  0.10566000000E+00 0.  1.
         13    1    1    2    0    0 -0.17722578226E+03  0.50663855426E+03  0.26407599626E+03  0.59818704895E+03  0.10566000000E+00 0. -1.
          4    1    1    2  501    0 -0.31219671572E+01  0.16953661568E+02 -0.51615854461E+02  0.54418468843E+02  0.00000000000E+00 0.  1.
</event>
<event>
 5    1  0.6336319E-005  0.3709286E+02  0.7818608E-02  0.1390776E+00
         21   -1    0    0  501  502  0.00000000000E+00  0.00000000000E+00  0.35716679745E+02  0.35716679745E+02  0.00000000000E+00 0.  1.
          4   -1    0    0  502    0 -0.00000000000E+00 -0.00000000000E+00 -0.21077522609E+03  0.21077522609E+03  0.00000000000E+00 0.  1.
        -13    1    1    2    0    0  0.53305568645E+02  0.13009555955E+02 -0.17843470251E+03  0.18668070714E+03  0.10566000000E+00 0.  1.
         13    1    1    2    0    0 -0.17571612436E+02 -0.97949448379E+01 -0.87515715649E+01  0.21938634344E+02  0.10566000000E+00 0. -1.
          4    1    1    2  501    0 -0.35733956209E+02 -0.32146111171E+01  0.12127727727E+02  0.37872564354E+02  0.00000000000E+00 0.  1.
</event>
<event>
 5    1  0.6336319E-005  0.4975213E+03  0.7818608E-02  0.9949214E-01
         21   -1    0    0  501  502  0.00000000000E+00  0.00000000000E+00  0.11044224183E+04  0.11044224183E+04  0.00000000000E+00 0.  1.
          4   -1    0    0  502    0 -0.00000000000E+00 -0.00000000000E+00 -0.29466933300E+03  0.29466933300E+03  0.00000000000E+00 0.  1.
        -13    1    1    2    0    0  0.42733220490E+03  0.33635478110E+03  0.49216030471E+03  0.73346378834E+03  0.10566000000E+00 0.  1.
         13    1    1    2    0    0 -0.48017932522E+02 -0.86132188833E+02 -0.18623919541E+02  0.10035605283E+03  0.10566000000E+00 0. -1.
          4    1    1    2  501    0 -0.37931427238E+03 -0.25022259226E+03  0.33621670009E+03  0.56527191008E+03  0.00000000000E+00 0.  1.
</event>
<event>
 5    1  0.6336319E-005  0.5067353E+03  0.7818608E-02  0.9748415E-01
         -4   -1    0    0    0  501 -0.00000000000E+00  0.00000000000E+00  0.30000483800E+04  0.30000483800E+04  0.00000000000E+00 0. -1.
         21   -1    0    0  501  502  0.00000000000E+00 -0.00000000000E+00 -0.14341474707E+03  0.14341474707E+03  0.00000000000E+00 0. -1.
        -13    1    1    2    0    0 -0.56006947953E+01 -0.18391782849E+03  0.10142338877E+04  0.10307897582E+04  0.10566000000E+00 0.  1.
         13    1    1    2    0    0 -0.26179962830E+02 -0.42203160415E+03  0.85243252485E+03  0.95154468415E+03  0.10566000000E+00 0. -1.
         -4    1    1    2    0  502  0.31780657625E+02  0.60594943264E+03  0.98996722033E+03  0.11611286847E+04  0.00000000000E+00 0. -1.
</event>
<event>
 5    1  0.6336319E-005  0.4669649E+03  0.7818608E-02  0.9759396E-01
         21   -1    0    0  501  502  0.00000000000E+00  0.00000000000E+00  0.22062548317E+03  0.22062548317E+03  0.00000000000E+00 0. -1.
          4   -1    0    0  502    0 -0.00000000000E+00 -0.00000000000E+00 -0.20533970855E+04  0.20533970855E+04  0.00000000000E+00 0.  1.
        -13    1    1    2    0    0 -0.43625458293E+03  0.31896586082E+02 -0.34889445056E+03  0.55952015346E+03  0.10566000000E+00 0.  1.
         13    1    1    2    0    0 -0.40696944893E+02  0.22271651324E+03 -0.85833833304E+03  0.88769566391E+03  0.10566000000E+00 0. -1.
          4    1    1    2  501    0  0.47695152783E+03 -0.25461309932E+03 -0.62553881870E+03  0.82680675127E+03  0.00000000000E+00 0.  1.
</event>
<event>
 5    1  0.6336319E-005  0.5619992E+03  0.7818608E-02  0.9351539E-01
          4   -1    0    0  502    0 -0.00000000000E+00  0.00000000000E+00  0.30866386100E+04  0.30866386100E+04  0.00000000000E+00 0.  1.
         21   -1    0    0  501  502  0.00000000000E+00 -0.00000000000E+00 -0.36284352126E+03  0.36284352126E+03  0.00000000000E+00 0.  1.
        -13    1    1    2    0    0 -0.54955883087E+03 -0.62161063059E+02  0.11392176045E+04  0.12663710625E+04  0.10566000000E+00 0.  1.
         13    1    1    2    0    0  0.56264946739E+03  0.78477884430E+02  0.18405788686E+04  0.19262564170E+04  0.10566000000E+00 0. -1.
          4    1    1    2  501    0 -0.13090636517E+02 -0.16316821371E+02 -0.25600138426E+03  0.25685465183E+03  0.00000000000E+00 0.  1.
</event>
<event>
 5    1  0.6336319E-005  0.3285849E+03  0.7818608E-02  0.9961590E-01
         21   -1    0    0  501  502  0.00000000000E+00  0.00000000000E+00  0.11100744522E+03  0.11100744522E+03  0.00000000000E+00 0. -1.
          4   -1    0    0  502    0 -0.00000000000E+00 -0.00000000000E+00 -0.17587701987E+04  0.17587701987E+04  0.00000000000E+00 0.  1.
        -13    1    1    2    0    0  0.11589792435E+03  0.33278250139E+03 -0.13430951830E+04  0.13885536374E+04  0.10566000000E+00 0.  1.
         13    1    1    2    0    0 -0.40521098632E+02 -0.25660205149E+03 -0.17607894097E+03  0.31383176525E+03  0.10566000000E+00 0. -1.
          4    1    1    2  501    0 -0.75376825719E+02 -0.76180449903E+02 -0.12858862947E+03  0.16739224125E+03  0.00000000000E+00 0.  1.
</event>
<event>
 5    1  0.6336319E-005  0.7213064E+03  0.7818608E-02  0.9092630E-01
         21   -1    0    0  501  502  0.00000000000E+00  0.00000000000E+00  0.72034370504E+03  0.72034370504E+03  0.00000000000E+00 0. -1.
         -4   -1    0    0    0  501 -0.00000000000E+00 -0.00000000000E+00 -0.12577721568E+04  0.12577721568E+04  0.00000000000E+00 0. -1.
        -13    1    1    2    0    0 -0.67129112906E+03 -0.16298077970E+03 -0.46827934413E+02  0.69237806227E+03  0.10566000000E+00 0.  1.
         13    1    1    2    0    0  0.60599058421E+03  0.50711456459E+03 -0.16441934705E+03  0.80710811086E+03  0.10566000000E+00 0. -1.
         -4    1    1    2    0  502  0.65300544846E+02 -0.34413378488E+03 -0.32618117027E+03  0.47862968869E+03  0.00000000000E+00 0. -1.
</event>
<event>
 5    1  0.6336319E-005  0.4727566E+03  0.7818608E-02  0.9615831E-01
         21   -1    0    0  501  502  0.00000000000E+00  0.00000000000E+00  0.11772930945E+04  0.11772930945E+04  0.00000000000E+00 0.  1.
          4   -1    0    0  502    0 -0.00000000000E+00 -0.00000000000E+00 -0.44404315847E+03  0.44404315847E+03  0.00000000000E+00 0.  1.
        -13    1    1    2    0    0  0.15797564799E+03 -0.16825764770E+03 -0.16288405388E+03  0.28248569440E+03  0.10566000000E+00 0.  1.
         13    1    1    2    0    0  0.31872215319E+03 -0.16785998490E+03  0.14613249109E+03  0.38873577348E+03  0.10566000000E+00 0. -1.
          4    1    1    2  501    0 -0.47669780118E+03  0.33611763260E+03  0.75000149878E+03  0.95011478505E+03  0.00000000000E+00 0.  1.
</event>
<event>
 5    1  0.6336319E-005  0.7334603E+02  0.7818608E-02  0.1306189E+00
         21   -1    0    0  501  502  0.00000000000E+00  0.00000000000E+00  0.20288449492E+03  0.20288449492E+03  0.00000000000E+00 0.  1.
          4   -1    0    0  502    0 -0.00000000000E+00 -0.00000000000E+00 -0.72674115013E+02  0.72674115013E+02  0.00000000000E+00 0.  1.
        -13    1    1    2    0    0 -0.58933698033E+02 -0.28458264719E+02 -0.42562248678E+02  0.78067981729E+02  0.10566000000E+00 0.  1.
         13    1    1    2    0    0 -0.11579649717E+02  0.30446640522E+01  0.65750362000E+02  0.66831725505E+02  0.10566000000E+00 0. -1.
          4    1    1    2  501    0  0.70513347750E+02  0.25413600667E+02  0.10702226658E+03  0.13065890270E+03  0.00000000000E+00 0.  1.
</event>
<event>
 5    1  0.6336319E-005  0.4750489E+03  0.7818608E-02  0.9776900E-01
         -4   -1    0    0    0  501 -0.00000000000E+00  0.00000000000E+00  0.11833817809E+04  0.11833817809E+04  0.00000000000E+00 0. -1.
         21   -1    0    0  501  502  0.00000000000E+00 -0.00000000000E+00 -0.29853724983E+03  0.29853724983E+03  0.00000000000E+00 0. -1.
        -13    1    1    2    0    0  0.14242628829E+03  0.14393382043E+03  0.13626190956E+03  0.24406866128E+03  0.10566000000E+00 0.  1.
         13    1    1    2    0    0 -0.30808629756E+03  0.33417174271E+03  0.49447835159E+03  0.67163738113E+03  0.10566000000E+00 0. -1.
         -4    1    1    2    0  502  0.16566000927E+03 -0.47810556314E+03  0.25410426993E+03  0.56621298835E+03  0.00000000000E+00 0. -1.
</event>
<event>
 5    1  0.6336319E-005  0.3693287E+03  0.7818608E-02  0.9927151E-01
         21   -1    0    0  501  502  0.00000000000E+00  0.00000000000E+00  0.22072367176E+03  0.22072367176E+03  0.00000000000E+00 0. -1.
         -4   -1    0    0    0  501 -0.00000000000E+00 -0.00000000000E+00 -0.19916328024E+04  0.19916328024E+04  0.00000000000E+00 0. -1.
        -13    1    1    2    0    0  0.23182165856E+03  0.11634529320E+03 -0.58583008878E+03  0.64068277073E+03  0.10566000000E+00 0.  1.
         13    1    1    2    0    0 -0.25844297653E+03  0.27721718578E+03 -0.65478426583E+02  0.38461614074E+03  0.10566000000E+00 0. -1.
         -4    1    1    2    0  502  0.26621317963E+02 -0.39356247897E+03 -0.11196006153E+04  0.11870575627E+04  0.00000000000E+00 0. -1.
</event>
<event>
 5    1  0.6336319E-005  0.3628852E+03  0.7818608E-02  0.9853189E-01
         -4   -1    0    0    0  501 -0.00000000000E+00  0.00000000000E+00  0.31688591652E+04  0.31688591652E+04  0.00000000000E+00 0. -1.
         21   -1    0    0  501  502  0.00000000000E+00 -0.00000000000E+00 -0.19842725565E+03  0.19842725565E+03  0.00000000000E+00 0. -1.
        -13    1    1    2    0    0  0.29085683002E+03 -0.19537235735E+03  0.15703842478E+04  0.16089980579E+04  0.10566000000E+00 0.  1.
         13    1    1    2    0    0 -0.17338624641E+03 -0.19034666858E+03  0.13229508015E+04  0.13477735266E+04  0.10566000000E+00 0. -1.
         -4    1    1    2    0  502 -0.11747058361E+03  0.38571902593E+03  0.77096860302E+02  0.41051483633E+03  0.00000000000E+00 0. -1.
</event>
<event>
 5    1  0.6336319E-005  0.5101791E+03  0.7818608E-02  0.9558866E-01
         -4   -1    0    0    0  501 -0.00000000000E+00  0.00000000000E+00  0.11560882036E+04  0.11560882036E+04  0.00000000000E+00 0. -1.
         21   -1    0    0  501  502  0.00000000000E+00 -0.00000000000E+00 -0.45961902755E+03  0.45961902755E+03  0.00000000000E+00 0.  1.
        -13    1    1    2    0    0 -0.47421797976E+02 -0.34798922422E+03  0.68725933484E+02  0.35786672407E+03  0.10566000000E+00 0.  1.
         13    1    1    2    0    0  0.49196535673E+03 -0.46088544247E+02  0.24902793793E+03  0.55332539357E+03  0.10566000000E+00 0. -1.
         -4    1    1    2    0  502 -0.44454355875E+03  0.39407776847E+03  0.37871530469E+03  0.70451511356E+03  0.00000000000E+00 0. -1.
</event>
<event>
 5    1  0.6336319E-005  0.6426369E+02  0.7818608E-02  0.1242633E+00
          4   -1    0    0  502    0 -0.00000000000E+00  0.00000000000E+00  0.39994138741E+03  0.39994138741E+03  0.00000000000E+00 0.  1.
         21   -1    0    0  501  502  0.00000000000E+00 -0.00000000000E+00 -0.28658844044E+02  0.28658844044E+02  0.00000000000E+00 0. -1.
        -13    1    1    2    0    0 -0.41992752646E+02  0.54035578749E+02  0.25515180122E+03  0.26416980879E+03  0.10566000000E+00 0.  1.
         13    1    1    2    0    0  0.65009576442E+02 -0.90409339867E+01  0.60419052872E+02  0.89210182325E+02  0.10566000000E+00 0. -1.
          4    1    1    2  501    0 -0.23016823796E+02 -0.44994644763E+02  0.55711689277E+02  0.75220240342E+02  0.00000000000E+00 0.  1.
</event>
<event>
 5    1  0.6336319E-005  0.5558757E+03  0.7818608E-02  0.9438858E-01
         21   -1    0    0  501  502  0.00000000000E+00  0.00000000000E+00  0.64552698248E+03  0.64552698248E+03  0.00000000000E+00 0. -1.
         -4   -1    0    0    0  501 -0.00000000000E+00 -0.00000000000E+00 -0.13055935195E+04  0.13055935195E+04  0.00000000000E+00 0. -1.
        -13    1    1    2    0    0 -0.56261562083E+03 -0.30408858535E+03 -0.31210323546E+03  0.71162816505E+03  0.10566000000E+00 0.  1.
         13    1    1    2    0    0 -0.84054913721E+02 -0.48417490446E+01 -0.49985806443E+03  0.50689916827E+03  0.10566000000E+00 0. -1.
         -4    1    1    2    0  502  0.64667053455E+03  0.30893033439E+03  0.15189476288E+03  0.73259316865E+03  0.00000000000E+00 0. -1.
</event>
<event>
 5    1  0.6336319E-005  0.4819884E+03  0.7818608E-02  0.9731461E-01
          4   -1    0    0  502    0 -0.00000000000E+00  0.00000000000E+00  0.76295153675E+03  0.76295153675E+03  0.00000000000E+00 0.  1.
         21   -1    0    0  501  502  0.00000000000E+00 -0.00000000000E+00 -0.52342110450E+03  0.52342110450E+03  0.00000000000E+00 0.  1.
        -13    1    1    2    0    0  0.47921556053E+03  0.13564130262E+03  0.27057887276E+03  0.56679718945E+03  0.10566000000E+00 0.  1.
         13    1    1    2    0    0  0.42410412155E+01 -0.22668518852E+03 -0.18180581605E+02  0.22745264526E+03  0.10566000000E+00 0. -1.
          4    1    1    2  501    0 -0.48345660174E+03  0.91043885901E+02 -0.12867858904E+02  0.49212280654E+03  0.00000000000E+00 0.  1.
</event>
<event>
 5    1  0.6336319E-005  0.1702021E+03  0.7818608E-02  0.1085152E+00
         21   -1    0    0  501  502  0.00000000000E+00  0.00000000000E+00  0.37305312581E+03  0.37305312581E+03  0.00000000000E+00 0.  1.
         -4   -1    0    0    0  501 -0.00000000000E+00 -0.00000000000E+00 -0.12440833847E+04  0.12440833847E+04  0.00000000000E+00 0. -1.
        -13    1    1    2    0    0  0.15553197130E+03  0.33501638048E+02  0.25995383674E+03  0.30477624948E+03  0.10566000000E+00 0.  1.
         13    1    1    2    0    0 -0.91135698252E+02 -0.19281561771E+03 -0.11200528598E+04  0.11401763012E+04  0.10566000000E+00 0. -1.
         -4    1    1    2    0  502 -0.64396273045E+02  0.15931397966E+03 -0.10931235806E+02  0.17218395980E+03  0.00000000000E+00 0. -1.
</event>
<event>
 5    1  0.6336319E-005  0.4639866E+03  0.7818608E-02  0.9636127E-01
         -4   -1    0    0    0  501 -0.00000000000E+00  0.00000000000E+00  0.73380190225E+03  0.73380190225E+03  0.00000000000E+00 0. -1.
         21   -1    0    0  501  502  0.00000000000E+00 -0.00000000000E+00 -0.69223417206E+03  0.69223417206E+03  0.00000000000E+00 0. -1.
        -13    1    1    2    0    0  0.33722680257E+03  0.10975513870E+03  0.12796520968E+03  0.37701884952E+03  0.10566000000E+00 0.  1.
         13    1    1    2    0    0  0.20929433370E+03  0.29729360528E+03 -0.44352574456E+02  0.36627144017E+03  0.10566000000E+00 0. -1.
         -4    1    1    2    0  502 -0.54652113627E+03 -0.40704874399E+03 -0.42044905036E+02  0.68274578461E+03  0.00000000000E+00 0. -1.
</event>
<event>
 5    1  0.6336319E-005  0.3236727E+02  0.7818608E-02  0.1386851E+00
         21   -1    0    0  501  502  0.00000000000E+00  0.00000000000E+00  0.21662258472E+02  0.21662258472E+02  0.00000000000E+00 0. -1.
         -4   -1    0    0    0  501 -0.00000000000E+00 -0.00000000000E+00 -0.12316135558E+03  0.12316135558E+03  0.00000000000E+00 0. -1.
        -13    1    1    2    0    0 -0.18117969687E+02 -0.18972156080E+02 -0.22681673018E+02  0.34679575932E+02  0.10566000000E+00 0.  1.
         13    1    1    2    0    0  0.37808130172E+02  0.97184935027E+01 -0.79294197447E+02  0.88382604260E+02  0.10566000000E+00 0. -1.
         -4    1    1    2    0  502 -0.19690160485E+02  0.92536625768E+01  0.47677335297E+00  0.21761433864E+02  0.00000000000E+00 0. -1.
</event>
<event>
 5    1  0.6336319E-005  0.9279674E+03  0.7818608E-02  0.8845384E-01
         -4   -1    0    0    0  501 -0.00000000000E+00  0.00000000000E+00  0.13189471801E+04  0.13189471801E+04  0.00000000000E+00 0. -1.
         21   -1    0    0  501  502  0.00000000000E+00 -0.00000000000E+00 -0.93111950963E+03  0.93111950963E+03  0.00000000000E+00 0.  1.
        -13    1    1    2    0    0  0.79027382854E+03  0.38267503530E+03  0.35036213385E+02  0.87874936935E+03  0.10566000000E+00 0.  1.
         13    1    1    2    0    0 -0.77043351834E+03 -0.63138263353E+03  0.76478619516E+02  0.99902994275E+03  0.10566000000E+00 0. -1.
         -4    1    1    2    0  502 -0.19840310197E+02  0.24870759823E+03  0.27631283754E+03  0.37228737759E+03  0.00000000000E+00 0. -1.
</event>
<event>
 5    1  0.6336319E-005  0.4803506E+03  0.7818608E-02  0.9749374E-01
         -4   -1    0    0    0  501 -0.00000000000E+00  0.00000000000E+00  0.56436521203E+03  0.56436521203E+03  0.00000000000E+00 0. -1.
         21   -1    0    0  501  502  0.00000000000E+00 -0.00000000000E+00 -0.67416733817E+03  0.67416733817E+03  0.00000000000E+00 0. -1.
        -13    1    1    2    0    0  0.19581410039E+03 -0.89519060996E+02  0.30071180882E+02  0.21739620806E+03  0.10566000000E+00 0.  1.
         13    1    1    2    0    0 -0.38411015390E+03 -0.33335984714E+03 -0.21500221546E+03  0.55217330779E+03  0.10566000000E+00 0. -1.
         -4    1    1    2    0  502  0.18829605351E+03  0.42287890813E+03  0.75128908440E+02  0.46896303436E+03  0.00000000000E+00 0. -1.
</event>
<event>
 5    1  0.6336319E-005  0.1008868E+04  0.7818608E-02  0.8766304E-01
          4   -1    0    0  502    0 -0.00000000000E+00  0.00000000000E+00  0.15020847125E+04  0.15020847125E+04  0.00000000000E+00 0.  1.
         21   -1    0    0  501  502  0.00000000000E+00 -0.00000000000E+00 -0.88829737859E+03  0.88829737859E+03  0.00000000000E+00 0. -1.
        -13    1    1    2    0    0 -0.10951691011E+04 -0.19026499492E+02  0.37107691601E+03  0.11564840926E+04  0.10566000000E+00 0.  1.
         13    1    1    2    0    0  0.92779766366E+03  0.15698735035E+03  0.33408912337E+03  0.99853346783E+03  0.10566000000E+00 0. -1.
          4    1    1    2  501    0  0.16737143747E+03 -0.13796085086E+03 -0.91378705492E+02  0.23536453061E+03  0.00000000000E+00 0.  1.
</event>
<event>
 5    1  0.6336319E-005  0.5021674E+03  0.7818608E-02  0.9773316E-01
         21   -1    0    0  501  502  0.00000000000E+00  0.00000000000E+00  0.93392698062E+02  0.93392698062E+02  0.00000000000E+00 0. -1.
         -4   -1    0    0    0  501 -0.00000000000E+00 -0.00000000000E+00 -0.39542108633E+04  0.39542108633E+04  0.00000000000E+00 0. -1.
        -13    1    1    2    0    0  0.66878632192E+02 -0.16014157741E+03 -0.89138657852E+03  0.90812340559E+03  0.10566000000E+00 0.  1.
         13    1    1    2    0    0 -0.10861630083E+03  0.57677137490E+03 -0.14744168260E+04  0.15869365796E+04  0.10566000000E+00 0. -1.
         -4    1    1    2    0  502  0.41737668636E+02 -0.41662979748E+03 -0.14950147607E+04  0.15525435761E+04  0.00000000000E+00 0. -1.
</event>
<event>
 5    1  0.6336319E-005  0.4832455E+03  0.7818608E-02  0.9797118E-01
         21   -1    0    0  501  502  0.00000000000E+00  0.00000000000E+00  0.77337213624E+03  0.77337213624E+03  0.00000000000E+00 0. -1.
         -4   -1    0    0    0  501 -0.00000000000E+00 -0.00000000000E+00 -0.84373835993E+03  0.84373835993E+03  0.00000000000E+00 0. -1.
        -13    1    1    2    0    0  0.64376369414E+02  0.16755669757E+03 -0.48799412159E+03  0.51995945776E+03  0.10566000000E+00 0.  1.
         13    1    1    2    0    0  0.58459740192E+02 -0.53886013836E+03  0.45033529609E+03  0.70469119478E+03  0.10566000000E+00 0. -1.
         -4    1    1    2    0  502 -0.12283610961E+03  0.37130344079E+03 -0.32707398188E+02  0.39245984363E+03  0.00000000000E+00 0. -1.
</event>
<event>
 5    1  0.6336319E-005  0.5071831E+03  0.7818608E-02  0.9645254E-01
         21   -1    0    0  501  502  0.00000000000E+00  0.00000000000E+00  0.29662064403E+03  0.29662064403E+03  0.00000000000E+00 0.  1.
          4   -1    0    0  502    0 -0.00000000000E+00 -0.00000000000E+00 -0.21993190608E+04  0.21993190608E+04  0.00000000000E+00 0.  1.
        -13    1    1    2    0    0  0.59649009701E+03 -0.52269715157E+02 -0.36287087977E+03  0.70014844533E+03  0.10566000000E+00 0.  1.
         13    1    1    2    0    0 -0.20251359603E+03 -0.16768079476E+03 -0.12064770526E+04  0.12347937055E+04  0.10566000000E+00 0. -1.
          4    1    1    2  501    0 -0.39397650098E+03  0.21995050992E+03 -0.33335048440E+03  0.56099755400E+03  0.00000000000E+00 0.  1.
</event>
<event>
 5    1  0.6336319E-005  0.1117556E+03  0.7818608E-02  0.1147001E+00
         21   -1    0    0  501  502  0.00000000000E+00  0.00000000000E+00  0.30665819431E+03  0.30665819431E+03  0.00000000000E+00 0.  1.
          4   -1    0    0  502    0 -0.00000000000E+00 -0.00000000000E+00 -0.11080792370E+03  0.11080792370E+03  0.00000000000E+00 0.  1.
        -13    1    1    2    0    0  0.10757752419E+03 -0.43031651286E+02  0.28753335711E+02  0.11937927878E+03  0.10566000000E+00 0.  1.
         13    1    1    2    0    0  0.15994089965E+01  0.11021019929E+03  0.39142928355E+02  0.11696591872E+03  0.10566000000E+00 0. -1.
          4    1    1    2  501    0 -0.10917693319E+03 -0.67178548008E+02  0.12795400654E+03  0.18112092050E+03  0.00000000000E+00 0.  1.
</event>
<event>
 5    1  0.6336319E-005  0.1077785E+03  0.7818608E-02  0.1152290E+00
         21   -1    0    0  501  502  0.00000000000E+00  0.00000000000E+00  0.53739858560E+03  0.53739858560E+03  0.00000000000E+00 0. -1.
          4   -1    0    0  502    0 -0.00000000000E+00 -0.00000000000E+00 -0.11829027841E+03  0.11829027841E+03  0.00000000000E+00 0.  1.
        -13    1    1    2    0    0 -0.48739047207E+02  0.93746466675E+02 -0.63670426660E+02  0.12336056555E+03  0.10566000000E+00 0.  1.
         13    1    1    2    0    0  0.49417637385E+02 -0.10703181181E+03  0.11627493409E+03  0.16558316064E+03  0.10566000000E+00 0. -1.
          4    1    1    2  501    0 -0.67859017773E+00  0.13285345136E+02  0.36650379976E+03  0.36674513783E+03  0.00000000000E+00 0.  1.
</event>
<event>
 5    1  0.6336319E-005  0.4170022E+03  0.7818608E-02  0.9740669E-01
          4   -1    0    0  502    0 -0.00000000000E+00  0.00000000000E+00  0.13552114987E+04  0.13552114987E+04  0.00000000000E+00 0.  1.
         21   -1    0    0  501  502  0.00000000000E+00 -0.00000000000E+00 -0.39085277137E+03  0.39085277137E+03  0.00000000000E+00 0.  1.
        -13    1    1    2    0    0  0.24881468193E+03  0.16353410551E+02  0.66250624044E+03  0.70787760931E+03  0.10566000000E+00 0.  1.
         13    1    1    2    0    0  0.12383282143E+03 -0.31571284840E+03  0.42583070337E+03  0.54437208727E+03  0.10566000000E+00 0. -1.
          4    1    1    2  501    0 -0.37264750336E+03  0.29935943785E+03 -0.12397821650E+03  0.49381457345E+03  0.00000000000E+00 0.  1.
</event>
<event>
 5    1  0.6336319E-005  0.2333787E+02  0.7818608E-02  0.1498490E+00
         21   -1    0    0  501  502  0.00000000000E+00  0.00000000000E+00  0.10376725272E+02  0.10376725272E+02  0.00000000000E+00 0. -1.
         -4   -1    0    0    0  501 -0.00000000000E+00 -0.00000000000E+00 -0.14352931659E+03  0.14352931659E+03  0.00000000000E+00 0. -1.
        -13    1    1    2    0    0  0.63885394715E-01  0.14840011742E+02 -0.48357589994E+02  0.50583571482E+02  0.10566000000E+00 0.  1.
         13    1    1    2    0    0  0.42068994361E+01 -0.34646346504E+02 -0.70052385862E+02  0.78265032153E+02  0.10566000000E+00 0. -1.
         -4    1    1    2    0  502 -0.42707848308E+01  0.19806334762E+02 -0.14742615460E+02  0.25057438225E+02  0.00000000000E+00 0. -1.
</event>
<event>
 5    1  0.6336319E-005  0.4063947E+03  0.7818608E-02  0.9710757E-01
         21   -1    0    0  501  502  0.00000000000E+00  0.00000000000E+00  0.13032900395E+03  0.13032900395E+03  0.00000000000E+00 0.  1.
         -4   -1    0    0    0  501 -0.00000000000E+00 -0.00000000000E+00 -0.16251743771E+04  0.16251743771E+04  0.00000000000E+00 0. -1.
        -13    1    1    2    0    0 -0.40728735645E+03 -0.26901613535E+02 -0.10432430638E+04  0.11202512168E+04  0.10566000000E+00 0.  1.
         13    1    1    2    0    0  0.40366275977E+03 -0.67925327862E+01 -0.44478293298E+03  0.60068430208E+03  0.10566000000E+00 0. -1.
         -4    1    1    2    0  502  0.36245966721E+01  0.33694146321E+02 -0.68193763664E+01  0.34567862117E+02  0.00000000000E+00 0. -1.
</event>
<event>
 5    1  0.6336319E-005  0.4547846E+03  0.7818608E-02  0.9887626E-01
         21   -1    0    0  501  502  0.00000000000E+00  0.00000000000E+00  0.63836599044E+03  0.63836599044E+03  0.00000000000E+00 0. -1.
         -4   -1    0    0    0  501 -0.00000000000E+00 -0.00000000000E+00 -0.54712802943E+03  0.54712802943E+03  0.00000000000E+00 0. -1.
        -13    1    1    2    0    0 -0.15835843862E+03  0.72444376365E+01  0.11064173998E+03  0.19331705241E+03  0.10566000000E+00 0.  1.
         13    1    1    2    0    0 -0.32900106250E+03  0.11918207260E+03 -0.25825500939E+03  0.43490427291E+03  0.10566000000E+00 0. -1.
         -4    1    1    2    0  502  0.48735950112E+03 -0.12642651024E+03  0.23885123043E+03  0.55727269456E+03  0.00000000000E+00 0. -1.
</event>
<event>
 5    1  0.6336319E-005  0.4855747E+03  0.7818608E-02  0.9777200E-01
          4   -1    0    0  502    0 -0.00000000000E+00  0.00000000000E+00  0.13736990155E+04  0.13736990155E+04  0.00000000000E+00 0.  1.
         21   -1    0    0  501  502  0.00000000000E+00 -0.00000000000E+00 -0.25512167373E+03  0.25512167373E+03  0.00000000000E+00 0.  1.
        -13    1    1    2    0    0  0.32380360793E+03  0.44955469807E+03  0.36417443062E+03  0.66300168186E+03  0.10566000000E+00 0.  1.
         13    1    1    2    0    0 -0.61170724548E+01 -0.18931138753E+03  0.19489390695E+03  0.27177171699E+03  0.10566000000E+00 0. -1.
          4    1    1    2  501    0 -0.31768653548E+03 -0.26024331054E+03  0.55950900426E+03  0.69404729043E+03  0.00000000000E+00 0.  1.
</event>
<event>
 5    1  0.6336319E-005  0.3665027E+03  0.7818608E-02  0.1037683E+00
         -4   -1    0    0    0  501 -0.00000000000E+00  0.00000000000E+00  0.65931627385E+03  0.65931627385E+03  0.00000000000E+00 0. -1.
         21   -1    0    0  501  502  0.00000000000E+00 -0.00000000000E+00 -0.51535540143E+03  0.51535540143E+03  0.00000000000E+00 0. -1.
        -13    1    1    2    0    0  0.10849536102E+02 -0.62521931559E+02  0.33823201431E+03  0.34413312980E+03  0.10566000000E+00 0.  1.
         13    1    1    2    0    0 -0.34436244749E+03  0.15220509208E+03 -0.28645830225E+03  0.47308588585E+03  0.10566000000E+00 0. -1.
         -4    1    1    2    0  502  0.33351291139E+03 -0.89683160522E+02  0.92187160356E+02  0.35745265963E+03  0.00000000000E+00 0. -1.
</event>
<event>
 5    1  0.6336319E-005  0.2867606E+03  0.7818608E-02  0.1012925E+00
          4   -1    0    0  502    0 -0.00000000000E+00  0.00000000000E+00  0.50321558930E+03  0.50321558930E+03  0.00000000000E+00 0.  1.
         21   -1    0    0  501  502  0.00000000000E+00 -0.00000000000E+00 -0.42112383885E+03  0.42112383885E+03  0.00000000000E+00 0. -1.
        -13    1    1    2    0    0  0.30159854390E+03  0.61328926955E+02  0.35728413872E+03  0.47156641728E+03  0.10566000000E+00 0.  1.
         13    1    1    2    0    0 -0.22789625418E+03  0.13817718914E+02 -0.10190844020E+03  0.25002594540E+03  0.10566000000E+00 0. -1.
          4    1    1    2  501    0 -0.73702289723E+02 -0.75146645869E+02 -0.17328394808E+03  0.20274706547E+03  0.00000000000E+00 0.  1.
</event>
<event>
 5    1  0.6336319E-005  0.1893957E+03  0.7818608E-02  0.1067659E+00
          4   -1    0    0  502    0 -0.00000000000E+00  0.00000000000E+00  0.18443721964E+03  0.18443721964E+03  0.00000000000E+00 0.  1.
         21   -1    0    0  501  502  0.00000000000E+00 -0.00000000000E+00 -0.31413896253E+03  0.31413896253E+03  0.00000000000E+00 0. -1.
        -13    1    1    2    0    0 -0.22058513791E+03  0.22824205192E+02 -0.81369856464E+01  0.22191207518E+03  0.10566000000E+00 0.  1.
         13    1    1    2    0    0  0.14072123759E+03 -0.64376414208E+02 -0.99490421322E+02  0.18397049903E+03  0.10566000000E+00 0. -1.
          4    1    1    2  501    0  0.79863900325E+02  0.41552209017E+02 -0.22074335921E+02  0.92693607955E+02  0.00000000000E+00 0.  1.
</event>
<event>
 5    1  0.6336319E-005  0.1980901E+03  0.7818608E-02  0.1061453E+00
         21   -1    0    0  501  502  0.00000000000E+00  0.00000000000E+00  0.17687553972E+03  0.17687553972E+03  0.00000000000E+00 0. -1.
         -4   -1    0    0    0  501 -0.00000000000E+00 -0.00000000000E+00 -0.12726792380E+04  0.12726792380E+04  0.00000000000E+00 0. -1.
        -13    1    1    2    0    0  0.20677484823E+03  0.28381754364E+02 -0.86322748318E+03  0.88810081676E+03  0.10566000000E+00 0.  1.
         13    1    1    2    0    0 -0.17664440121E+03 -0.38512713232E+02 -0.37458376161E+03  0.41593206078E+03  0.10566000000E+00 0. -1.
         -4    1    1    2    0  502 -0.30130447017E+02  0.10130958868E+02  0.14200754651E+03  0.14552190018E+03  0.00000000000E+00 0. -1.
</event>
<event>
 5    1  0.6336319E-005  0.8175694E+02  0.7818608E-02  0.1198869E+00
         21   -1    0    0  501  502  0.00000000000E+00  0.00000000000E+00  0.14774027604E+03  0.14774027604E+03  0.00000000000E+00 0.  1.
         -4   -1    0    0    0  501 -0.00000000000E+00 -0.00000000000E+00 -0.45514157928E+03  0.45514157928E+03  0.00000000000E+00 0. -1.
        -13    1    1    2    0    0  0.61610906053E+02 -0.11036449298E+03 -0.51602375607E+02  0.13652487461E+03  0.10566000000E+00 0.  1.
         13    1    1    2    0    0 -0.47552435008E+02  0.61116861356E+02 -0.35036094980E+03  0.35881654244E+03  0.10566000000E+00 0. -1.
         -4    1    1    2    0  502 -0.14058471045E+02  0.49247631624E+02  0.94562022168E+02  0.10754043828E+03  0.00000000000E+00 0. -1.
</event>
<event>
 5    1  0.6336319E-005  0.3840782E+03  0.7818608E-02  0.9776188E-01
         21   -1    0    0  501  502  0.00000000000E+00  0.00000000000E+00  0.23353207979E+03  0.23353207979E+03  0.00000000000E+00 0.  1.
          4   -1    0    0  502    0 -0.00000000000E+00 -0.00000000000E+00 -0.27244819587E+04  0.27244819587E+04  0.00000000000E+00 0.  1.
        -13    1    1    2    0    0  0.19409287170E+03  0.43983820129E+03 -0.14590014616E+04  0.15361689237E+04  0.10566000000E+00 0.  1.
         13    1    1    2    0    0 -0.33597666528E+03 -0.13413697415E+03 -0.10225872938E+04  0.10846925057E+04  0.10566000000E+00 0. -1.
          4    1    1    2  501    0  0.14188379358E+03 -0.30570122714E+03 -0.93611235707E+01  0.33715260905E+03  0.00000000000E+00 0.  1.
</event>
<event>
 5    1  0.6336319E-005  0.4424372E+03  0.7818608E-02  0.9654656E-01
         21   -1    0    0  501  502  0.00000000000E+00  0.00000000000E+00  0.68035781268E+03  0.68035781268E+03  0.00000000000E+00 0. -1.
         -4   -1    0    0    0  501 -0.00000000000E+00 -0.00000000000E+00 -0.95025434502E+03  0.95025434502E+03  0.00000000000E+00 0. -1.
        -13    1    1    2    0    0 -0.43223181546E+03 -0.19799474416E+03 -0.17524587225E+03  0.50669259706E+03  0.10566000000E+00 0.  1.
         13    1    1    2    0    0 -0.28852898056E+03  0.20321429062E+03  0.11851744709E+03  0.37227868185E+03  0.10566000000E+00 0. -1.
         -4    1    1    2    0  502  0.72076079602E+03 -0.52195464570E+01 -0.21316810718E+03  0.75164087878E+03  0.00000000000E+00 0. -1.
</event>
<event>
 5    1  0.6336319E-005  0.5041135E+03  0.7818608E-02  0.9643621E-01
         21   -1    0    0  501  502  0.00000000000E+00  0.00000000000E+00  0.56513788285E+03  0.56513788285E+03  0.00000000000E+00 0.  1.
          4   -1    0    0  502    0 -0.00000000000E+00 -0.00000000000E+00 -0.12574487602E+04  0.12574487602E+04  0.00000000000E+00 0.  1.
        -13    1    1    2    0    0  0.36467941772E+03 -0.16949040994E+03 -0.63666892558E+02  0.40715053868E+03  0.10566000000E+00 0.  1.
         13    1    1    2    0    0  0.11188378337E+03 -0.24495910821E+03 -0.72789511211E+03  0.77611484400E+03  0.10566000000E+00 0. -1.
          4    1    1    2  501    0 -0.47656320109E+03  0.41444951815E+03  0.99251127289E+02  0.63932126040E+03  0.00000000000E+00 0.  1.
</event>
<event>
 5    1  0.6336319E-005  0.2585277E+02  0.7818608E-02  0.1441676E+00
         -4   -1    0    0    0  501 -0.00000000000E+00  0.00000000000E+00  0.45002889329E+02  0.45002889329E+02  0.00000000000E+00 0. -1.
         21   -1    0    0  501  502  0.00000000000E+00 -0.00000000000E+00 -0.27568938859E+03  0.27568938859E+03  0.00000000000E+00 0. -1.
        -13    1    1    2    0    0 -0.79930234460E+01  0.18415900177E+02  0.86416456384E+01  0.21856875497E+02  0.10566000000E+00 0.  1.
         13    1    1    2    0    0  0.19503870077E+02 -0.29521404778E+02  0.18898870878E+02  0.40113498632E+02  0.10566000000E+00 0. -1.
         -4    1    1    2    0  502 -0.11510846631E+02  0.11105504601E+02 -0.25822701578E+03  0.25872190379E+03  0.00000000000E+00 0. -1.
</event>
<event>
 5    1  0.6336319E-005  0.3938096E+03  0.7818608E-02  0.9747096E-01
         21   -1    0    0  501  502  0.00000000000E+00  0.00000000000E+00  0.87288515685E+02  0.87288515685E+02  0.00000000000E+00 0.  1.
         -4   -1    0    0    0  501 -0.00000000000E+00 -0.00000000000E+00 -0.22139575033E+04  0.22139575033E+04  0.00000000000E+00 0. -1.
        -13    1    1    2    0    0  0.16074868518E+03 -0.31623441675E+03 -0.68993667167E+03  0.77579441104E+03  0.10566000000E+00 0.  1.
         13    1    1    2    0    0 -0.17599704789E+03  0.38539171150E+03 -0.13412367094E+04  0.14065623533E+04  0.10566000000E+00 0. -1.
         -4    1    1    2    0  502  0.15248362707E+02 -0.69157294748E+02 -0.95495606598E+02  0.11888925461E+03  0.00000000000E+00 0. -1.
</event>
<event>
 5    1  0.6336319E-005  0.2222501E+03  0.7818608E-02  0.1045867E+00
         21   -1    0    0  501  502  0.00000000000E+00  0.00000000000E+00  0.17988399072E+04  0.17988399072E+04  0.00000000000E+00 0.  1.
          4   -1    0    0  502    0 -0.00000000000E+00 -0.00000000000E+00 -0.13996715174E+03  0.13996715174E+03  0.00000000000E+00 0.  1.
        -13    1    1    2    0    0 -0.18118620621E+03 -0.16014630489E+03 -0.65840225098E+01  0.24190626451E+03  0.10566000000E+00 0.  1.
         13    1    1    2    0    0  0.10357738039E+03  0.11327906747E+03  0.40377948190E+03  0.43197025595E+03  0.10566000000E+00 0. -1.
          4    1    1    2  501    0  0.77608825818E+02  0.46867237421E+02  0.12616772960E+04  0.12649305385E+04  0.00000000000E+00 0.  1.
</event>
<event>
 5    1  0.6336319E-005  0.4930479E+03  0.7818608E-02  0.9645870E-01
          4   -1    0    0  502    0 -0.00000000000E+00  0.00000000000E+00  0.15422540712E+04  0.15422540712E+04  0.00000000000E+00 0.  1.
         21   -1    0    0  501  502  0.00000000000E+00 -0.00000000000E+00 -0.59426726512E+03  0.59426726512E+03  0.00000000000E+00 0.  1.
        -13    1    1    2    0    0  0.56074394026E+03 -0.62205050378E+02 -0.36752713424E+03  0.67333456795E+03  0.10566000000E+00 0.  1.
         13    1    1    2    0    0 -0.28113314624E+03 -0.50145530711E+02  0.93596645107E+03  0.97856202096E+03  0.10566000000E+00 0. -1.
          4    1    1    2  501    0 -0.27961079401E+03  0.11235058109E+03  0.37954748923E+03  0.48462474739E+03  0.00000000000E+00 0.  1.
</event>
<event>
 5    1  0.6336319E-005  0.5614776E+03  0.7818608E-02  0.9469628E-01
         -4   -1    0    0    0  501 -0.00000000000E+00  0.00000000000E+00  0.31120073107E+04  0.31120073107E+04  0.00000000000E+00 0. -1.
         21   -1    0    0  501  502  0.00000000000E+00 -0.00000000000E+00 -0.30842846566E+03  0.30842846566E+03  0.00000000000E+00 0.  1.
        -13    1    1    2    0    0 -0.48692906448E+03  0.50443392778E+03  0.66383613643E+03  0.96552158366E+03  0.10566000000E+00 0.  1.
         13    1    1    2    0    0 -0.52145693763E+02 -0.34741323330E+03  0.17157144419E+04  0.17513112759E+04  0.10566000000E+00 0. -1.
         -4    1    1    2    0  502  0.53907475824E+03 -0.15702069447E+03  0.42402826676E+03  0.70360291676E+03  0.00000000000E+00 0. -1.
</event>
<event>
 5    1  0.6336319E-005  0.5088882E+03  0.7818608E-02  0.9458701E-01
          4   -1    0    0  502    0 -0.00000000000E+00  0.00000000000E+00  0.18834813400E+04  0.18834813400E+04  0.00000000000E+00 0.  1.
         21   -1    0    0  501  502  0.00000000000E+00 -0.00000000000E+00 -0.39659403910E+03  0.39659403910E+03  0.00000000000E+00 0.  1.
        -13    1    1    2    0    0  0.32125517849E+03  0.40023124471E+03  0.13607433486E+04  0.14543082242E+04  0.10566000000E+00 0.  1.
         13    1    1    2    0    0 -0.31236365154E+03 -0.38642669005E+03  0.34588098240E+03  0.60541746154E+03  0.10566000000E+00 0. -1.
          4    1    1    2  501    0 -0.88915269580E+01 -0.13804554652E+02 -0.21973703010E+03  0.22034969340E+03  0.00000000000E+00 0.  1.
</event>
<event>
 5    1  0.6336319E-005  0.7110369E+03  0.7818608E-02  0.9107120E-01
         21   -1    0    0  501  502  0.00000000000E+00  0.00000000000E+00  0.25521935099E+03  0.25521935099E+03  0.00000000000E+00 0.  1.
         -4   -1    0    0    0  501 -0.00000000000E+00 -0.00000000000E+00 -0.22519689531E+04  0.22519689531E+04  0.00000000000E+00 0. -1.
        -13    1    1    2    0    0  0.55877641976E+03  0.46259244911E+03 -0.91232536267E+03  0.11655730092E+04  0.10566000000E+00 0.  1.
         13    1    1    2    0    0 -0.54328425117E+03 -0.44067928020E+03 -0.11049885960E+04  0.13078057249E+04  0.10566000000E+00 0. -1.
         -4    1    1    2    0  502 -0.15492168589E+02 -0.21913168914E+02  0.20564356600E+02  0.33809569974E+02  0.00000000000E+00 0. -1.
</event>
<event>
 5    1  0.6336319E-005  0.1065579E+03  0.7818608E-02  0.1154139E+00
         21   -1    0    0  501  502  0.00000000000E+00  0.00000000000E+00  0.11712761827E+04  0.11712761827E+04  0.00000000000E+00 0. -1.
         -4   -1    0    0    0  501 -0.00000000000E+00 -0.00000000000E+00 -0.76257372306E+02  0.76257372306E+02  0.00000000000E+00 0. -1.
        -13    1    1    2    0    0  0.23768273135E+02 -0.10575286106E+03  0.64893448794E+03  0.65792444797E+03  0.10566000000E+00 0.  1.
         13    1    1    2    0    0 -0.34418847031E+02  0.10076683059E+03 -0.32149708195E+02  0.11123050876E+03  0.10566000000E+00 0. -1.
         -4    1    1    2    0  502  0.10650573896E+02  0.49860304723E+01  0.47823403069E+03  0.47837859832E+03  0.00000000000E+00 0. -1.
</event>
<event>
 5    1  0.6336319E-005  0.6589257E+02  0.7818608E-02  0.1269643E+00
         21   -1    0    0  501  502  0.00000000000E+00  0.00000000000E+00  0.16505014178E+02  0.16505014178E+02  0.00000000000E+00 0. -1.
         -4   -1    0    0    0  501 -0.00000000000E+00 -0.00000000000E+00 -0.50116219383E+03  0.50116219383E+03  0.00000000000E+00 0. -1.
        -13    1    1    2    0    0  0.34006392895E+02 -0.43251890730E+00 -0.18268564055E+03  0.18582431557E+03  0.10566000000E+00 0.  1.
         13    1    1    2    0    0  0.19418863836E+01 -0.62028802705E+02 -0.17721160697E+03  0.18776396912E+03  0.10566000000E+00 0. -1.
         -4    1    1    2    0  502 -0.35948279279E+02  0.62461321612E+02 -0.12475993213E+03  0.14407892332E+03  0.00000000000E+00 0. -1.
</event>
<event>
 5    1  0.6336319E-005  0.4259601E+03  0.7818608E-02  0.9673381E-01
         21   -1    0    0  501  502  0.00000000000E+00  0.00000000000E+00  0.24648560415E+03  0.24648560415E+03  0.00000000000E+00 0.  1.
          4   -1    0    0  502    0 -0.00000000000E+00 -0.00000000000E+00 -0.23070114281E+04  0.23070114281E+04  0.00000000000E+00 0.  1.
        -13    1    1    2    0    0  0.20378129381E+03 -0.36355560907E+03 -0.11610410259E+04  0.12335784416E+04  0.10566000000E+00 0.  1.
         13    1    1    2    0    0  0.26198165317E+03  0.30500974187E+03 -0.70541139185E+03  0.81195478454E+03  0.10566000000E+00 0. -1.
          4    1    1    2  501    0 -0.46576294698E+03  0.58545867205E+02 -0.19407340625E+03  0.50796380615E+03  0.00000000000E+00 0.  1.
</event>
<event>
 5    1  0.6336319E-005  0.5014157E+03  0.7818608E-02  0.9585221E-01
         21   -1    0    0  501  502  0.00000000000E+00  0.00000000000E+00  0.40541980144E+03  0.40541980144E+03  0.00000000000E+00 0.  1.
         -4   -1    0    0    0  501 -0.00000000000E+00 -0.00000000000E+00 -0.14127509403E+04  0.14127509403E+04  0.00000000000E+00 0. -1.
        -13    1    1    2    0    0  0.30577368231E+03  0.14083491677E+03  0.27872425762E+02  0.33780009156E+03  0.10566000000E+00 0.  1.
         13    1    1    2    0    0  0.31431782213E+02 -0.53641205674E+03 -0.49241878005E+03  0.72883613910E+03  0.10566000000E+00 0. -1.
         -4    1    1    2    0  502 -0.33720546452E+03  0.39557713998E+03 -0.54278478456E+03  0.75153451107E+03  0.00000000000E+00 0. -1.
</event>
<event>
 5    1  0.6336319E-005  0.2057908E+03  0.7818608E-02  0.1056237E+00
         21   -1    0    0  501  502  0.00000000000E+00  0.00000000000E+00  0.27893390457E+03  0.27893390457E+03  0.00000000000E+00 0.  1.
         -4   -1    0    0    0  501 -0.00000000000E+00 -0.00000000000E+00 -0.20920277114E+03  0.20920277114E+03  0.00000000000E+00 0. -1.
        -13    1    1    2    0    0  0.18459382298E+03 -0.56473567311E+02  0.11531241613E+03  0.22485797243E+03  0.10566000000E+00 0.  1.
         13    1    1    2    0    0 -0.20233399032E+03  0.60877157997E+02 -0.78680556126E+02  0.22546776506E+03  0.10566000000E+00 0. -1.
         -4    1    1    2    0  502  0.17740167343E+02 -0.44035906866E+01  0.33099273424E+02  0.37810938225E+02  0.00000000000E+00 0. -1.
</event>
<event>
 5    1  0.6336319E-005  0.6529911E+03  0.7818608E-02  0.9194111E-01
          4   -1    0    0  502    0 -0.00000000000E+00  0.00000000000E+00  0.24748159695E+04  0.24748159695E+04  0.00000000000E+00 0.  1.
         21   -1    0    0  501  502  0.00000000000E+00 -0.00000000000E+00 -0.21433420129E+03  0.21433420129E+03  0.00000000000E+00 0. -1.
        -13    1    1    2    0    0  0.47844736713E+03  0.44274755006E+03  0.15803958865E+04  0.17095579679E+04  0.10566000000E+00 0.  1.
         13    1    1    2    0    0 -0.47394348380E+03 -0.45252769635E+03  0.69881368599E+03  0.95798972891E+03  0.10566000000E+00 0. -1.
          4    1    1    2  501    0 -0.45038833344E+01  0.97801462958E+01 -0.18727804340E+02  0.21602473980E+02  0.00000000000E+00 0.  1.
</event>
<event>
 5    1  0.6336319E-005  0.3107115E+03  0.7818608E-02  0.1020144E+00
         21   -1    0    0  501  502  0.00000000000E+00  0.00000000000E+00  0.19316682519E+04  0.19316682519E+04  0.00000000000E+00 0.  1.
          4   -1    0    0  502    0 -0.00000000000E+00 -0.00000000000E+00 -0.24866153010E+03  0.24866153010E+03  0.00000000000E+00 0.  1.
        -13    1    1    2    0    0 -0.23725220180E+03  0.28160929418E+03  0.13597254578E+03  0.39253145886E+03  0.10566000000E+00 0.  1.
         13    1    1    2    0    0 -0.51326682251E+02 -0.17177123186E+03 -0.29171104090E+02  0.18163355660E+03  0.10566000000E+00 0. -1.
          4    1    1    2  501    0  0.28857888405E+03 -0.10983806232E+03  0.15762052801E+04  0.16061647665E+04  0.00000000000E+00 0.  1.
</event>
<event>
 5    1  0.6336319E-005  0.3012328E+03  0.7818608E-02  0.1031573E+00
         21   -1    0    0  501  502  0.00000000000E+00  0.00000000000E+00  0.15661936359E+03  0.15661936359E+03  0.00000000000E+00 0. -1.
         -4   -1    0    0    0  501 -0.00000000000E+00 -0.00000000000E+00 -0.21359436552E+04  0.21359436552E+04  0.00000000000E+00 0. -1.
        -13    1    1    2    0    0  0.95697123591E+00 -0.13779339296E+03 -0.35075443384E+03  0.37685092406E+03  0.10566000000E+00 0.  1.
         13    1    1    2    0    0 -0.20588780767E+02 -0.28660772768E+03 -0.63870744998E+02  0.29435925447E+03  0.10566000000E+00 0. -1.
         -4    1    1    2    0  502  0.19631809531E+02  0.42440112065E+03 -0.15646991127E+04  0.16213528402E+04  0.00000000000E+00 0. -1.
</event>
<event>
 5    1  0.6336319E-005  0.4211276E+03  0.7818608E-02  0.9948448E-01
          4   -1    0    0  502    0 -0.00000000000E+00  0.00000000000E+00  0.34641466190E+03  0.34641466190E+03  0.00000000000E+00 0.  1.
         21   -1    0    0  501  502  0.00000000000E+00 -0.00000000000E+00 -0.11496147325E+04  0.11496147325E+04  0.00000000000E+00 0.  1.
        -13    1    1    2    0    0  0.43615741750E+03 -0.87575153217E+02 -0.84738926468E+03  0.95706388363E+03  0.10566000000E+00 0.  1.
         13    1    1    2    0    0 -0.12610533963E+03 -0.10330290213E+03  0.62062462343E+02  0.17442994773E+03  0.10566000000E+00 0. -1.
          4    1    1    2  501    0 -0.31005207787E+03  0.19087805534E+03 -0.17873268282E+02  0.36453556304E+03  0.00000000000E+00 0.  1.
</event>
<event>
 5    1  0.6336319E-005  0.1900984E+03  0.7818608E-02  0.1067144E+00
         21   -1    0    0  501  502  0.00000000000E+00  0.00000000000E+00  0.20215953499E+03  0.20215953499E+03  0.00000000000E+00 0. -1.
          4   -1    0    0  502    0 -0.00000000000E+00 -0.00000000000E+00 -0.26288515534E+03  0.26288515534E+03  0.00000000000E+00 0.  1.
        -13    1    1    2    0    0 -0.17747364874E+03  0.44691124142E+02 -0.69216191647E+02  0.19566574796E+03  0.10566000000E+00 0.  1.
         13    1    1    2    0    0  0.19315695216E+03 -0.46362331260E+02 -0.53249211332E+02  0.20565642124E+03  0.10566000000E+00 0. -1.
          4    1    1    2  501    0 -0.15683303417E+02  0.16712071174E+01  0.61739782630E+02  0.63722521125E+02  0.00000000000E+00 0.  1.
</event>
<event>
 5    1  0.6336319E-005  0.4404874E+03  0.7818608E-02  0.9618918E-01
         21   -1    0    0  501  502  0.00000000000E+00  0.00000000000E+00  0.83531490062E+03  0.83531490062E+03  0.00000000000E+00 0.  1.
          4   -1    0    0  502    0 -0.00000000000E+00 -0.00000000000E+00 -0.62977672540E+03  0.62977672540E+03  0.00000000000E+00 0.  1.
        -13    1    1    2    0    0  0.21582435170E+02 -0.66466053412E+03 -0.46439379609E+01  0.66502707046E+03  0.10566000000E+00 0.  1.
         13    1    1    2    0    0 -0.47814788031E+02  0.34616134766E+03 -0.90814436387E+02  0.36105568212E+03  0.10566000000E+00 0. -1.
          4    1    1    2  501    0  0.26232352861E+02  0.31849918646E+03  0.30099654957E+03  0.43900887345E+03  0.00000000000E+00 0.  1.
</event>
<event>
 5    1  0.6336319E-005  0.3862575E+02  0.7818608E-02  0.1346569E+00
          4   -1    0    0  502    0 -0.00000000000E+00  0.00000000000E+00  0.69371019028E+02  0.69371019028E+02  0.00000000000E+00 0.  1.
         21   -1    0    0  501  502  0.00000000000E+00 -0.00000000000E+00 -0.29107977444E+02  0.29107977444E+02  0.00000000000E+00 0. -1.
        -13    1    1    2    0    0  0.93236534405E+01  0.41225138519E+02  0.33581158334E+02  0.53982848373E+02  0.10566000000E+00 0.  1.
         13    1    1    2    0    0 -0.11043814006E+02 -0.31252063969E+02  0.16331468955E+01  0.33186377672E+02  0.10566000000E+00 0. -1.
          4    1    1    2  501    0  0.17201605659E+01 -0.99730745499E+01  0.50487363534E+01  0.11309770427E+02  0.00000000000E+00 0.  1.
</event>
<event>
 5    1  0.6336319E-005  0.5503431E+03  0.7818608E-02  0.9373968E-01
         -4   -1    0    0    0  501 -0.00000000000E+00  0.00000000000E+00  0.63717900935E+03  0.63717900935E+03  0.00000000000E+00 0. -1.
         21   -1    0    0  501  502  0.00000000000E+00 -0.00000000000E+00 -0.12563290146E+04  0.12563290146E+04  0.00000000000E+00 0. -1.
        -13    1    1    2    0    0 -0.89360273323E+02  0.54421882696E+03  0.84641260819E+02  0.55796374817E+03  0.10566000000E+00 0.  1.
         13    1    1    2    0    0 -0.28435652572E+03 -0.57184491569E+03 -0.71749897368E+03  0.96055714547E+03  0.10566000000E+00 0. -1.
         -4    1    1    2    0  502  0.37371679904E+03  0.27626088727E+02  0.13707707590E+02  0.37498713033E+03  0.00000000000E+00 0. -1.
</event>
<event>
 5    1  0.6336319E-005  0.1836448E+03  0.7818608E-02  0.1071966E+00
         -4   -1    0    0    0  501 -0.00000000000E+00  0.00000000000E+00  0.54080817745E+03  0.54080817745E+03  0.00000000000E+00 0. -1.
         21   -1    0    0  501  502  0.00000000000E+00 -0.00000000000E+00 -0.27204834083E+03  0.27204834083E+03  0.00000000000E+00 0.  1.
        -13    1    1    2    0    0 -0.47035767820E+02  0.19811802637E+03 -0.12850036396E+03  0.24078095964E+03  0.10566000000E+00 0.  1.
         13    1    1    2    0    0  0.28269591395E+02 -0.17962949142E+03  0.46505533440E+03  0.49934196619E+03  0.10566000000E+00 0. -1.
         -4    1    1    2    0  502  0.18766176425E+02 -0.18488534947E+02 -0.67795133814E+02  0.72733592451E+02  0.00000000000E+00 0. -1.
</event>
<event>
 5    1  0.6336319E-005  0.6106995E+02  0.7818608E-02  0.1252310E+00
         -4   -1    0    0    0  501 -0.00000000000E+00  0.00000000000E+00  0.21553778284E+03  0.21553778284E+03  0.00000000000E+00 0. -1.
         21   -1    0    0  501  502  0.00000000000E+00 -0.00000000000E+00 -0.43806223409E+02  0.43806223409E+02  0.00000000000E+00 0. -1.
        -13    1    1    2    0    0 -0.54191491357E+02 -0.15531586745E+02  0.11539270496E+02  0.57542278804E+02  0.10566000000E+00 0.  1.
         13    1    1    2    0    0  0.46267589125E+02  0.43760937736E+02  0.16029359121E+03  0.17248117585E+03  0.10566000000E+00 0. -1.
         -4    1    1    2    0  502  0.79239022324E+01 -0.28229350990E+02 -0.10130227320E+00  0.29320551599E+02  0.00000000000E+00 0. -1.
</event>
<event>
 5    1  0.6336319E-005  0.1563109E+03  0.7818608E-02  0.1095049E+00
         -4   -1    0    0    0  501 -0.00000000000E+00  0.00000000000E+00  0.27278389080E+03  0.27278389080E+03  0.00000000000E+00 0. -1.
         21   -1    0    0  501  502  0.00000000000E+00 -0.00000000000E+00 -0.21794356697E+03  0.21794356697E+03  0.00000000000E+00 0. -1.
        -13    1    1    2    0    0 -0.98970604488E+01  0.15820470980E+03  0.15077018113E+03  0.21876549245E+03  0.10566000000E+00 0.  1.
         13    1    1    2    0    0  0.19578998001E+02 -0.15099002350E+03  0.21630635432E+02  0.15378302869E+03  0.10566000000E+00 0. -1.
         -4    1    1    2    0  502 -0.96819375520E+01 -0.72146862952E+01 -0.11756049273E+03  0.11817893663E+03  0.00000000000E+00 0. -1.
</event>
<event>
 5    1  0.6336319E-005  0.1270811E+03  0.7818608E-02  0.1145759E+00
         -4   -1    0    0    0  501 -0.00000000000E+00  0.00000000000E+00  0.41603139722E+03  0.41603139722E+03  0.00000000000E+00 0. -1.
         21   -1    0    0  501  502  0.00000000000E+00 -0.00000000000E+00 -0.92202405148E+02  0.92202405148E+02  0.00000000000E+00 0. -1.
        -13    1    1    2    0    0 -0.76657804518E+02 -0.10093050801E+02  0.20043320305E+03  0.21482962719E+03  0.10566000000E+00 0.  1.
         13    1    1    2    0    0  0.10880967384E+03  0.10872741533E+03  0.36538621186E+02  0.15810211248E+03  0.10566000000E+00 0. -1.
         -4    1    1    2    0  502 -0.32151869326E+02 -0.98634364532E+02  0.86857167834E+02  0.13530206270E+03  0.00000000000E+00 0. -1.
</event>
<event>
 5    1  0.6336319E-005  0.4701220E+03  0.7818608E-02  0.9545978E-01
         21   -1    0    0  501  502  0.00000000000E+00  0.00000000000E+00  0.31785865708E+03  0.31785865708E+03  0.00000000000E+00 0.  1.
          4   -1    0    0  502    0 -0.00000000000E+00 -0.00000000000E+00 -0.19742609752E+04  0.19742609752E+04  0.00000000000E+00 0.  1.
        -13    1    1    2    0    0 -0.28772269498E+03  0.61279165830E+03 -0.66193065042E+03  0.94681052107E+03  0.10566000000E+00 0.  1.
         13    1    1    2    0    0  0.24656823858E+03 -0.33035445353E+03 -0.97577621136E+03  0.10592776723E+04  0.10566000000E+00 0. -1.
          4    1    1    2  501    0  0.41154456404E+02 -0.28243720477E+03 -0.18695456295E+02  0.28603143884E+03  0.00000000000E+00 0.  1.
</event>
<event>
 5    1  0.6336319E-005  0.4703500E+03  0.7818608E-02  0.9832632E-01
         -4   -1    0    0    0  501 -0.00000000000E+00  0.00000000000E+00  0.50836311725E+03  0.50836311725E+03  0.00000000000E+00 0. -1.
         21   -1    0    0  501  502  0.00000000000E+00 -0.00000000000E+00 -0.84614418745E+03  0.84614418745E+03  0.00000000000E+00 0. -1.
        -13    1    1    2    0    0  0.12972905430E+03  0.11370360933E+03  0.12154241834E+03  0.21102300568E+03  0.10566000000E+00 0.  1.
         13    1    1    2    0    0 -0.62134571073E+02  0.38909547866E+03  0.81058627751E+02  0.40227665695E+03  0.10566000000E+00 0. -1.
         -4    1    1    2    0  502 -0.67594483226E+02 -0.50279908799E+03 -0.54038211630E+03  0.74120764207E+03  0.00000000000E+00 0. -1.
</event>
<event>
 5    1  0.6336319E-005  0.4239568E+03  0.7818608E-02  0.9845773E-01
         21   -1    0    0  501  502  0.00000000000E+00  0.00000000000E+00  0.20997184479E+03  0.20997184479E+03  0.00000000000E+00 0.  1.
          4   -1    0    0  502    0 -0.00000000000E+00 -0.00000000000E+00 -0.22012279152E+04  0.22012279152E+04  0.00000000000E+00 0.  1.
        -13    1    1    2    0    0 -0.74569700592E+02 -0.36335614275E+03 -0.20890804889E+03  0.42571223940E+03  0.10566000000E+00 0.  1.
         13    1    1    2    0    0 -0.79453887227E+02 -0.21083005566E+03 -0.85308919910E+03  0.88233974486E+03  0.10566000000E+00 0. -1.
          4    1    1    2  501    0  0.15402358782E+03  0.57418619841E+03 -0.92925882242E+03  0.11031477757E+04  0.00000000000E+00 0.  1.
</event>
<event>
 5    1  0.6336319E-005  0.4272457E+03  0.7818608E-02  0.9882488E-01
          4   -1    0    0  502    0 -0.00000000000E+00  0.00000000000E+00  0.21815161188E+04  0.21815161188E+04  0.00000000000E+00 0.  1.
         21   -1    0    0  501  502  0.00000000000E+00 -0.00000000000E+00 -0.20981579889E+03  0.20981579889E+03  0.00000000000E+00 0.  1.
        -13    1    1    2    0    0  0.31970623101E+02  0.55021345628E+03  0.10857178907E+04  0.12175961225E+04  0.10566000000E+00 0.  1.
         13    1    1    2    0    0  0.91484948106E+02 -0.17166626834E+03  0.71397794426E+03  0.74000224288E+03  0.10566000000E+00 0. -1.
          4    1    1    2  501    0 -0.12345557121E+03 -0.37854718794E+03  0.17200448499E+03  0.43373355233E+03  0.00000000000E+00 0.  1.
</event>
<event>
 5    1  0.6336319E-005  0.3780905E+03  0.7818608E-02  0.1034578E+00
         -4   -1    0    0    0  501 -0.00000000000E+00  0.00000000000E+00  0.29907390322E+04  0.29907390322E+04  0.00000000000E+00 0. -1.
         21   -1    0    0  501  502  0.00000000000E+00 -0.00000000000E+00 -0.98826906172E+02  0.98826906172E+02  0.00000000000E+00 0. -1.
        -13    1    1    2    0    0 -0.33303923173E+02  0.54118654316E+02  0.33001991568E+03  0.33608203753E+03  0.10566000000E+00 0.  1.
         13    1    1    2    0    0  0.41050002852E+02 -0.42278531267E+03  0.21861190024E+04  0.22270044515E+04  0.10566000000E+00 0. -1.
         -4    1    1    2    0  502 -0.77460796787E+01  0.36866665836E+03  0.37577320798E+03  0.52647944933E+03  0.00000000000E+00 0. -1.
</event>
<event>
 5    1  0.6336319E-005  0.4826087E+02  0.7818608E-02  0.1299036E+00
         21   -1    0    0  501  502  0.00000000000E+00  0.00000000000E+00  0.18177029339E+02  0.18177029339E+02  0.00000000000E+00 0. -1.
         -4   -1    0    0    0  501 -0.00000000000E+00 -0.00000000000E+00 -0.39586800176E+03  0.39586800176E+03  0.00000000000E+00 0. -1.
        -13    1    1    2    0    0 -0.43553389610E+02 -0.13932179150E+02 -0.18227117621E+03  0.18791965358E+03  0.10566000000E+00 0.  1.
         13    1    1    2    0    0  0.42655990783E+02  0.30835404785E+02 -0.20140679265E+03  0.20817075450E+03  0.10566000000E+00 0. -1.
         -4    1    1    2    0  502  0.89739882691E+00 -0.16903225635E+02  0.59869964353E+01  0.17954623022E+02  0.00000000000E+00 0. -1.
</event>
<event>
 5    1  0.6336319E-005  0.5134677E+03  0.7818608E-02  0.9470618E-01
         -4   -1    0    0    0  501 -0.00000000000E+00  0.00000000000E+00  0.21777504589E+04  0.21777504589E+04  0.00000000000E+00 0. -1.
         21   -1    0    0  501  502  0.00000000000E+00 -0.00000000000E+00 -0.38406390219E+03  0.38406390219E+03  0.00000000000E+00 0. -1.
        -13    1    1    2    0    0  0.20968115340E+03 -0.42537739397E+03  0.11870027226E+04  0.12782361237E+04  0.10566000000E+00 0.  1.
         13    1    1    2    0    0 -0.46231281785E+03 -0.15599158832E+03  0.34616252459E+03  0.59824327975E+03  0.10566000000E+00 0. -1.
         -4    1    1    2    0  502  0.25263166445E+03  0.58136898228E+03  0.26052130956E+03  0.68533495765E+03  0.00000000000E+00 0. -1.
</event>
<event>
 5    1  0.6336319E-005  0.4451939E+03  0.7818608E-02  0.9728788E-01
          4   -1    0    0  502    0 -0.00000000000E+00  0.00000000000E+00  0.13338535666E+04  0.13338535666E+04  0.00000000000E+00 0.  1.
         21   -1    0    0  501  502  0.00000000000E+00 -0.00000000000E+00 -0.33550295900E+03  0.33550295900E+03  0.00000000000E+00 0.  1.
        -13    1    1    2    0    0  0.32514765147E+03  0.32819609922E+03  0.64935790475E+03  0.79693122315E+03  0.10566000000E+00 0.  1.
         13    1    1    2    0    0 -0.25906404203E+03  0.13119316095E+03  0.27966038926E+03  0.40315724951E+03  0.10566000000E+00 0. -1.
          4    1    1    2  501    0 -0.66083609446E+02 -0.45938926017E+03  0.69332313594E+02  0.46926805294E+03  0.00000000000E+00 0.  1.
</event>
<event>
 5    1  0.6336319E-005  0.2755632E+03  0.7818608E-02  0.1017935E+00
         21   -1    0    0  501  502  0.00000000000E+00  0.00000000000E+00  0.33288746901E+03  0.33288746901E+03  0.00000000000E+00 0. -1.
         -4   -1    0    0    0  501 -0.00000000000E+00 -0.00000000000E+00 -0.15026359132E+04  0.15026359132E+04  0.00000000000E+00 0. -1.
        -13    1    1    2    0    0 -0.10430853637E+03  0.24444279593E+03 -0.47753087054E+02  0.27002392436E+03  0.10566000000E+00 0.  1.
         13    1    1    2    0    0  0.99343766161E+02 -0.25840137547E+03 -0.13292214230E+04  0.13577444742E+04  0.10566000000E+00 0. -1.
         -4    1    1    2    0  502  0.49647702102E+01  0.13958579545E+02  0.20722606582E+03  0.20775498367E+03  0.00000000000E+00 0. -1.
</event>
<event>
 5    1  0.6336319E-005  0.3045805E+03  0.7818608E-02  0.1006580E+00
         21   -1    0    0  501  502  0.00000000000E+00  0.00000000000E+00  0.24119105818E+03  0.24119105818E+03  0.00000000000E+00 0.  1.
          4   -1    0    0  502    0 -0.00000000000E+00 -0.00000000000E+00 -0.18949640663E+04  0.18949640663E+04  0.00000000000E+00 0.  1.
        -13    1    1    2    0    0 -0.13377373194E+03 -0.24163670345E+03 -0.31412935311E+02  0.27797570304E+03  0.10566000000E+00 0.  1.
         13    1    1    2    0    0 -0.63035389273E+02 -0.28661810790E+03 -0.29518137354E+03  0.41623965996E+03  0.10566000000E+00 0. -1.
          4    1    1    2  501    0  0.19680912121E+03  0.52825481135E+03 -0.13271786992E+04  0.14419397614E+04  0.00000000000E+00 0.  1.
</event>
<event>
 5    1  0.6336319E-005  0.4739272E+03  0.7818608E-02  0.9958157E-01
          4   -1    0    0  502    0 -0.00000000000E+00  0.00000000000E+00  0.92505447412E+03  0.92505447412E+03  0.00000000000E+00 0.  1.
         21   -1    0    0  501  502  0.00000000000E+00 -0.00000000000E+00 -0.35908805450E+03  0.35908805450E+03  0.00000000000E+00 0.  1.
        -13    1    1    2    0    0 -0.20661252744E+03 -0.34998032552E+03  0.33636257511E+03  0.52755545476E+03  0.10566000000E+00 0.  1.
         13    1    1    2    0    0 -0.73263741851E+02 -0.83067067905E+02  0.21373174858E+03  0.24072595447E+03  0.10566000000E+00 0. -1.
          4    1    1    2  501    0  0.27987626929E+03  0.43304739343E+03  0.15872095922E+02  0.51586111939E+03  0.00000000000E+00 0.  1.
</event>
<event>
 5    1  0.6336319E-005  0.1874816E+03  0.7818608E-02  0.1069074E+00
         -4   -1    0    0    0  501 -0.00000000000E+00  0.00000000000E+00  0.14003383576E+04  0.14003383576E+04  0.00000000000E+00 0. -1.
         21   -1    0    0  501  502  0.00000000000E+00 -0.00000000000E+00 -0.27175391128E+03  0.27175391128E+03  0.00000000000E+00 0. -1.
        -13    1    1    2    0    0  0.16691941740E+03 -0.96721504887E+02  0.21395493676E+03  0.28808656258E+03  0.10566000000E+00 0.  1.
         13    1    1    2    0    0 -0.19420758488E+03 -0.41721919778E+02 -0.18733613409E+03  0.27304238300E+03  0.10566000000E+00 0. -1.
         -4    1    1    2    0  502  0.27288167487E+02  0.13844342466E+03  0.11019656437E+04  0.11109633233E+04  0.00000000000E+00 0. -1.
</event>
<event>
 5    1  0.6336319E-005  0.2838829E+03  0.7818608E-02  0.1014189E+00
          4   -1    0    0  502    0 -0.00000000000E+00  0.00000000000E+00  0.77889774942E+03  0.77889774942E+03  0.00000000000E+00 0.  1.
         21   -1    0    0  501  502  0.00000000000E+00 -0.00000000000E+00 -0.17591601166E+03  0.17591601166E+03  0.00000000000E+00 0. -1.
        -13    1    1    2    0    0  0.17945021496E+03  0.20380688203E+03  0.45685678662E+03  0.53146755259E+03  0.10566000000E+00 0.  1.
         13    1    1    2    0    0 -0.24989787682E+03 -0.20198195386E+03  0.14585842158E+03  0.35287440943E+03  0.10566000000E+00 0. -1.
          4    1    1    2  501    0  0.70447661855E+02 -0.18249281656E+01  0.26652955020E+00  0.70471799052E+02  0.00000000000E+00 0.  1.
</event>
<event>
 5    1  0.6336319E-005  0.3046266E+03  0.7818608E-02  0.1005414E+00
         21   -1    0    0  501  502  0.00000000000E+00  0.00000000000E+00  0.85393381815E+03  0.85393381815E+03  0.00000000000E+00 0. -1.
          4   -1    0    0  502    0 -0.00000000000E+00 -0.00000000000E+00 -0.28138310029E+03  0.28138310029E+03  0.00000000000E+00 0.  1.
        -13    1    1    2    0    0 -0.22136775310E+01 -0.32550535233E+03  0.62519264773E+02  0.33146237252E+03  0.10566000000E+00 0.  1.
         13    1    1    2    0    0  0.11583081574E+02  0.28927401377E+03 -0.29390576781E+01  0.28952076272E+03  0.10566000000E+00 0. -1.
          4    1    1    2  501    0 -0.93694040433E+01  0.36231338555E+02  0.51297051077E+03  0.51433378320E+03  0.00000000000E+00 0.  1.
</event>
<event>
 5    1  0.6336319E-005  0.9051476E+02  0.7818608E-02  0.1181281E+00
          4   -1    0    0  502    0 -0.00000000000E+00  0.00000000000E+00  0.48621449071E+03  0.48621449071E+03  0.00000000000E+00 0.  1.
         21   -1    0    0  501  502  0.00000000000E+00 -0.00000000000E+00 -0.94946666815E+02  0.94946666815E+02  0.00000000000E+00 0. -1.
        -13    1    1    2    0    0  0.90559499294E+02 -0.21671263022E+00  0.45109707736E+03  0.46009743994E+03  0.10566000000E+00 0.  1.
         13    1    1    2    0    0 -0.89798698745E+02 -0.10645905087E+02 -0.40946486113E+02  0.99266144684E+02  0.10566000000E+00 0. -1.
          4    1    1    2  501    0 -0.76080054905E+00  0.10862617717E+02 -0.18882767354E+02  0.21797572895E+02  0.00000000000E+00 0.  1.
</event>
<event>
 5    1  0.6336319E-005  0.7124886E+02  0.7818608E-02  0.1230035E+00
         -4   -1    0    0    0  501 -0.00000000000E+00  0.00000000000E+00  0.53127577896E+02  0.53127577896E+02  0.00000000000E+00 0. -1.
         21   -1    0    0  501  502  0.00000000000E+00 -0.00000000000E+00 -0.48030967134E+03  0.48030967134E+03  0.00000000000E+00 0. -1.
        -13    1    1    2    0    0  0.13992932302E+02  0.60175599335E+02  0.70572537188E+01  0.62182963132E+02  0.10566000000E+00 0.  1.
         13    1    1    2    0    0 -0.72917488152E+02  0.85321469961E+00 -0.32425867071E+03  0.33235731487E+03  0.10566000000E+00 0. -1.
         -4    1    1    2    0  502  0.58924555850E+02 -0.61028814035E+02 -0.10998067645E+03  0.13889697123E+03  0.00000000000E+00 0. -1.
</event>
<event>
 5    1  0.6336319E-005  0.3543127E+03  0.7818608E-02  0.1036087E+00
         21   -1    0    0  501  502  0.00000000000E+00  0.00000000000E+00  0.20151844808E+03  0.20151844808E+03  0.00000000000E+00 0.  1.
          4   -1    0    0  502    0 -0.00000000000E+00 -0.00000000000E+00 -0.89097108918E+03  0.89097108918E+03  0.00000000000E+00 0.  1.
        -13    1    1    2    0    0  0.34003920427E+03 -0.21032128946E+03 -0.39658848075E+03  0.56315551979E+03  0.10566000000E+00 0.  1.
         13    1    1    2    0    0 -0.71928851032E+02  0.16219008248E+02 -0.15331150863E+03  0.17012126758E+03  0.10566000000E+00 0. -1.
          4    1    1    2  501    0 -0.26811035324E+03  0.19410228121E+03 -0.13955265172E+03  0.35921274990E+03  0.00000000000E+00 0.  1.
</event>
<event>
 5    1  0.6336319E-005  0.4748739E+03  0.7818608E-02  0.9648297E-01
         21   -1    0    0  501  502  0.00000000000E+00  0.00000000000E+00  0.10715848636E+04  0.10715848636E+04  0.00000000000E+00 0.  1.
          4   -1    0    0  502    0 -0.00000000000E+00 -0.00000000000E+00 -0.46556653708E+03  0.46556653708E+03  0.00000000000E+00 0.  1.
        -13    1    1    2    0    0 -0.63939756828E+02  0.36703894333E+03  0.14433151986E+03  0.39954658954E+03  0.10566000000E+00 0.  1.
         13    1    1    2    0    0 -0.38871887359E+02  0.31451498481E+03  0.28462694799E+03  0.42596151233E+03  0.10566000000E+00 0. -1.
          4    1    1    2  501    0  0.10281164419E+03 -0.68155392814E+03  0.17705985863E+03  0.71164329877E+03  0.00000000000E+00 0.  1.
</event>
<event>
 5    1  0.6336319E-005  0.2741610E+03  0.7818608E-02  0.1018580E+00
         21   -1    0    0  501  502  0.00000000000E+00  0.00000000000E+00  0.31199355735E+03  0.31199355735E+03  0.00000000000E+00 0. -1.
          4   -1    0    0  502    0 -0.00000000000E+00 -0.00000000000E+00 -0.52165779468E+03  0.52165779468E+03  0.00000000000E+00 0.  1.
        -13    1    1    2    0    0  0.19234469178E+03 -0.19493048383E+03 -0.39607608072E+03  0.48152948702E+03  0.10566000000E+00 0.  1.
         13    1    1    2    0    0 -0.18114330185E+03  0.20871803886E+03  0.15722959005E+03  0.31795797002E+03  0.10566000000E+00 0. -1.
          4    1    1    2  501    0 -0.11201389935E+02 -0.13787555025E+02  0.29182253343E+02  0.34163894980E+02  0.00000000000E+00 0.  1.
</event>
<event>
 5    1  0.6336319E-005  0.4822835E+03  0.7818608E-02  0.9592094E-01
          4   -1    0    0  502    0 -0.00000000000E+00  0.00000000000E+00  0.33981346549E+04  0.33981346549E+04  0.00000000000E+00 0.  1.
         21   -1    0    0  501  502  0.00000000000E+00 -0.00000000000E+00 -0.18297474558E+03  0.18297474558E+03  0.00000000000E+00 0.  1.
        -13    1    1    2    0    0 -0.54417077408E+02  0.37969370267E+03  0.61369260154E+03  0.72370376986E+03  0.10566000000E+00 0.  1.
         13    1    1    2    0    0  0.26640955758E+03  0.25555450459E+03  0.16692078400E+04  0.17095429159E+04  0.10566000000E+00 0. -1.
          4    1    1    2  501    0 -0.21199248017E+03 -0.63524820725E+03  0.93225946778E+03  0.11478627147E+04  0.00000000000E+00 0.  1.
</event>
<event>
 5    1  0.6336319E-005  0.2460894E+03  0.7818608E-02  0.1032439E+00
         21   -1    0    0  501  502  0.00000000000E+00  0.00000000000E+00  0.29265153722E+03  0.29265153722E+03  0.00000000000E+00 0.  1.
         -4   -1    0    0    0  501 -0.00000000000E+00 -0.00000000000E+00 -0.38207597998E+03  0.38207597998E+03  0.00000000000E+00 0. -1.
        -13    1    1    2    0    0  0.12554280309E+03 -0.21590025049E+03  0.11954056882E+03  0.27688241607E+03  0.10566000000E+00 0.  1.
         13    1    1    2    0    0 -0.11332137395E+03  0.21747168584E+03 -0.25286726571E+03  0.35224640973E+03  0.10566000000E+00 0. -1.
         -4    1    1    2    0  502 -0.12221429148E+02 -0.15714353468E+01  0.43902254133E+02  0.45598691401E+02  0.00000000000E+00 0. -1.
</event>
<event>
 5    1  0.6336319E-005  0.7990267E+02  0.7818608E-02  0.1253834E+00
         -4   -1    0    0    0  501 -0.00000000000E+00  0.00000000000E+00  0.38572709738E+02  0.38572709738E+02  0.00000000000E+00 0. -1.
         21   -1    0    0  501  502  0.00000000000E+00 -0.00000000000E+00 -0.45443299981E+03  0.45443299981E+03  0.00000000000E+00 0. -1.
        -13    1    1    2    0    0 -0.25197423805E+02 -0.79174837478E+01 -0.20507455190E+02  0.33438953299E+02  0.10566000000E+00 0.  1.
         13    1    1    2    0    0  0.10014127934E+03 -0.86829714230E+01 -0.63369930120E+02  0.11882520368E+03  0.10566000000E+00 0. -1.
         -4    1    1    2    0  502 -0.74943855538E+02  0.16600455171E+02 -0.33198290477E+03  0.34074155258E+03  0.00000000000E+00 0. -1.
</event>
<event>
 5    1  0.6336319E-005  0.4526587E+02  0.7818608E-02  0.1379381E+00
          4   -1    0    0  502    0 -0.00000000000E+00  0.00000000000E+00  0.16693056536E+02  0.16693056536E+02  0.00000000000E+00 0.  1.
         21   -1    0    0  501  502  0.00000000000E+00 -0.00000000000E+00 -0.26974076157E+03  0.26974076157E+03  0.00000000000E+00 0.  1.
        -13    1    1    2    0    0  0.67422148839E+01 -0.53993518029E+02 -0.54114196138E+02  0.76740568400E+02  0.10566000000E+00 0.  1.
         13    1    1    2    0    0  0.53415769785E+01  0.12343128933E+02 -0.12774683297E+02  0.18549635410E+02  0.10566000000E+00 0. -1.
          4    1    1    2  501    0 -0.12083791862E+02  0.41650389096E+02 -0.18615882560E+03  0.19114361430E+03  0.00000000000E+00 0.  1.
</event>
<event>
 5    1  0.6336319E-005  0.1229070E+03  0.7818608E-02  0.1131395E+00
         21   -1    0    0  501  502  0.00000000000E+00  0.00000000000E+00  0.16019122267E+03  0.16019122267E+03  0.00000000000E+00 0. -1.
          4   -1    0    0  502    0 -0.00000000000E+00 -0.00000000000E+00 -0.26903213523E+03  0.26903213523E+03  0.00000000000E+00 0.  1.
        -13    1    1    2    0    0  0.11880105320E+03  0.12965425232E+02 -0.19722441028E+03  0.23060631316E+03  0.10566000000E+00 0.  1.
         13    1    1    2    0    0 -0.14296345130E+03 -0.88643573356E+01  0.47422795523E+02  0.15088425345E+03  0.10566000000E+00 0. -1.
          4    1    1    2  501    0  0.24162398101E+02 -0.41010678965E+01  0.40960702204E+02  0.47732791297E+02  0.00000000000E+00 0.  1.
</event>
<event>
 5    1  0.6336319E-005  0.1644475E+03  0.7818608E-02  0.1131495E+00
         21   -1    0    0  501  502  0.00000000000E+00  0.00000000000E+00  0.50200947608E+02  0.50200947608E+02  0.00000000000E+00 0.  1.
          4   -1    0    0  502    0 -0.00000000000E+00 -0.00000000000E+00 -0.12081616889E+04  0.12081616889E+04  0.00000000000E+00 0.  1.
        -13    1    1    2    0    0  0.15524152695E+03  0.13451140430E+03 -0.91658207853E+03  0.93931675564E+03  0.10566000000E+00 0.  1.
         13    1    1    2    0    0 -0.36798740813E+02 -0.35570670772E+02 -0.38022750334E+02  0.63758612372E+02  0.10566000000E+00 0. -1.
          4    1    1    2  501    0 -0.11844278614E+03 -0.98940733532E+02 -0.20335591245E+03  0.25528726852E+03  0.00000000000E+00 0.  1.
</event>
<event>
 5    1  0.6336319E-005  0.1479769E+03  0.7818608E-02  0.1111828E+00
          4   -1    0    0  502    0 -0.00000000000E+00  0.00000000000E+00  0.70212280760E+03  0.70212280760E+03  0.00000000000E+00 0.  1.
         21   -1    0    0  501  502  0.00000000000E+00 -0.00000000000E+00 -0.73382356739E+02  0.73382356739E+02  0.00000000000E+00 0.  1.
        -13    1    1    2    0    0 -0.76186279801E+02  0.15701342956E+03  0.16552182428E+03  0.24053077094E+03  0.10566000000E+00 0.  1.
         13    1    1    2    0    0  0.11099096766E+03 -0.37854791817E+02  0.11080953336E+03  0.16134045994E+03  0.10566000000E+00 0. -1.
          4    1    1    2  501    0 -0.34804687861E+02 -0.11915863774E+03  0.35240909322E+03  0.37363393346E+03  0.00000000000E+00 0.  1.
</event>
<event>
 5    1  0.6336319E-005  0.1982973E+03  0.7818608E-02  0.1061309E+00
          4   -1    0    0  502    0 -0.00000000000E+00  0.00000000000E+00  0.35123507246E+03  0.35123507246E+03  0.00000000000E+00 0.  1.
         21   -1    0    0  501  502  0.00000000000E+00 -0.00000000000E+00 -0.24736093870E+03  0.24736093870E+03  0.00000000000E+00 0. -1.
        -13    1    1    2    0    0  0.19596009458E+03  0.50612700433E+02 -0.58835490321E+02  0.21076913958E+03  0.10566000000E+00 0.  1.
         13    1    1    2    0    0 -0.19417778887E+03 -0.35152514781E+02  0.23901547648E+03  0.30995019301E+03  0.10566000000E+00 0. -1.
          4    1    1    2  501    0 -0.17823057113E+01 -0.15460185652E+02 -0.76305852401E+02  0.77876678568E+02  0.00000000000E+00 0.  1.
</event>
<event>
 5    1  0.6336319E-005  0.9167897E+02  0.7818608E-02  0.1179109E+00
          4   -1    0    0  502    0 -0.00000000000E+00  0.00000000000E+00  0.14723152284E+03  0.14723152284E+03  0.00000000000E+00 0.  1.
         21   -1    0    0  501  502  0.00000000000E+00 -0.00000000000E+00 -0.34107490401E+03  0.34107490401E+03  0.00000000000E+00 0.  1.
        -13    1    1    2    0    0  0.12812342782E+02 -0.94921467395E+02  0.91763150334E+02  0.13264512062E+03  0.10566000000E+00 0.  1.
         13    1    1    2    0    0  0.15379679891E+02  0.82954737372E+02 -0.17948173780E+02  0.86256426497E+02  0.10566000000E+00 0. -1.
          4    1    1    2  501    0 -0.28192022673E+02  0.11966730023E+02 -0.26765835772E+03  0.26940487974E+03  0.00000000000E+00 0.  1.
</event>
<event>
 5    1  0.6336319E-005  0.1946066E+03  0.7818608E-02  0.1063897E+00
         21   -1    0    0  501  502  0.00000000000E+00  0.00000000000E+00  0.11613145747E+03  0.11613145747E+03  0.00000000000E+00 0.  1.
          4   -1    0    0  502    0 -0.00000000000E+00 -0.00000000000E+00 -0.41272453511E+03  0.41272453511E+03  0.00000000000E+00 0.  1.
        -13    1    1    2    0    0 -0.77237613505E+02 -0.16861957200E+03 -0.89882823163E+02  0.20609983519E+03  0.10566000000E+00 0.  1.
         13    1    1    2    0    0  0.87013812891E+02  0.18082620125E+03 -0.22312068995E+03  0.30008727421E+03  0.10566000000E+00 0. -1.
          4    1    1    2  501    0 -0.97761993858E+01 -0.12206629249E+02  0.16410435481E+02  0.22668883182E+02  0.00000000000E+00 0.  1.
</event>
<event>
 5    1  0.6336319E-005  0.3976361E+03  0.7818608E-02  0.9735898E-01
         21   -1    0    0  501  502  0.00000000000E+00  0.00000000000E+00  0.26572076329E+03  0.26572076329E+03  0.00000000000E+00 0.  1.
          4   -1    0    0  502    0 -0.00000000000E+00 -0.00000000000E+00 -0.14900544829E+04  0.14900544829E+04  0.00000000000E+00 0.  1.
        -13    1    1    2    0    0  0.12295688577E+03  0.38707138202E+03 -0.11934528957E+04  0.12606635063E+04  0.10566000000E+00 0.  1.
         13    1    1    2    0    0 -0.64570072670E+02 -0.36083398836E+03 -0.11971373207E+03  0.38561878877E+03  0.10566000000E+00 0. -1.
          4    1    1    2  501    0 -0.58386813103E+02 -0.26237393655E+02  0.88832908203E+02  0.10949295114E+03  0.00000000000E+00 0.  1.
</event>
<event>
 5    1  0.6336319E-005  0.5010216E+03  0.7818608E-02  0.1016006E+00
         -4   -1    0    0    0  501 -0.00000000000E+00  0.00000000000E+00  0.11532780894E+04  0.11532780894E+04  0.00000000000E+00 0. -1.
         21   -1    0    0  501  502  0.00000000000E+00 -0.00000000000E+00 -0.24165673155E+03  0.24165673155E+03  0.00000000000E+00 0. -1.
        -13    1    1    2    0    0 -0.24118029514E+02  0.42353616100E+02  0.67376698582E+02  0.83157313690E+02  0.10566000000E+00 0.  1.
         13    1    1    2    0    0  0.42769264391E+03 -0.30247795962E+03  0.43765502711E+03  0.68260958654E+03  0.10566000000E+00 0. -1.
         -4    1    1    2    0  502 -0.40357461440E+03  0.26012434352E+03  0.40658963212E+03  0.62916792069E+03  0.00000000000E+00 0. -1.
</event>
<event>
 5    1  0.6336319E-005  0.1057543E+03  0.7818608E-02  0.1155371E+00
         21   -1    0    0  501  502  0.00000000000E+00  0.00000000000E+00  0.34823461676E+02  0.34823461676E+02  0.00000000000E+00 0.  1.
          4   -1    0    0  502    0 -0.00000000000E+00 -0.00000000000E+00 -0.51184141373E+03  0.51184141373E+03  0.00000000000E+00 0.  1.
        -13    1    1    2    0    0 -0.58734375538E+02 -0.94216258479E+02 -0.19763217728E+03  0.22668241857E+03  0.10566000000E+00 0.  1.
         13    1    1    2    0    0  0.41240421349E+02  0.94284555349E+02 -0.28384886108E+03  0.30192803253E+03  0.10566000000E+00 0. -1.
          4    1    1    2  501    0  0.17493954188E+02 -0.68296870837E-01  0.44630862957E+01  0.18054424302E+02  0.00000000000E+00 0.  1.
</event>
<event>
 5    1  0.6336319E-005  0.1335566E+03  0.7818608E-02  0.1118565E+00
         -4   -1    0    0    0  501 -0.00000000000E+00  0.00000000000E+00  0.84809549133E+03  0.84809549133E+03  0.00000000000E+00 0. -1.
         21   -1    0    0  501  502  0.00000000000E+00 -0.00000000000E+00 -0.20968832311E+03  0.20968832311E+03  0.00000000000E+00 0. -1.
        -13    1    1    2    0    0  0.44939156616E+02 -0.16612916977E+03  0.50261863313E+02  0.17928941662E+03  0.10566000000E+00 0.  1.
         13    1    1    2    0    0 -0.70821191393E+02  0.10985662403E+03  0.72055487954E+03  0.73231377468E+03  0.10566000000E+00 0. -1.
         -4    1    1    2    0  502  0.25882034777E+02  0.56272545744E+02 -0.13240957462E+03  0.14618062314E+03  0.00000000000E+00 0. -1.
</event>
<event>
 5    1  0.6336319E-005  0.2002018E+03  0.7818608E-02  0.1119017E+00
         21   -1    0    0  501  502  0.00000000000E+00  0.00000000000E+00  0.53859766353E+02  0.53859766353E+02  0.00000000000E+00 0. -1.
         -4   -1    0    0    0  501 -0.00000000000E+00 -0.00000000000E+00 -0.14918832243E+04  0.14918832243E+04  0.00000000000E+00 0. -1.
        -13    1    1    2    0    0  0.37238323752E+02  0.12194126401E+02  0.35775532613E+01  0.39347166682E+02  0.10566000000E+00 0.  1.
         13    1    1    2    0    0 -0.18607188963E+03  0.93972051938E+02 -0.42364060098E+03  0.47214919741E+03  0.10566000000E+00 0. -1.
         -4    1    1    2    0  502  0.14883356587E+03 -0.10616617834E+03 -0.10179604102E+04  0.10342466266E+04  0.00000000000E+00 0. -1.
</event>
<event>
 5    1  0.6336319E-005  0.2560887E+03  0.7818608E-02  0.1082606E+00
          4   -1    0    0  502    0 -0.00000000000E+00  0.00000000000E+00  0.10369651416E+04  0.10369651416E+04  0.00000000000E+00 0.  1.
         21   -1    0    0  501  502  0.00000000000E+00 -0.00000000000E+00 -0.26795274697E+03  0.26795274697E+03  0.00000000000E+00 0.  1.
        -13    1    1    2    0    0 -0.23735384064E+03 -0.95406351982E+02 -0.17387229354E+03  0.30930697259E+03  0.10566000000E+00 0.  1.
         13    1    1    2    0    0  0.15418661337E+02 -0.47717946757E+02  0.93216528394E+02  0.10584927912E+03  0.10566000000E+00 0. -1.
          4    1    1    2  501    0  0.22193517931E+03  0.14312429874E+03  0.84966815981E+03  0.88976163690E+03  0.00000000000E+00 0.  1.
</event>
<event>
 5    1  0.6336319E-005  0.4277428E+03  0.7818608E-02  0.1010407E+00
         -4   -1    0    0    0  501 -0.00000000000E+00  0.00000000000E+00  0.10197339728E+04  0.10197339728E+04  0.00000000000E+00 0. -1.
         21   -1    0    0  501  502  0.00000000000E+00 -0.00000000000E+00 -0.42802025078E+03  0.42802025078E+03  0.00000000000E+00 0. -1.
        -13    1    1    2    0    0  0.73054701374E+02 -0.58609916940E+02  0.41703753943E+03  0.42742535280E+03  0.10566000000E+00 0.  1.
         13    1    1    2    0    0 -0.23540214800E+03  0.43258231947E+03  0.32022016047E+03  0.58743731303E+03  0.10566000000E+00 0. -1.
         -4    1    1    2    0  502  0.16234744662E+03 -0.37397240253E+03 -0.14554397787E+03  0.43289155775E+03  0.00000000000E+00 0. -1.
</event>
<event>
 5    1  0.6336319E-005  0.4945209E+03  0.7818608E-02  0.9560683E-01
         21   -1    0    0  501  502  0.00000000000E+00  0.00000000000E+00  0.52742322220E+03  0.52742322220E+03  0.00000000000E+00 0. -1.
         -4   -1    0    0    0  501 -0.00000000000E+00 -0.00000000000E+00 -0.17012755224E+04  0.17012755224E+04  0.00000000000E+00 0. -1.
        -13    1    1    2    0    0 -0.56181095178E+03  0.45666075342E+01 -0.81203137737E+03  0.98744486856E+03  0.10566000000E+00 0.  1.
         13    1    1    2    0    0 -0.30435989121E+03  0.69449480414E+02 -0.42156141452E+02  0.31501638867E+03  0.10566000000E+00 0. -1.
         -4    1    1    2    0  502  0.86617084299E+03 -0.74016087948E+02 -0.31966478134E+03  0.92623748734E+03  0.00000000000E+00 0. -1.
</event>
<event>
 5    1  0.6336319E-005  0.4387635E+03  0.7818608E-02  0.9926728E-01
         21   -1    0    0  501  502  0.00000000000E+00  0.00000000000E+00  0.10128727864E+04  0.10128727864E+04  0.00000000000E+00 0. -1.
         -4   -1    0    0    0  501 -0.00000000000E+00 -0.00000000000E+00 -0.33249550963E+03  0.33249550963E+03  0.00000000000E+00 0. -1.
        -13    1    1    2    0    0 -0.30602502784E+02 -0.15186238830E+03  0.92131319062E+02  0.18024119749E+03  0.10566000000E+00 0.  1.
         13    1    1    2    0    0  0.17700294716E+03 -0.29909221865E+03 -0.69387586994E+02  0.35440209784E+03  0.10566000000E+00 0. -1.
         -4    1    1    2    0  502 -0.14640044438E+03  0.45095460695E+03  0.65763354467E+03  0.81072500068E+03  0.00000000000E+00 0. -1.
</event>
<event>
 5    1  0.6336319E-005  0.8114356E+02  0.7818608E-02  0.1200191E+00
         -4   -1    0    0    0  501 -0.00000000000E+00  0.00000000000E+00  0.22906418962E+02  0.22906418962E+02  0.00000000000E+00 0. -1.
         21   -1    0    0  501  502  0.00000000000E+00 -0.00000000000E+00 -0.51109303096E+03  0.51109303096E+03  0.00000000000E+00 0.  1.
        -13    1    1    2    0    0 -0.52728968661E+02  0.34664549874E+02 -0.21424496118E+03  0.22334477766E+03  0.10566000000E+00 0.  1.
         13    1    1    2    0    0  0.58308563220E+02 -0.74039898991E+02 -0.12530716256E+03  0.15679187269E+03  0.10566000000E+00 0. -1.
         -4    1    1    2    0  502 -0.55795945589E+01  0.39375349117E+02 -0.14863448826E+03  0.15386279958E+03  0.00000000000E+00 0. -1.
</event>
<event>
 5    1  0.6336319E-005  0.4963874E+03  0.7818608E-02  0.9492286E-01
         -4   -1    0    0    0  501 -0.00000000000E+00  0.00000000000E+00  0.23528032893E+04  0.23528032893E+04  0.00000000000E+00 0. -1.
         21   -1    0    0  501  502  0.00000000000E+00 -0.00000000000E+00 -0.45924056410E+03  0.45924056410E+03  0.00000000000E+00 0. -1.
        -13    1    1    2    0    0  0.21621897484E+03 -0.45323642193E+03  0.15674414282E+04  0.16459181454E+04  0.10566000000E+00 0.  1.
         13    1    1    2    0    0 -0.27172343992E+03 -0.19860207390E+03  0.38251306759E+03  0.50950237448E+03  0.10566000000E+00 0. -1.
         -4    1    1    2    0  502  0.55504465082E+02  0.65183849583E+03 -0.56391770667E+02  0.65662333349E+03  0.00000000000E+00 0. -1.
</event>
<event>
 5    1  0.6336319E-005  0.5882424E+02  0.7818608E-02  0.1259520E+00
         21   -1    0    0  501  502  0.00000000000E+00  0.00000000000E+00  0.64109718381E+03  0.64109718381E+03  0.00000000000E+00 0.  1.
          4   -1    0    0  502    0 -0.00000000000E+00 -0.00000000000E+00 -0.12631148454E+03  0.12631148454E+03  0.00000000000E+00 0.  1.
        -13    1    1    2    0    0  0.10644568711E+02  0.56533825111E+02 -0.90323316490E+02  0.10708731433E+03  0.10566000000E+00 0.  1.
         13    1    1    2    0    0 -0.28289413046E+02 -0.60518223369E+02  0.13149762869E+02  0.68085781759E+02  0.10566000000E+00 0. -1.
          4    1    1    2  501    0  0.17644844335E+02  0.39843982581E+01  0.59195925289E+03  0.59223557226E+03  0.00000000000E+00 0.  1.
</event>
<event>
 5    1  0.6336319E-005  0.2853115E+03  0.7818608E-02  0.1013559E+00
          4   -1    0    0  502    0 -0.00000000000E+00  0.00000000000E+00  0.10933397686E+03  0.10933397686E+03  0.00000000000E+00 0.  1.
         21   -1    0    0  501  502  0.00000000000E+00 -0.00000000000E+00 -0.88080140189E+03  0.88080140189E+03  0.00000000000E+00 0. -1.
        -13    1    1    2    0    0  0.19679581622E+03 -0.22103601386E+03 -0.25824081757E+03  0.39277709165E+03  0.10566000000E+00 0.  1.
         13    1    1    2    0    0 -0.16132301759E+03  0.21636563109E+03 -0.45431383836E+03  0.52843190404E+03  0.10566000000E+00 0. -1.
          4    1    1    2  501    0 -0.35472798634E+02  0.46703827716E+01 -0.58912769096E+02  0.68926383053E+02  0.00000000000E+00 0.  1.
</event>
<event>
 5    1  0.6336319E-005  0.5600808E+03  0.7818608E-02  0.9355191E-01
          4   -1    0    0  502    0 -0.00000000000E+00  0.00000000000E+00  0.10591392419E+04  0.10591392419E+04  0.00000000000E+00 0.  1.
         21   -1    0    0  501  502  0.00000000000E+00 -0.00000000000E+00 -0.58492712943E+03  0.58492712943E+03  0.00000000000E+00 0.  1.
        -13    1    1    2    0    0  0.29741751943E+03  0.67827654849E+03  0.16210893499E+03  0.75815273861E+03  0.10566000000E+00 0.  1.
         13    1    1    2    0    0 -0.81280808059E+01 -0.47547087400E+03  0.16767198165E+03  0.50423459056E+03  0.10566000000E+00 0. -1.
          4    1    1    2  501    0 -0.28928943863E+03 -0.20280567448E+03  0.14443119584E+03  0.38167904217E+03  0.00000000000E+00 0.  1.
</event>
<event>
 5    1  0.6336319E-005  0.4810350E+03  0.7818608E-02  0.9658782E-01
         -4   -1    0    0    0  501 -0.00000000000E+00  0.00000000000E+00  0.21031074629E+04  0.21031074629E+04  0.00000000000E+00 0. -1.
         21   -1    0    0  501  502  0.00000000000E+00 -0.00000000000E+00 -0.47589131700E+03  0.47589131700E+03  0.00000000000E+00 0. -1.
        -13    1    1    2    0    0  0.29151860848E+03  0.36933859475E+02  0.14991282401E+04  0.15276559497E+04  0.10566000000E+00 0.  1.
         13    1    1    2    0    0  0.37500531876E+03  0.11884390259E+02  0.48039471548E+02  0.37825656613E+03  0.10566000000E+00 0. -1.
         -4    1    1    2    0  502 -0.66652392724E+03 -0.48818249734E+02  0.80048434215E+02  0.67308626409E+03  0.00000000000E+00 0. -1.
</event>
<event>
 5    1  0.6336319E-005  0.4506442E+03  0.7818608E-02  0.9593252E-01
         21   -1    0    0  501  502  0.00000000000E+00  0.00000000000E+00  0.37555168783E+03  0.37555168783E+03  0.00000000000E+00 0.  1.
         -4   -1    0    0    0  501 -0.00000000000E+00 -0.00000000000E+00 -0.81716974281E+03  0.81716974281E+03  0.00000000000E+00 0. -1.
        -13    1    1    2    0    0 -0.40315663599E+03  0.20192542041E+03 -0.46865444644E+03  0.65034310166E+03  0.10566000000E+00 0.  1.
         13    1    1    2    0    0  0.37396832273E+03 -0.25553491086E+03 -0.36335045134E+02  0.45439040894E+03  0.10566000000E+00 0. -1.
         -4    1    1    2    0  502  0.29188313256E+02  0.53609490446E+02  0.63371436592E+02  0.87987920037E+02  0.00000000000E+00 0. -1.
</event>
<event>
 5    1  0.6336319E-005  0.4655155E+03  0.7818608E-02  0.9604722E-01
         -4   -1    0    0    0  501 -0.00000000000E+00  0.00000000000E+00  0.41116773155E+03  0.41116773155E+03  0.00000000000E+00 0. -1.
         21   -1    0    0  501  502  0.00000000000E+00 -0.00000000000E+00 -0.13274278530E+04  0.13274278530E+04  0.00000000000E+00 0. -1.
        -13    1    1    2    0    0  0.29604815310E+03 -0.25766023428E+03 -0.14000094519E+03  0.41669362978E+03  0.10566000000E+00 0.  1.
         13    1    1    2    0    0  0.22831784087E+03  0.35583058146E+03 -0.57315148500E+02  0.42664912583E+03  0.10566000000E+00 0. -1.
         -4    1    1    2    0  502 -0.52436599397E+03 -0.98170347174E+02 -0.71894402778E+03  0.89525282897E+03  0.00000000000E+00 0. -1.
</event>
<event>
 5    1  0.6336319E-005  0.5083656E+03  0.7818608E-02  0.9923055E-01
          4   -1    0    0  502    0 -0.00000000000E+00  0.00000000000E+00  0.10524544784E+04  0.10524544784E+04  0.00000000000E+00 0.  1.
         21   -1    0    0  501  502  0.00000000000E+00 -0.00000000000E+00 -0.41937032461E+03  0.41937032461E+03  0.00000000000E+00 0.  1.
        -13    1    1    2    0    0  0.44954314875E+03  0.11216150375E+03  0.17527920863E+03  0.49537062656E+03  0.10566000000E+00 0.  1.
         13    1    1    2    0    0  0.67250999526E+02  0.75119330447E+02  0.41279799671E+03  0.42493270996E+03  0.10566000000E+00 0. -1.
          4    1    1    2  501    0 -0.51679414828E+03 -0.18728083420E+03  0.45006948415E+02  0.55152146646E+03  0.00000000000E+00 0.  1.
</event>
<event>
 5    1  0.6336319E-005  0.4969467E+03  0.7818608E-02  0.9609241E-01
         21   -1    0    0  501  502  0.00000000000E+00  0.00000000000E+00  0.21050037468E+03  0.21050037468E+03  0.00000000000E+00 0. -1.
         -4   -1    0    0    0  501 -0.00000000000E+00 -0.00000000000E+00 -0.22628291170E+04  0.22628291170E+04  0.00000000000E+00 0. -1.
        -13    1    1    2    0    0  0.11372090688E+03  0.29640802907E+03 -0.61545735570E+03  0.69251565485E+03  0.10566000000E+00 0.  1.
         13    1    1    2    0    0  0.44530043067E+03 -0.17721157601E+03 -0.61411984652E+03  0.77899910994E+03  0.10566000000E+00 0. -1.
         -4    1    1    2    0  502 -0.55902133755E+03 -0.11919645306E+03 -0.82275154008E+03  0.10018147269E+04  0.00000000000E+00 0. -1.
</event>
<event>
 5    1  0.6336319E-005  0.4798158E+03  0.7818608E-02  0.1001798E+00
         21   -1    0    0  501  502  0.00000000000E+00  0.00000000000E+00  0.70153070227E+03  0.70153070227E+03  0.00000000000E+00 0. -1.
         -4   -1    0    0    0  501 -0.00000000000E+00 -0.00000000000E+00 -0.79046382718E+03  0.79046382718E+03  0.00000000000E+00 0. -1.
        -13    1    1    2    0    0  0.29583610922E+02 -0.82545718350E+02 -0.40770537107E+03  0.41702837603E+03  0.10566000000E+00 0.  1.
         13    1    1    2    0    0  0.93998277914E+02 -0.44149556755E+03  0.28847685871E+03  0.53569853611E+03  0.10566000000E+00 0. -1.
         -4    1    1    2    0  502 -0.12358188884E+03  0.52404128590E+03  0.30295387438E+02  0.53926761730E+03  0.00000000000E+00 0. -1.
</event>
<event>
 5    1  0.6336319E-005  0.3122286E+03  0.7818608E-02  0.1002381E+00
         -4   -1    0    0    0  501 -0.00000000000E+00  0.00000000000E+00  0.17584076473E+04  0.17584076473E+04  0.00000000000E+00 0. -1.
         21   -1    0    0  501  502  0.00000000000E+00 -0.00000000000E+00 -0.37828466102E+03  0.37828466102E+03  0.00000000000E+00 0. -1.
        -13    1    1    2    0    0  0.27518854799E+03  0.17208317484E+03  0.66337107777E+03  0.73851374665E+03  0.10566000000E+00 0.  1.
         13    1    1    2    0    0 -0.32434320693E+03  0.68329078564E+00  0.10063896118E+04  0.10573641968E+04  0.10566000000E+00 0. -1.
         -4    1    1    2    0  502  0.49154658942E+02 -0.17276646563E+03 -0.28963770328E+03  0.34081436487E+03  0.00000000000E+00 0. -1.
</event>
<event>
 5    1  0.6336319E-005  0.4315444E+03  0.7818608E-02  0.9772178E-01
         21   -1    0    0  501  502  0.00000000000E+00  0.00000000000E+00  0.55720390313E+03  0.55720390313E+03  0.00000000000E+00 0. -1.
         -4   -1    0    0    0  501 -0.00000000000E+00 -0.00000000000E+00 -0.75292664119E+03  0.75292664119E+03  0.00000000000E+00 0. -1.
        -13    1    1    2    0    0  0.26837089386E+03  0.57791313682E+02 -0.16969526658E+03  0.32273714888E+03  0.10566000000E+00 0.  1.
         13    1    1    2    0    0 -0.54492438289E+03  0.20422117604E+03 -0.12187051764E+03  0.59455975818E+03  0.10566000000E+00 0. -1.
         -4    1    1    2    0  502  0.27655348903E+03 -0.26201248972E+03  0.95843046161E+02  0.39283363726E+03  0.00000000000E+00 0. -1.
</event>
<event>
 5    1  0.6336319E-005  0.4952477E+03  0.7818608E-02  0.9606750E-01
         21   -1    0    0  501  502  0.00000000000E+00  0.00000000000E+00  0.21897556138E+03  0.21897556138E+03  0.00000000000E+00 0. -1.
         -4   -1    0    0    0  501 -0.00000000000E+00 -0.00000000000E+00 -0.21928973153E+04  0.21928973153E+04  0.00000000000E+00 0. -1.
        -13    1    1    2    0    0 -0.49912944274E+02 -0.31973044629E+03 -0.31804920798E+03  0.45373358941E+03  0.10566000000E+00 0.  1.
         13    1    1    2    0    0 -0.32483172876E+03  0.49942049143E+03 -0.72271344017E+03  0.93661689448E+03  0.10566000000E+00 0. -1.
         -4    1    1    2    0  502  0.37474467303E+03 -0.17969004513E+03 -0.93315910574E+03  0.10215223928E+04  0.00000000000E+00 0. -1.
</event>
<event>
 5    1  0.6336319E-005  0.4935913E+03  0.7818608E-02  0.9537851E-01
         -4   -1    0    0    0  501 -0.00000000000E+00  0.00000000000E+00  0.18010660847E+04  0.18010660847E+04  0.00000000000E+00 0. -1.
         21   -1    0    0  501  502  0.00000000000E+00 -0.00000000000E+00 -0.31341267272E+03  0.31341267272E+03  0.00000000000E+00 0. -1.
        -13    1    1    2    0    0 -0.14015540273E+03 -0.39408301343E+03  0.46807217278E+03  0.62772328974E+03  0.10566000000E+00 0.  1.
         13    1    1    2    0    0  0.38294547288E+03 -0.16402406969E+03  0.65808963354E+03  0.77886655313E+03  0.10566000000E+00 0. -1.
         -4    1    1    2    0  502 -0.24279007016E+03  0.55810708312E+03  0.36149160567E+03  0.70788891456E+03  0.00000000000E+00 0. -1.
</event>
<event>
 5    1  0.6336319E-005  0.1017862E+03  0.7818608E-02  0.1161634E+00
         -4   -1    0    0    0  501 -0.00000000000E+00  0.00000000000E+00  0.10729870099E+03  0.10729870099E+03  0.00000000000E+00 0. -1.
         21   -1    0    0  501  502  0.00000000000E+00 -0.00000000000E+00 -0.43261247068E+03  0.43261247068E+03  0.00000000000E+00 0.  1.
        -13    1    1    2    0    0  0.11006569834E+03 -0.48923380273E+02 -0.33764468309E+03  0.35848556215E+03  0.10566000000E+00 0.  1.
         13    1    1    2    0    0 -0.75585278022E+02  0.66516880356E+02  0.62159666930E+02  0.11832778618E+03  0.10566000000E+00 0. -1.
         -4    1    1    2    0  502 -0.34480420318E+02 -0.17593500084E+02 -0.49828753539E+02  0.63097823336E+02  0.00000000000E+00 0. -1.
</event>
<event>
 5    1  0.6336319E-005  0.4404675E+03  0.7818608E-02  0.9730704E-01
          4   -1    0    0  502    0 -0.00000000000E+00  0.00000000000E+00  0.88287386513E+03  0.88287386513E+03  0.00000000000E+00 0.  1.
         21   -1    0    0  501  502  0.00000000000E+00 -0.00000000000E+00 -0.64580256225E+03  0.64580256225E+03  0.00000000000E+00 0.  1.
        -13    1    1    2    0    0  0.19487381984E+03 -0.39708146481E+03 -0.28625692049E+03  0.52687050690E+03  0.10566000000E+00 0.  1.
         13    1    1    2    0    0 -0.28035932155E+03 -0.10058058335E+03  0.36814180597E+03  0.47354641103E+03  0.10566000000E+00 0. -1.
          4    1    1    2  501    0  0.85485501712E+02  0.49766204815E+03  0.15518641740E+03  0.52825950945E+03  0.00000000000E+00 0.  1.
</event>
<event>
 5    1  0.6336319E-005  0.4614722E+03  0.7818608E-02  0.1011302E+00
         21   -1    0    0  501  502  0.00000000000E+00  0.00000000000E+00  0.61591668369E+03  0.61591668369E+03  0.00000000000E+00 0. -1.
         -4   -1    0    0    0  501 -0.00000000000E+00 -0.00000000000E+00 -0.54181435144E+03  0.54181435144E+03  0.00000000000E+00 0. -1.
        -13    1    1    2    0    0  0.56872483400E+02 -0.44928341900E+02 -0.16553061095E+03  0.18070259987E+03  0.10566000000E+00 0.  1.
         13    1    1    2    0    0  0.32075384104E+03  0.32624094957E+03  0.21495351774E+03  0.50549105796E+03  0.10566000000E+00 0. -1.
         -4    1    1    2    0  502 -0.37762632444E+03 -0.28131260767E+03  0.24679425466E+02  0.47153737730E+03  0.00000000000E+00 0. -1.
</event>
<event>
 5    1  0.6336319E-005  0.9939314E+02  0.7818608E-02  0.1165564E+00
         21   -1    0    0  501  502  0.00000000000E+00  0.00000000000E+00  0.10023699370E+04  0.10023699370E+04  0.00000000000E+00 0.  1.
         -4   -1    0    0    0  501 -0.00000000000E+00 -0.00000000000E+00 -0.31132098901E+02  0.31132098901E+02  0.00000000000E+00 0. -1.
        -13    1    1    2    0    0  0.97990997134E+02 -0.61561211645E+02  0.16175810872E+03  0.19889121449E+03  0.10566000000E+00 0.  1.
         13    1    1    2    0    0 -0.89416474733E+02  0.54061170762E+01  0.16599563281E+03  0.18862421195E+03  0.10566000000E+00 0. -1.
         -4    1    1    2    0  502 -0.85745224013E+01  0.56155094569E+02  0.64348409656E+03  0.64598660946E+03  0.00000000000E+00 0. -1.
</event>
<event>
 5    1  0.6336319E-005  0.4893075E+03  0.7818608E-02  0.9582323E-01
         21   -1    0    0  501  502  0.00000000000E+00  0.00000000000E+00  0.24612147911E+03  0.24612147911E+03  0.00000000000E+00 0.  1.
          4   -1    0    0  502    0 -0.00000000000E+00 -0.00000000000E+00 -0.22661536878E+04  0.22661536878E+04  0.00000000000E+00 0.  1.
        -13    1    1    2    0    0  0.48767328935E+03  0.31585036233E+03 -0.71009046233E+03  0.91750485797E+03  0.10566000000E+00 0.  1.
         13    1    1    2    0    0 -0.33912280284E+03  0.13774475661E+03 -0.87719367589E+03  0.95049810603E+03  0.10566000000E+00 0. -1.
          4    1    1    2  501    0 -0.14855048651E+03 -0.45359511894E+03 -0.43274807047E+03  0.64427220292E+03  0.00000000000E+00 0.  1.
</event>
<event>
 5    1  0.6336319E-005  0.3992847E+03  0.7818608E-02  0.1005230E+00
         -4   -1    0    0    0  501 -0.00000000000E+00  0.00000000000E+00  0.19955817307E+04  0.19955817307E+04  0.00000000000E+00 0. -1.
         21   -1    0    0  501  502  0.00000000000E+00 -0.00000000000E+00 -0.15474261552E+03  0.15474261552E+03  0.00000000000E+00 0. -1.
        -13    1    1    2    0    0 -0.13391155773E+03 -0.24220258285E+02  0.54327982265E+03  0.56006419548E+03  0.10566000000E+00 0.  1.
         13    1    1    2    0    0 -0.34120848187E+03 -0.12762454504E+03  0.28866875424E+03  0.46480201531E+03  0.10566000000E+00 0. -1.
         -4    1    1    2    0  502  0.47512003960E+03  0.15184480332E+03  0.10088905382E+04  0.11254581354E+04  0.00000000000E+00 0. -1.
</event>
<event>
 5    1  0.6336319E-005  0.6461812E+03  0.7818608E-02  0.9204934E-01
         -4   -1    0    0    0  501 -0.00000000000E+00  0.00000000000E+00  0.28096884882E+04  0.28096884882E+04  0.00000000000E+00 0. -1.
         21   -1    0    0  501  502  0.00000000000E+00 -0.00000000000E+00 -0.44092231906E+03  0.44092231906E+03  0.00000000000E+00 0. -1.
        -13    1    1    2    0    0  0.60717775231E+03 -0.26229326371E+03  0.18397513309E+04  0.19550313424E+04  0.10566000000E+00 0.  1.
         13    1    1    2    0    0 -0.50594286854E+03  0.37147221810E+03  0.78156682843E+03  0.10024053639E+04  0.10566000000E+00 0. -1.
         -4    1    1    2    0  502 -0.10123488377E+03 -0.10917895438E+03 -0.25255199016E+03  0.29317410102E+03  0.00000000000E+00 0. -1.
</event>
<event>
 5    1  0.6336319E-005  0.3520579E+03  0.7818608E-02  0.9878749E-01
          4   -1    0    0  502    0 -0.00000000000E+00  0.00000000000E+00  0.20984281482E+04  0.20984281482E+04  0.00000000000E+00 0.  1.
         21   -1    0    0  501  502  0.00000000000E+00 -0.00000000000E+00 -0.11124181117E+03  0.11124181117E+03  0.00000000000E+00 0.  1.
        -13    1    1    2    0    0  0.32284933494E+03  0.13259550217E+03  0.11241044586E+04  0.11770404009E+04  0.10566000000E+00 0.  1.
         13    1    1    2    0    0 -0.33199694333E+03 -0.12834252219E+03  0.91392679764E+03  0.98079354402E+03  0.10566000000E+00 0. -1.
          4    1    1    2  501    0  0.91476083865E+01 -0.42529799785E+01 -0.50844919258E+02  0.51836014433E+02  0.00000000000E+00 0.  1.
</event>
<event>
 5    1  0.6336319E-005  0.4538149E+03  0.7818608E-02  0.9971256E-01
         21   -1    0    0  501  502  0.00000000000E+00  0.00000000000E+00  0.11930699265E+03  0.11930699265E+03  0.00000000000E+00 0.  1.
          4   -1    0    0  502    0 -0.00000000000E+00 -0.00000000000E+00 -0.26374162212E+04  0.26374162212E+04  0.00000000000E+00 0.  1.
        -13    1    1    2    0    0 -0.32309044904E+03  0.27113990458E+03 -0.62913720553E+03  0.75744169456E+03  0.10566000000E+00 0.  1.
         13    1    1    2    0    0 -0.45820312625E+02  0.11178274323E+03 -0.28767843293E+03  0.31201566414E+03  0.10566000000E+00 0. -1.
          4    1    1    2  501    0  0.36891076166E+03 -0.38292264781E+03 -0.16012935901E+04  0.16872658552E+04  0.00000000000E+00 0.  1.
</event>
<event>
 5    1  0.6336319E-005  0.7641808E+02  0.7818608E-02  0.1210829E+00
         21   -1    0    0  501  502  0.00000000000E+00  0.00000000000E+00  0.22619815625E+02  0.22619815625E+02  0.00000000000E+00 0.  1.
          4   -1    0    0  502    0 -0.00000000000E+00 -0.00000000000E+00 -0.37169359296E+03  0.37169359296E+03  0.00000000000E+00 0.  1.
        -13    1    1    2    0    0 -0.86304988174E+02 -0.92101268544E+01 -0.22683927031E+03  0.24287742411E+03  0.10566000000E+00 0.  1.
         13    1    1    2    0    0  0.62617490758E+02 -0.21248180073E+01 -0.78690848067E+02  0.10058690637E+03  0.10566000000E+00 0. -1.
          4    1    1    2  501    0  0.23687497416E+02  0.11334944862E+02 -0.43543658960E+02  0.50849078108E+02  0.00000000000E+00 0.  1.
</event>
<event>
 5    1  0.6336319E-005  0.4153492E+03  0.7818608E-02  0.9685733E-01
         -4   -1    0    0    0  501 -0.00000000000E+00  0.00000000000E+00  0.13098339820E+04  0.13098339820E+04  0.00000000000E+00 0. -1.
         21   -1    0    0  501  502  0.00000000000E+00 -0.00000000000E+00 -0.57512086169E+03  0.57512086169E+03  0.00000000000E+00 0. -1.
        -13    1    1    2    0    0  0.32232635192E+03 -0.23833839132E+03  0.70577276723E+03  0.81167399617E+03  0.10566000000E+00 0.  1.
         13    1    1    2    0    0 -0.39639846447E+03  0.19966907466E+03  0.45704688546E+03  0.63709602783E+03  0.10566000000E+00 0. -1.
         -4    1    1    2    0  502  0.74072112543E+02  0.38669316666E+02 -0.42810653235E+03  0.43618481972E+03  0.00000000000E+00 0. -1.
</event>
<event>
 5    1  0.6336319E-005  0.1786765E+03  0.7818608E-02  0.1120603E+00
          4   -1    0    0  502    0 -0.00000000000E+00  0.00000000000E+00  0.29251364341E+03  0.29251364341E+03  0.00000000000E+00 0.  1.
         21   -1    0    0  501  502  0.00000000000E+00 -0.00000000000E+00 -0.36918373590E+03  0.36918373590E+03  0.00000000000E+00 0.  1.
        -13    1    1    2    0    0 -0.22476149063E+03  0.31936286417E+01  0.14760341400E+03  0.26891393776E+03  0.10566000000E+00 0.  1.
         13    1    1    2    0    0  0.51798558004E+02 -0.10649014298E+02  0.47149075039E+02  0.70848701879E+02  0.10566000000E+00 0. -1.
          4    1    1    2  501    0  0.17296293262E+03  0.74553856566E+01 -0.27142258153E+03  0.32193473967E+03  0.00000000000E+00 0.  1.
</event>
<event>
 5    1  0.6336319E-005  0.1309994E+03  0.7818608E-02  0.1121524E+00
          4   -1    0    0  502    0 -0.00000000000E+00  0.00000000000E+00  0.11068847481E+04  0.11068847481E+04  0.00000000000E+00 0.  1.
         21   -1    0    0  501  502  0.00000000000E+00 -0.00000000000E+00 -0.21348453144E+02  0.21348453144E+02  0.00000000000E+00 0. -1.
        -13    1    1    2    0    0  0.12427289511E+03 -0.24050187447E+02  0.70487067774E+03  0.71614582836E+03  0.10566000000E+00 0.  1.
         13    1    1    2    0    0 -0.13859094642E+03  0.30385271595E+02  0.34974972046E+03  0.37743289905E+03  0.10566000000E+00 0. -1.
          4    1    1    2  501    0  0.14318051311E+02 -0.63350841479E+01  0.30915896775E+02  0.34654473851E+02  0.00000000000E+00 0.  1.
</event>
<event>
 5    1  0.6336319E-005  0.3541889E+03  0.7818608E-02  0.9871569E-01
         -4   -1    0    0    0  501 -0.00000000000E+00  0.00000000000E+00  0.65572241642E+03  0.65572241642E+03  0.00000000000E+00 0. -1.
         21   -1    0    0  501  502  0.00000000000E+00 -0.00000000000E+00 -0.13203906592E+04  0.13203906592E+04  0.00000000000E+00 0. -1.
        -13    1    1    2    0    0 -0.15129377234E+03 -0.30570908701E+03  0.38439604537E+03  0.51391456711E+03  0.10566000000E+00 0.  1.
         13    1    1    2    0    0  0.18356576957E+03  0.55874913672E+03 -0.10540851150E+04  0.12070594146E+04  0.10566000000E+00 0. -1.
         -4    1    1    2    0  502 -0.32271997235E+02 -0.25304004971E+03  0.50208268082E+01  0.25513909396E+03  0.00000000000E+00 0. -1.
</event>
<event>
 5    1  0.6336319E-005  0.1203092E+03  0.7818608E-02  0.1140261E+00
         21   -1    0    0  501  502  0.00000000000E+00  0.00000000000E+00  0.44281167813E+03  0.44281167813E+03  0.00000000000E+00 0.  1.
          4   -1    0    0  502    0 -0.00000000000E+00 -0.00000000000E+00 -0.17465630578E+03  0.17465630578E+03  0.00000000000E+00 0.  1.
        -13    1    1    2    0    0 -0.36987121378E+02 -0.33387253457E+02 -0.13548979109E+03  0.14436152706E+03  0.10566000000E+00 0.  1.
         13    1    1    2    0    0 -0.97415390850E+02  0.38103903329E+02  0.23631483425E+03  0.25843060553E+03  0.10566000000E+00 0. -1.
          4    1    1    2  501    0  0.13440251223E+03 -0.47166498727E+01  0.16733032918E+03  0.21467585133E+03  0.00000000000E+00 0.  1.
</event>
<event>
 5    1  0.6336319E-005  0.4765846E+03  0.7818608E-02  0.9530825E-01
          4   -1    0    0  502    0 -0.00000000000E+00  0.00000000000E+00  0.32089178401E+03  0.32089178401E+03  0.00000000000E+00 0.  1.
         21   -1    0    0  501  502  0.00000000000E+00 -0.00000000000E+00 -0.13357623816E+04  0.13357623816E+04  0.00000000000E+00 0. -1.
        -13    1    1    2    0    0  0.43174379490E+02 -0.49960381997E+03 -0.72793283909E+02  0.50672169612E+03  0.10566000000E+00 0.  1.
         13    1    1    2    0    0  0.14484021960E+03  0.41243647213E+03 -0.74599094591E+03  0.86462999908E+03  0.10566000000E+00 0. -1.
          4    1    1    2  501    0 -0.18801459909E+03  0.87167347840E+02 -0.19608636780E+03  0.28530247043E+03  0.00000000000E+00 0.  1.
</event>
<event>
 5    1  0.6336319E-005  0.4704540E+03  0.7818608E-02  0.9545193E-01
         -4   -1    0    0    0  501 -0.00000000000E+00  0.00000000000E+00  0.11726614798E+04  0.11726614798E+04  0.00000000000E+00 0. -1.
         21   -1    0    0  501  502  0.00000000000E+00 -0.00000000000E+00 -0.66704758262E+03  0.66704758262E+03  0.00000000000E+00 0. -1.
        -13    1    1    2    0    0 -0.15512756909E+03  0.39183826970E+03  0.62752561768E+03  0.75590356813E+03  0.10566000000E+00 0.  1.
         13    1    1    2    0    0  0.19822727946E+03 -0.63349753389E+03  0.18663334084E+03  0.68952534024E+03  0.10566000000E+00 0. -1.
         -4    1    1    2    0  502 -0.43099710365E+02  0.24165926419E+03 -0.30854506133E+03  0.39428015405E+03  0.00000000000E+00 0. -1.
</event>
<event>
 5    1  0.6336319E-005  0.3284182E+03  0.7818608E-02  0.1017872E+00
         -4   -1    0    0    0  501 -0.00000000000E+00  0.00000000000E+00  0.20690891208E+04  0.20690891208E+04  0.00000000000E+00 0. -1.
         21   -1    0    0  501  502  0.00000000000E+00 -0.00000000000E+00 -0.22974616936E+03  0.22974616936E+03  0.00000000000E+00 0. -1.
        -13    1    1    2    0    0 -0.14981271911E+03 -0.64496326181E+02  0.88471819296E+03  0.89962765576E+03  0.10566000000E+00 0.  1.
         13    1    1    2    0    0  0.21287028146E+03 -0.25660919297E+03 -0.54963345011E+02  0.33790977362E+03  0.10566000000E+00 0. -1.
         -4    1    1    2    0  502 -0.63057562352E+02  0.32110551915E+03  0.10095881035E+04  0.10612978608E+04  0.00000000000E+00 0. -1.
</event>
<event>
 5    1  0.6336319E-005  0.4477936E+03  0.7818608E-02  0.9600382E-01
          4   -1    0    0  502    0 -0.00000000000E+00  0.00000000000E+00  0.23879393956E+04  0.23879393956E+04  0.00000000000E+00 0.  1.
         21   -1    0    0  501  502  0.00000000000E+00 -0.00000000000E+00 -0.33538151365E+03  0.33538151365E+03  0.00000000000E+00 0.  1.
        -13    1    1    2    0    0 -0.69129121331E+01 -0.66071289244E+03  0.71951495836E+03  0.97687824270E+03  0.10566000000E+00 0.  1.
         13    1    1    2    0    0  0.38356705107E+01  0.40161731549E+03  0.14179795741E+04  0.14737629606E+04  0.10566000000E+00 0. -1.
          4    1    1    2  501    0  0.30772416223E+01  0.25909557695E+03 -0.84936650512E+02  0.27267970590E+03  0.00000000000E+00 0.  1.
</event>
<event>
 5    1  0.6336319E-005  0.4293149E+03  0.7818608E-02  0.9830416E-01
         21   -1    0    0  501  502  0.00000000000E+00  0.00000000000E+00  0.27867974899E+03  0.27867974899E+03  0.00000000000E+00 0. -1.
         -4   -1    0    0    0  501 -0.00000000000E+00 -0.00000000000E+00 -0.18634818579E+04  0.18634818579E+04  0.00000000000E+00 0. -1.
        -13    1    1    2    0    0  0.85889362413E+01  0.22840013535E+03 -0.82649727546E+03  0.85751859989E+03  0.10566000000E+00 0.  1.
         13    1    1    2    0    0  0.30869595061E+03  0.24240940208E+03 -0.80841155836E+02  0.40073783423E+03  0.10566000000E+00 0. -1.
         -4    1    1    2    0  502 -0.31728488686E+03 -0.47080953743E+03 -0.67746367761E+03  0.88390517277E+03  0.00000000000E+00 0. -1.
</event>
<event>
 5    1  0.6336319E-005  0.4049524E+03  0.7818608E-02  0.9932837E-01
          4   -1    0    0  502    0 -0.00000000000E+00  0.00000000000E+00  0.33718032044E+04  0.33718032044E+04  0.00000000000E+00 0.  1.
         21   -1    0    0  501  502  0.00000000000E+00 -0.00000000000E+00 -0.12406052677E+03  0.12406052677E+03  0.00000000000E+00 0. -1.
        -13    1    1    2    0    0 -0.27142592099E+03 -0.40158915948E+03  0.24817116697E+04  0.25286041024E+04  0.10566000000E+00 0.  1.
         13    1    1    2    0    0  0.19226356827E+03  0.17803721174E+02  0.19258713938E+03  0.27271243021E+03  0.10566000000E+00 0. -1.
          4    1    1    2  501    0  0.79162352714E+02  0.38378543831E+03  0.57344386855E+03  0.69454719863E+03  0.00000000000E+00 0.  1.
</event>
<event>
 5    1  0.6336319E-005  0.6435043E+03  0.7818608E-02  0.9209227E-01
          4   -1    0    0  502    0 -0.00000000000E+00  0.00000000000E+00  0.22573353353E+04  0.22573353353E+04  0.00000000000E+00 0.  1.
         21   -1    0    0  501  502  0.00000000000E+00 -0.00000000000E+00 -0.76031397107E+03  0.76031397107E+03  0.00000000000E+00 0.  1.
        -13    1    1    2    0    0 -0.39362393845E+03 -0.34006552054E+03  0.36921762426E+03  0.63789186263E+03  0.10566000000E+00 0.  1.
         13    1    1    2    0    0  0.24236157784E+03  0.71263047304E+03  0.15947951967E+04  0.17635058991E+04  0.10566000000E+00 0. -1.
          4    1    1    2  501    0  0.15126236061E+03 -0.37256495250E+03 -0.46699145676E+03  0.61625154463E+03  0.00000000000E+00 0.  1.
</event>
<event>
 5    1  0.6336319E-005  0.1843367E+03  0.7818608E-02  0.1071439E+00
          4   -1    0    0  502    0 -0.00000000000E+00  0.00000000000E+00  0.15274012621E+04  0.15274012621E+04  0.00000000000E+00 0.  1.
         21   -1    0    0  501  502  0.00000000000E+00 -0.00000000000E+00 -0.29838056161E+02  0.29838056161E+02  0.00000000000E+00 0. -1.
        -13    1    1    2    0    0  0.49956023995E+02 -0.19173524061E+03  0.68942782446E+03  0.71733447090E+03  0.10566000000E+00 0.  1.
         13    1    1    2    0    0 -0.63598708876E+02  0.16322146478E+03  0.77318528121E+03  0.79278088560E+03  0.10566000000E+00 0. -1.
          4    1    1    2  501    0  0.13642684882E+02  0.28513775832E+02  0.34950100241E+02  0.47123961738E+02  0.00000000000E+00 0.  1.
</event>
<event>
 5    1  0.6336319E-005  0.4137494E+03  0.7818608E-02  0.9924171E-01
         21   -1    0    0  501  502  0.00000000000E+00  0.00000000000E+00  0.12031440521E+04  0.12031440521E+04  0.00000000000E+00 0.  1.
          4   -1    0    0  502    0 -0.00000000000E+00 -0.00000000000E+00 -0.64559861095E+03  0.64559861095E+03  0.00000000000E+00 0.  1.
        -13    1    1    2    0    0 -0.24330410356E+03  0.14408523388E+03 -0.55627637645E+02  0.28818724237E+03  0.10566000000E+00 0.  1.
         13    1    1    2    0    0 -0.85971981613E+02  0.16530454544E+03 -0.40545496331E+03  0.44621801039E+03  0.10566000000E+00 0. -1.
          4    1    1    2  501    0  0.32927608518E+03 -0.30938977932E+03  0.10186280421E+04  0.11143374103E+04  0.00000000000E+00 0.  1.
</event>
<event>
 5    1  0.6336319E-005  0.1955805E+03  0.7818608E-02  0.1063209E+00
         21   -1    0    0  501  502  0.00000000000E+00  0.00000000000E+00  0.31429223786E+03  0.31429223786E+03  0.00000000000E+00 0. -1.
          4   -1    0    0  502    0 -0.00000000000E+00 -0.00000000000E+00 -0.27856645767E+03  0.27856645767E+03  0.00000000000E+00 0.  1.
        -13    1    1    2    0    0  0.12665416666E+03 -0.14344539151E+03  0.18534359306E+03  0.26640217141E+03  0.10566000000E+00 0.  1.
         13    1    1    2    0    0 -0.13716026751E+03  0.14053689281E+03 -0.19680815700E+03  0.27802341458E+03  0.10566000000E+00 0. -1.
          4    1    1    2  501    0  0.10506100855E+02  0.29084986994E+01  0.47190344140E+02  0.48433109542E+02  0.00000000000E+00 0.  1.
</event>
<event>
 5    1  0.6336319E-005  0.8012642E+02  0.7818608E-02  0.1202412E+00
         21   -1    0    0  501  502  0.00000000000E+00  0.00000000000E+00  0.26580543038E+02  0.26580543038E+02  0.00000000000E+00 0.  1.
         -4   -1    0    0    0  501 -0.00000000000E+00 -0.00000000000E+00 -0.52760217071E+03  0.52760217071E+03  0.00000000000E+00 0. -1.
        -13    1    1    2    0    0  0.70301588199E+02  0.27901679469E+02 -0.58596550546E+02  0.95678544723E+02  0.10566000000E+00 0.  1.
         13    1    1    2    0    0 -0.59120811263E+02 -0.58796638274E+02 -0.25690711313E+03  0.27009922424E+03  0.10566000000E+00 0. -1.
         -4    1    1    2    0  502 -0.11180776935E+02  0.30894958805E+02 -0.18551796400E+03  0.18840494478E+03  0.00000000000E+00 0. -1.
</event>
<event>
 5    1  0.6336319E-005  0.3891687E+03  0.7818608E-02  0.9815490E-01
          4   -1    0    0  502    0 -0.00000000000E+00  0.00000000000E+00  0.13499388987E+04  0.13499388987E+04  0.00000000000E+00 0.  1.
         21   -1    0    0  501  502  0.00000000000E+00 -0.00000000000E+00 -0.40798649057E+03  0.40798649057E+03  0.00000000000E+00 0.  1.
        -13    1    1    2    0    0  0.14916892420E+03 -0.29461484913E+03 -0.50649253260E+02  0.33408776585E+03  0.10566000000E+00 0.  1.
         13    1    1    2    0    0  0.22688405731E+03 -0.22962819133E+03  0.56217647101E+03  0.64826528323E+03  0.10566000000E+00 0. -1.
          4    1    1    2  501    0 -0.37605298151E+03  0.52424304046E+03  0.43042519039E+03  0.77557234021E+03  0.00000000000E+00 0.  1.
</event>
<event>
 5    1  0.6336319E-005  0.5174694E+03  0.7818608E-02  0.9653122E-01
         -4   -1    0    0    0  501 -0.00000000000E+00  0.00000000000E+00  0.26433057258E+04  0.26433057258E+04  0.00000000000E+00 0. -1.
         21   -1    0    0  501  502  0.00000000000E+00 -0.00000000000E+00 -0.16084273620E+03  0.16084273620E+03  0.00000000000E+00 0. -1.
        -13    1    1    2    0    0  0.22677213185E+03  0.80960802569E+02  0.47132857091E+03  0.52927392176E+03  0.10566000000E+00 0.  1.
         13    1    1    2    0    0 -0.59213358882E+03  0.14737137053E+03  0.94395605722E+03  0.11240078100E+04  0.10566000000E+00 0. -1.
         -4    1    1    2    0  502  0.36536145697E+03 -0.22833217310E+03  0.10671783614E+04  0.11508667302E+04  0.00000000000E+00 0. -1.
</event>
<event>
 5    1  0.6336319E-005  0.5050996E+02  0.7818608E-02  0.1289726E+00
         -4   -1    0    0    0  501 -0.00000000000E+00  0.00000000000E+00  0.54644409034E+02  0.54644409034E+02  0.00000000000E+00 0. -1.
         21   -1    0    0  501  502  0.00000000000E+00 -0.00000000000E+00 -0.10990682687E+03  0.10990682687E+03  0.00000000000E+00 0.  1.
        -13    1    1    2    0    0 -0.35750907291E+02 -0.26051048587E+02 -0.47859359026E+02  0.65171419464E+02  0.10566000000E+00 0.  1.
         13    1    1    2    0    0  0.53380520823E+02  0.68726918874E+01  0.23700377105E+02  0.58808442728E+02  0.10566000000E+00 0. -1.
         -4    1    1    2    0  502 -0.17629613533E+02  0.19178356700E+02 -0.31103435917E+02  0.40571373711E+02  0.00000000000E+00 0. -1.
</event>
<event>
 5    1  0.6869237E-005  0.4701864E+03  0.7818608E-02  0.9815539E-01
          4   -1    0    0  502    0 -0.00000000000E+00  0.00000000000E+00  0.10218940483E+04  0.10218940483E+04  0.00000000000E+00 0.  1.
         21   -1    0    0  501  502  0.00000000000E+00 -0.00000000000E+00 -0.44809066143E+03  0.44809066143E+03  0.00000000000E+00 0.  1.
        -13    1    1    2    0    0  0.12942351673E+03  0.35554256104E+03  0.32419493177E+03  0.49826029777E+03  0.10566000000E+00 0.  1.
         13    1    1    2    0    0 -0.85804810436E+02  0.16164922530E+03  0.39277028608E+03  0.43331448894E+03  0.10566000000E+00 0. -1.
          4    1    1    2  501    0 -0.43618706294E+02 -0.51719178634E+03 -0.14316183095E+03  0.53840992305E+03  0.00000000000E+00 0.  1.
</event>
<event>
 5    1  0.6336319E-005  0.8864708E+03  0.7818608E-02  0.8889265E-01
         21   -1    0    0  501  502  0.00000000000E+00  0.00000000000E+00  0.47262344242E+03  0.47262344242E+03  0.00000000000E+00 0.  1.
         -4   -1    0    0    0  501 -0.00000000000E+00 -0.00000000000E+00 -0.33338044464E+04  0.33338044464E+04  0.00000000000E+00 0. -1.
        -13    1    1    2    0    0 -0.90828592841E+03 -0.45444680723E+03 -0.16334186081E+04  0.19234244432E+04  0.10566000000E+00 0.  1.
         13    1    1    2    0    0  0.72218922067E+03  0.32812751154E+03 -0.13936100570E+04  0.16035504159E+04  0.10566000000E+00 0. -1.
         -4    1    1    2    0  502  0.18609670774E+03  0.12631929569E+03  0.16584766112E+03  0.27945302968E+03  0.00000000000E+00 0. -1.
</event>
<event>
 5    1  0.6336319E-005  0.6937331E+03  0.7818608E-02  0.9132119E-01
         -4   -1    0    0    0  501 -0.00000000000E+00  0.00000000000E+00  0.94758839201E+03  0.94758839201E+03  0.00000000000E+00 0. -1.
         21   -1    0    0  501  502  0.00000000000E+00 -0.00000000000E+00 -0.10974466948E+04  0.10974466948E+04  0.00000000000E+00 0. -1.
        -13    1    1    2    0    0  0.23475513726E+03 -0.67921037083E+03  0.16985690563E+03  0.73843624090E+03  0.10566000000E+00 0.  1.
         13    1    1    2    0    0  0.42205685654E+02  0.69558713260E+03  0.19346347940E+03  0.72322258535E+03  0.10566000000E+00 0. -1.
         -4    1    1    2    0  502 -0.27696082291E+03 -0.16376761762E+02 -0.51317868783E+03  0.58337626057E+03  0.00000000000E+00 0. -1.
</event>
<event>
 5    1  0.6336319E-005  0.4855344E+03  0.7818608E-02  0.9915730E-01
         21   -1    0    0  501  502  0.00000000000E+00  0.00000000000E+00  0.21829048641E+03  0.21829048641E+03  0.00000000000E+00 0. -1.
         -4   -1    0    0    0  501 -0.00000000000E+00 -0.00000000000E+00 -0.14462282041E+04  0.14462282041E+04  0.00000000000E+00 0. -1.
        -13    1    1    2    0    0 -0.93026413825E+02  0.73545095050E+02 -0.19992656330E+03  0.23245093365E+03  0.10566000000E+00 0.  1.
         13    1    1    2    0    0  0.20234771495E+03  0.42705561655E+03 -0.38289263024E+03  0.60821696361E+03  0.10566000000E+00 0. -1.
         -4    1    1    2    0  502 -0.10932130113E+03 -0.50060071160E+03 -0.64511852411E+03  0.82385079321E+03  0.00000000000E+00 0. -1.
</event>
<event>
 5    1  0.6336319E-005  0.1443046E+03  0.7818608E-02  0.1106868E+00
         21   -1    0    0  501  502  0.00000000000E+00  0.00000000000E+00  0.29410518273E+03  0.29410518273E+03  0.00000000000E+00 0. -1.
         -4   -1    0    0    0  501 -0.00000000000E+00 -0.00000000000E+00 -0.19550446824E+03  0.19550446824E+03  0.00000000000E+00 0. -1.
        -13    1    1    2    0    0 -0.74822067017E+02 -0.12183956226E+03 -0.13047473087E+02  0.14357391254E+03  0.10566000000E+00 0.  1.
         13    1    1    2    0    0  0.89090325519E+02  0.11512168956E+03 -0.71520745576E+02  0.16218914181E+03  0.10566000000E+00 0. -1.
         -4    1    1    2    0  502 -0.14268258501E+02  0.67178726997E+01  0.18316893316E+03  0.18384659662E+03  0.00000000000E+00 0. -1.
</event>
<event>
 5    1  0.6336319E-005  0.2635973E+03  0.7818608E-02  0.1033997E+00
          4   -1    0    0  502    0 -0.00000000000E+00  0.00000000000E+00  0.24990920123E+04  0.24990920123E+04  0.00000000000E+00 0.  1.
         21   -1    0    0  501  502  0.00000000000E+00 -0.00000000000E+00 -0.37596962353E+03  0.37596962353E+03  0.00000000000E+00 0.  1.
        -13    1    1    2    0    0 -0.19672542787E+03 -0.31194216004E+02  0.62869861817E+03  0.65949672989E+03  0.10566000000E+00 0.  1.
         13    1    1    2    0    0  0.17667117897E+03 -0.27791642723E+03  0.17703574383E+04  0.18007264414E+04  0.10566000000E+00 0. -1.
          4    1    1    2  501    0  0.20054248906E+02  0.30911064323E+03 -0.27593366777E+03  0.41483846454E+03  0.00000000000E+00 0.  1.
</event>
<event>
 5    1  0.6336319E-005  0.4982786E+03  0.7818608E-02  0.9497269E-01
         -4   -1    0    0    0  501 -0.00000000000E+00  0.00000000000E+00  0.99270167063E+03  0.99270167063E+03  0.00000000000E+00 0. -1.
         21   -1    0    0  501  502  0.00000000000E+00 -0.00000000000E+00 -0.75958955477E+03  0.75958955477E+03  0.00000000000E+00 0. -1.
        -13    1    1    2    0    0  0.16184243227E+03 -0.48633308463E+03  0.36335238555E+03  0.62828163219E+03  0.10566000000E+00 0.  1.
         13    1    1    2    0    0  0.32329450953E+03  0.56646618130E+02  0.21239028958E+03  0.39094478575E+03  0.10566000000E+00 0. -1.
         -4    1    1    2    0  502 -0.48513694180E+03  0.42968646650E+03 -0.34263055928E+03  0.73306480746E+03  0.00000000000E+00 0. -1.
</event>
<event>
 5    1  0.6336319E-005  0.3954594E+03  0.7818608E-02  0.9742251E-01
         -4   -1    0    0    0  501 -0.00000000000E+00  0.00000000000E+00  0.33005522305E+03  0.33005522305E+03  0.00000000000E+00 0. -1.
         21   -1    0    0  501  502  0.00000000000E+00 -0.00000000000E+00 -0.11495076728E+04  0.11495076728E+04  0.00000000000E+00 0.  1.
        -13    1    1    2    0    0 -0.15870088061E+03 -0.41993672220E+03 -0.66485714924E+02  0.45382064916E+03  0.10566000000E+00 0.  1.
         13    1    1    2    0    0  0.33571142005E+03  0.17357967667E+03 -0.30972890036E+03  0.48863489907E+03  0.10566000000E+00 0. -1.
         -4    1    1    2    0  502 -0.17701053945E+03  0.24635704552E+03 -0.44323783444E+03  0.53710734759E+03  0.00000000000E+00 0. -1.
</event>
<event>
 5    1  0.6336319E-005  0.3459400E+03  0.7818608E-02  0.1002784E+00
         -4   -1    0    0    0  501 -0.00000000000E+00  0.00000000000E+00  0.11839309774E+04  0.11839309774E+04  0.00000000000E+00 0. -1.
         21   -1    0    0  501  502  0.00000000000E+00 -0.00000000000E+00 -0.41564873760E+03  0.41564873760E+03  0.00000000000E+00 0.  1.
        -13    1    1    2    0    0 -0.20605893568E+03  0.94176009223E+02 -0.10713824027E+03  0.25061528161E+03  0.10566000000E+00 0.  1.
         13    1    1    2    0    0  0.30039862561E+03 -0.40448590146E+03  0.89172913077E+03  0.10242211834E+04  0.10566000000E+00 0. -1.
         -4    1    1    2    0  502 -0.94339689930E+02  0.31030989223E+03 -0.16308650703E+02  0.32474324997E+03  0.00000000000E+00 0. -1.
</event>
<event>
 5    1  0.6336319E-005  0.4812462E+03  0.7818608E-02  0.9885813E-01
          4   -1    0    0  502    0 -0.00000000000E+00  0.00000000000E+00  0.16172018724E+04  0.16172018724E+04  0.00000000000E+00 0.  1.
         21   -1    0    0  501  502  0.00000000000E+00 -0.00000000000E+00 -0.24871633150E+03  0.24871633150E+03  0.00000000000E+00 0.  1.
        -13    1    1    2    0    0 -0.17897934716E+01 -0.46630540946E+03  0.58073521872E+03  0.74478006396E+03  0.10566000000E+00 0.  1.
         13    1    1    2    0    0 -0.13412632688E+03 -0.11309858606E+02  0.55796669129E+03  0.57397266853E+03  0.10566000000E+00 0. -1.
          4    1    1    2  501    0  0.13591612035E+03  0.47761526806E+03  0.22978363086E+03  0.54716547137E+03  0.00000000000E+00 0.  1.
</event>
<event>
 5    1  0.6336319E-005  0.4781856E+03  0.7818608E-02  0.9527110E-01
         21   -1    0    0  501  502  0.00000000000E+00  0.00000000000E+00  0.15016550966E+03  0.15016550966E+03  0.00000000000E+00 0. -1.
         -4   -1    0    0    0  501 -0.00000000000E+00 -0.00000000000E+00 -0.32271129805E+04  0.32271129805E+04  0.00000000000E+00 0. -1.
        -13    1    1    2    0    0 -0.29550295843E+03 -0.18812217748E+03 -0.66747315650E+03  0.75381189823E+03  0.10566000000E+00 0.  1.
         13    1    1    2    0    0  0.53269272395E+03  0.26079816276E+03 -0.22539326514E+04  0.23306629160E+04  0.10566000000E+00 0. -1.
         -4    1    1    2    0  502 -0.23718976553E+03 -0.72675985289E+02 -0.15554166289E+03  0.29280367587E+03  0.00000000000E+00 0. -1.
</event>
<event>
 5    1  0.6336319E-005  0.7916211E+02  0.7818608E-02  0.1204552E+00
         21   -1    0    0  501  502  0.00000000000E+00  0.00000000000E+00  0.15223235313E+02  0.15223235313E+02  0.00000000000E+00 0. -1.
          4   -1    0    0  502    0 -0.00000000000E+00 -0.00000000000E+00 -0.73358975464E+03  0.73358975464E+03  0.00000000000E+00 0.  1.
        -13    1    1    2    0    0 -0.74220873616E+02  0.30062244661E+02 -0.44815872014E+03  0.45525676957E+03  0.10566000000E+00 0.  1.
         13    1    1    2    0    0  0.80519901134E+02 -0.16020225320E+01 -0.15446664507E+03  0.17420096601E+03  0.10566000000E+00 0. -1.
          4    1    1    2  501    0 -0.62990275180E+01 -0.28460222129E+02 -0.11574115412E+03  0.11935525438E+03  0.00000000000E+00 0.  1.
</event>
<event>
 5    1  0.6336319E-005  0.4844826E+02  0.7818608E-02  0.1298239E+00
         21   -1    0    0  501  502  0.00000000000E+00  0.00000000000E+00  0.33280803694E+03  0.33280803694E+03  0.00000000000E+00 0.  1.
         -4   -1    0    0    0  501 -0.00000000000E+00 -0.00000000000E+00 -0.68871303081E+02  0.68871303081E+02  0.00000000000E+00 0. -1.
        -13    1    1    2    0    0 -0.43142712111E+02  0.23706531081E+02  0.29128191571E+03  0.29541235385E+03  0.10566000000E+00 0.  1.
         13    1    1    2    0    0  0.35018990406E+02 -0.33516857546E+02 -0.56504083786E+02  0.74447512231E+02  0.10566000000E+00 0. -1.
         -4    1    1    2    0  502  0.81237217052E+01  0.98103264643E+01  0.29158901938E+02  0.31819473941E+02  0.00000000000E+00 0. -1.
</event>
<event>
 5    1  0.6336319E-005  0.5069789E+03  0.7818608E-02  0.9487620E-01
          4   -1    0    0  502    0 -0.00000000000E+00  0.00000000000E+00  0.32077772022E+04  0.32077772022E+04  0.00000000000E+00 0.  1.
         21   -1    0    0  501  502  0.00000000000E+00 -0.00000000000E+00 -0.26418564836E+03  0.26418564836E+03  0.00000000000E+00 0.  1.
        -13    1    1    2    0    0  0.15784737800E+03  0.47893352212E+03  0.11954147897E+04  0.12974242343E+04  0.10566000000E+00 0.  1.
         13    1    1    2    0    0 -0.58202233234E+03 -0.16036701740E+03  0.14390641725E+04  0.15605682553E+04  0.10566000000E+00 0. -1.
          4    1    1    2  501    0  0.42417495434E+03 -0.31856650472E+03  0.30911259173E+03  0.61397036099E+03  0.00000000000E+00 0.  1.
</event>
<event>
 5    1  0.6336319E-005  0.4760797E+03  0.7818608E-02  0.9943577E-01
         -4   -1    0    0    0  501 -0.00000000000E+00  0.00000000000E+00  0.20677727085E+03  0.20677727085E+03  0.00000000000E+00 0. -1.
         21   -1    0    0  501  502  0.00000000000E+00 -0.00000000000E+00 -0.22123091862E+04  0.22123091862E+04  0.00000000000E+00 0. -1.
        -13    1    1    2    0    0  0.78622451679E+02  0.83469918112E+02  0.47623951430E+02  0.12416428251E+03  0.10566000000E+00 0.  1.
         13    1    1    2    0    0  0.40880792196E+03 -0.17107460312E+03 -0.51716052159E+03  0.68106200389E+03  0.10566000000E+00 0. -1.
         -4    1    1    2    0  502 -0.48743037364E+03  0.87604685012E+02 -0.15359953452E+04  0.16138601706E+04  0.00000000000E+00 0. -1.
</event>
<event>
 5    1  0.6336319E-005  0.5060254E+03  0.7818608E-02  0.9464863E-01
         -4   -1    0    0    0  501 -0.00000000000E+00  0.00000000000E+00  0.10880057669E+04  0.10880057669E+04  0.00000000000E+00 0. -1.
         21   -1    0    0  501  502  0.00000000000E+00 -0.00000000000E+00 -0.90887341641E+03  0.90887341641E+03  0.00000000000E+00 0.  1.
        -13    1    1    2    0    0  0.46969566940E+03 -0.31091403093E+02  0.64634598579E+03  0.79958979590E+03  0.10566000000E+00 0.  1.
         13    1    1    2    0    0 -0.78137730614E+03 -0.41012204749E+02 -0.33082885787E+03  0.84951765129E+03  0.10566000000E+00 0. -1.
         -4    1    1    2    0  502  0.31168163674E+03  0.72103607842E+02 -0.13638477742E+03  0.34777173614E+03  0.00000000000E+00 0. -1.
</event>
<event>
 5    1  0.6336319E-005  0.1030274E+03  0.7818608E-02  0.1159642E+00
         21   -1    0    0  501  502  0.00000000000E+00  0.00000000000E+00  0.69758277261E+03  0.69758277261E+03  0.00000000000E+00 0.  1.
          4   -1    0    0  502    0 -0.00000000000E+00 -0.00000000000E+00 -0.55312201026E+02  0.55312201026E+02  0.00000000000E+00 0.  1.
        -13    1    1    2    0    0  0.11040936006E+03 -0.17175182963E+01  0.80194258127E+02  0.13647090114E+03  0.10566000000E+00 0.  1.
         13    1    1    2    0    0 -0.97095732920E+02 -0.72997522758E+00  0.59948341049E+02  0.11411366690E+03  0.10566000000E+00 0. -1.
          4    1    1    2  501    0 -0.13313627139E+02  0.24474935239E+01  0.50212797241E+03  0.50231040559E+03  0.00000000000E+00 0.  1.
</event>
<event>
 5    1  0.6336319E-005  0.7412054E+02  0.7818608E-02  0.1216313E+00
          4   -1    0    0  502    0 -0.00000000000E+00  0.00000000000E+00  0.62715558972E+02  0.62715558972E+02  0.00000000000E+00 0.  1.
         21   -1    0    0  501  502  0.00000000000E+00 -0.00000000000E+00 -0.22107043818E+03  0.22107043818E+03  0.00000000000E+00 0. -1.
        -13    1    1    2    0    0  0.60000702555E+02 -0.46678204281E+02  0.22417536743E+02  0.79255890504E+02  0.10566000000E+00 0.  1.
         13    1    1    2    0    0 -0.56740902870E+02  0.36943635320E+02 -0.87219610917E+02  0.11041573231E+03  0.10566000000E+00 0. -1.
          4    1    1    2  501    0 -0.32597996851E+01  0.97345689610E+01 -0.93552805033E+02  0.94114374334E+02  0.00000000000E+00 0.  1.
</event>
<event>
 5    1  0.6868512E-005  0.4819124E+03  0.7818608E-02  0.9653979E-01
          4   -1    0    0  502    0 -0.00000000000E+00  0.00000000000E+00  0.13828191859E+04  0.13828191859E+04  0.00000000000E+00 0.  1.
         21   -1    0    0  501  502  0.00000000000E+00 -0.00000000000E+00 -0.34787469694E+03  0.34787469694E+03  0.00000000000E+00 0.  1.
        -13    1    1    2    0    0 -0.13271062134E+03  0.35345053327E+03  0.21883590287E+03  0.43638120037E+03  0.10566000000E+00 0.  1.
         13    1    1    2    0    0 -0.32207985735E+02  0.29547135352E+03  0.42589205292E+03  0.51935029316E+03  0.10566000000E+00 0. -1.
          4    1    1    2  501    0  0.16491860707E+03 -0.64892188680E+03  0.39021653321E+03  0.77496238935E+03  0.00000000000E+00 0.  1.
</event>
<event>
 5    1  0.6336319E-005  0.9849478E+02  0.7818608E-02  0.1167070E+00
         -4   -1    0    0    0  501 -0.00000000000E+00  0.00000000000E+00  0.15379798280E+03  0.15379798280E+03  0.00000000000E+00 0. -1.
         21   -1    0    0  501  502  0.00000000000E+00 -0.00000000000E+00 -0.29483435856E+03  0.29483435856E+03  0.00000000000E+00 0. -1.
        -13    1    1    2    0    0 -0.64456388161E+02 -0.80932580615E+02  0.14592125151E+02  0.10448755840E+03  0.10566000000E+00 0.  1.
         13    1    1    2    0    0  0.10233534698E+02  0.10130623271E+03  0.61816148312E+02  0.11911727572E+03  0.10566000000E+00 0. -1.
         -4    1    1    2    0  502  0.54222853463E+02 -0.20373652094E+02 -0.21744464922E+03  0.22502750724E+03  0.00000000000E+00 0. -1.
</event>
<event>
 5    1  0.6336319E-005  0.5023907E+03  0.7818608E-02  0.9844057E-01
          4   -1    0    0  502    0 -0.00000000000E+00  0.00000000000E+00  0.97645769033E+03  0.97645769033E+03  0.00000000000E+00 0.  1.
         21   -1    0    0  501  502  0.00000000000E+00 -0.00000000000E+00 -0.42127872504E+03  0.42127872504E+03  0.00000000000E+00 0.  1.
        -13    1    1    2    0    0  0.28611177220E+03 -0.32763072020E+03  0.16075125652E+03  0.46372708854E+03  0.10566000000E+00 0.  1.
         13    1    1    2    0    0  0.84964130691E+02 -0.10643178377E+03  0.33285955251E+03  0.35964165632E+03  0.10566000000E+00 0. -1.
          4    1    1    2  501    0 -0.37107590289E+03  0.43406250397E+03  0.61568156258E+02  0.57436767051E+03  0.00000000000E+00 0.  1.
</event>
<event>
 5    1  0.6336319E-005  0.1174020E+03  0.7818608E-02  0.1138596E+00
          4   -1    0    0  502    0 -0.00000000000E+00  0.00000000000E+00  0.74287089355E+03  0.74287089355E+03  0.00000000000E+00 0.  1.
         21   -1    0    0  501  502  0.00000000000E+00 -0.00000000000E+00 -0.53339586373E+02  0.53339586373E+02  0.00000000000E+00 0.  1.
        -13    1    1    2    0    0 -0.10053122166E+03 -0.40915399912E+02  0.23670216857E+03  0.26040069940E+03  0.10566000000E+00 0.  1.
         13    1    1    2    0    0  0.12230914611E+03  0.22171950895E+02  0.48025979653E+03  0.49608528093E+03  0.10566000000E+00 0. -1.
          4    1    1    2  501    0 -0.21777924452E+02  0.18743449016E+02 -0.27430657919E+02  0.39724499598E+02  0.00000000000E+00 0.  1.
</event>
<event>
 5    1  0.6336319E-005  0.4369785E+03  0.7818608E-02  0.9892876E-01
          4   -1    0    0  502    0 -0.00000000000E+00  0.00000000000E+00  0.22853656832E+04  0.22853656832E+04  0.00000000000E+00 0.  1.
         21   -1    0    0  501  502  0.00000000000E+00 -0.00000000000E+00 -0.20271107041E+03  0.20271107041E+03  0.00000000000E+00 0.  1.
        -13    1    1    2    0    0  0.55224119200E+03  0.11422270254E+03  0.92325622448E+03  0.10818591531E+04  0.10566000000E+00 0.  1.
         13    1    1    2    0    0 -0.17554159228E+03  0.39694741440E+01  0.93653407849E+03  0.95285187657E+03  0.10566000000E+00 0. -1.
          4    1    1    2  501    0 -0.37669959973E+03 -0.11819217669E+03  0.22286430982E+03  0.45336572395E+03  0.00000000000E+00 0.  1.
</event>
<event>
 5    1  0.6336319E-005  0.5083022E+03  0.7818608E-02  0.9459959E-01
         21   -1    0    0  501  502  0.00000000000E+00  0.00000000000E+00  0.10343553071E+04  0.10343553071E+04  0.00000000000E+00 0.  1.
          4   -1    0    0  502    0 -0.00000000000E+00 -0.00000000000E+00 -0.59644463119E+03  0.59644463119E+03  0.00000000000E+00 0.  1.
        -13    1    1    2    0    0  0.53420711011E+02  0.56466337122E+03 -0.92076938006E+02  0.57461001456E+03  0.10566000000E+00 0.  1.
         13    1    1    2    0    0 -0.43485196646E+02 -0.45652091263E+03 -0.54395305198E+02  0.46180208573E+03  0.10566000000E+00 0. -1.
          4    1    1    2  501    0 -0.99355143649E+01 -0.10814245859E+03  0.58438291909E+03  0.59438783797E+03  0.00000000000E+00 0.  1.
</event>
<event>
 5    1  0.6336319E-005  0.4330619E+03  0.7818608E-02  0.9638151E-01
         21   -1    0    0  501  502  0.00000000000E+00  0.00000000000E+00  0.18789956891E+03  0.18789956891E+03  0.00000000000E+00 0.  1.
         -4   -1    0    0    0  501 -0.00000000000E+00 -0.00000000000E+00 -0.24484047455E+04  0.24484047455E+04  0.00000000000E+00 0. -1.
        -13    1    1    2    0    0 -0.34684148461E+03  0.54119732268E+02 -0.59128131164E+03  0.68763475881E+03  0.10566000000E+00 0.  1.
         13    1    1    2    0    0  0.49287657512E+03 -0.18223671124E+02 -0.17204899647E+04  0.17897891357E+04  0.10566000000E+00 0. -1.
         -4    1    1    2    0  502 -0.14603509051E+03 -0.35896061145E+02  0.51266099684E+02  0.15888041995E+03  0.00000000000E+00 0. -1.
</event>
<event>
 5    1  0.6336319E-005  0.2416941E+02  0.7818608E-02  0.1488712E+00
         21   -1    0    0  501  502  0.00000000000E+00  0.00000000000E+00  0.73107934695E+02  0.73107934695E+02  0.00000000000E+00 0. -1.
         -4   -1    0    0    0  501 -0.00000000000E+00 -0.00000000000E+00 -0.13729919249E+03  0.13729919249E+03  0.00000000000E+00 0. -1.
        -13    1    1    2    0    0 -0.13762312673E+02 -0.69653211921E+01  0.41281409308E+02  0.44069069288E+02  0.10566000000E+00 0.  1.
         13    1    1    2    0    0  0.27620709985E+02  0.26139071133E+02 -0.12808543155E+03  0.13361153992E+03  0.10566000000E+00 0. -1.
         -4    1    1    2    0  502 -0.13858397311E+02 -0.19173749941E+02  0.22612764449E+02  0.32726517977E+02  0.00000000000E+00 0. -1.
</event>
<event>
 5    1  0.6336319E-005  0.5809371E+03  0.7818608E-02  0.9351339E-01
          4   -1    0    0  502    0 -0.00000000000E+00  0.00000000000E+00  0.26504193737E+04  0.26504193737E+04  0.00000000000E+00 0.  1.
         21   -1    0    0  501  502  0.00000000000E+00 -0.00000000000E+00 -0.31840422697E+03  0.31840422697E+03  0.00000000000E+00 0.  1.
        -13    1    1    2    0    0  0.41075534801E+03 -0.36068610434E+03  0.10900122912E+04  0.12194019960E+04  0.10566000000E+00 0.  1.
         13    1    1    2    0    0  0.10529444879E+03  0.62748280823E+03  0.78376628463E+03  0.10095103742E+04  0.10566000000E+00 0. -1.
          4    1    1    2  501    0 -0.51604979680E+03 -0.26679670390E+03  0.45823657088E+03  0.73991123040E+03  0.00000000000E+00 0.  1.
</event>
<event>
 5    1  0.6336319E-005  0.5098924E+03  0.7818608E-02  0.9456550E-01
         21   -1    0    0  501  502  0.00000000000E+00  0.00000000000E+00  0.20547818463E+03  0.20547818463E+03  0.00000000000E+00 0.  1.
          4   -1    0    0  502    0 -0.00000000000E+00 -0.00000000000E+00 -0.32108000366E+04  0.32108000366E+04  0.00000000000E+00 0.  1.
        -13    1    1    2    0    0 -0.75043158955E+03 -0.67294350259E+02 -0.11187645579E+04  0.13488180928E+04  0.10566000000E+00 0.  1.
         13    1    1    2    0    0  0.43564394641E+03  0.83636138470E+02 -0.15229714657E+04  0.15862606180E+04  0.10566000000E+00 0. -1.
          4    1    1    2  501    0  0.31478764313E+03 -0.16341788211E+02 -0.36358582841E+03  0.48119951052E+03  0.00000000000E+00 0.  1.
</event>
<event>
 5    1  0.6336319E-005  0.4666038E+03  0.7818608E-02  0.9789899E-01
         21   -1    0    0  501  502  0.00000000000E+00  0.00000000000E+00  0.34649203720E+03  0.34649203720E+03  0.00000000000E+00 0. -1.
         -4   -1    0    0    0  501 -0.00000000000E+00 -0.00000000000E+00 -0.12482103194E+04  0.12482103194E+04  0.00000000000E+00 0. -1.
        -13    1    1    2    0    0  0.20293847943E+03  0.24218836408E+02 -0.38646999735E+03  0.43718376970E+03  0.10566000000E+00 0.  1.
         13    1    1    2    0    0 -0.49608861300E+03 -0.32034027665E+03 -0.43432915019E+03  0.73305090318E+03  0.10566000000E+00 0. -1.
         -4    1    1    2    0  502  0.29315013357E+03  0.29612144024E+03 -0.80919134684E+02  0.42446768374E+03  0.00000000000E+00 0. -1.
</event>
<event>
 5    1  0.6336319E-005  0.1894503E+03  0.7818608E-02  0.1067619E+00
          4   -1    0    0  502    0 -0.00000000000E+00  0.00000000000E+00  0.29102392442E+03  0.29102392442E+03  0.00000000000E+00 0.  1.
         21   -1    0    0  501  502  0.00000000000E+00 -0.00000000000E+00 -0.39306720400E+03  0.39306720400E+03  0.00000000000E+00 0. -1.
        -13    1    1    2    0    0 -0.13240366307E+02 -0.19748198601E+03  0.19854200434E+03  0.28034511008E+03  0.10566000000E+00 0.  1.
         13    1    1    2    0    0 -0.68228350521E+02  0.15384240976E+03 -0.14200647225E+03  0.22020091776E+03  0.10566000000E+00 0. -1.
          4    1    1    2  501    0  0.81468716829E+02  0.43639576253E+02 -0.15857881167E+03  0.18354510058E+03  0.00000000000E+00 0.  1.
</event>
<event>
 5    1  0.6336319E-005  0.1320961E+03  0.7818608E-02  0.1120246E+00
          4   -1    0    0  502    0 -0.00000000000E+00  0.00000000000E+00  0.65847407041E+03  0.65847407041E+03  0.00000000000E+00 0.  1.
         21   -1    0    0  501  502  0.00000000000E+00 -0.00000000000E+00 -0.14603840947E+03  0.14603840947E+03  0.00000000000E+00 0.  1.
        -13    1    1    2    0    0 -0.91709054848E+02  0.70786028877E+02  0.35217951614E+03  0.37074470378E+03  0.10566000000E+00 0.  1.
         13    1    1    2    0    0  0.18654405551E+03 -0.77707586226E+02  0.23708374342E+03  0.31152185503E+03  0.10566000000E+00 0. -1.
          4    1    1    2  501    0 -0.94835000666E+02  0.69215573491E+01 -0.76827598620E+02  0.12224592107E+03  0.00000000000E+00 0.  1.
</event>
<event>
 5    1  0.6336319E-005  0.4442661E+02  0.7818608E-02  0.1329931E+00
         21   -1    0    0  501  502  0.00000000000E+00  0.00000000000E+00  0.77550798545E+02  0.77550798545E+02  0.00000000000E+00 0. -1.
          4   -1    0    0  502    0 -0.00000000000E+00 -0.00000000000E+00 -0.75765524745E+02  0.75765524745E+02  0.00000000000E+00 0.  1.
        -13    1    1    2    0    0  0.15660558171E+02  0.35733379668E+02 -0.17466194889E+02  0.42745837607E+02  0.10566000000E+00 0.  1.
         13    1    1    2    0    0 -0.57644952263E+02 -0.77253189195E+01  0.65539919153E+01  0.58528514827E+02  0.10566000000E+00 0. -1.
          4    1    1    2  501    0  0.41984394092E+02 -0.28008060749E+02  0.12697476773E+02  0.52041970856E+02  0.00000000000E+00 0.  1.
</event>
<event>
 5    1  0.6336319E-005  0.5165825E+03  0.7818608E-02  0.9442349E-01
         21   -1    0    0  501  502  0.00000000000E+00  0.00000000000E+00  0.39154581479E+03  0.39154581479E+03  0.00000000000E+00 0.  1.
          4   -1    0    0  502    0 -0.00000000000E+00 -0.00000000000E+00 -0.19141433718E+04  0.19141433718E+04  0.00000000000E+00 0.  1.
        -13    1    1    2    0    0  0.51927617334E+03  0.32657462240E+01 -0.70846874528E+03  0.87839989953E+03  0.10566000000E+00 0.  1.
         13    1    1    2    0    0 -0.45087422140E+03 -0.35023097928E+03 -0.89773506250E+03  0.10638973428E+04  0.10566000000E+00 0. -1.
          4    1    1    2  501    0 -0.68401951935E+02  0.34696523306E+03  0.83606250786E+02  0.36339194425E+03  0.00000000000E+00 0.  1.
</event>
<event>
 5    1  0.6336319E-005  0.4402294E+03  0.7818608E-02  0.9626387E-01
          4   -1    0    0  502    0 -0.00000000000E+00  0.00000000000E+00  0.95010157377E+03  0.95010157377E+03  0.00000000000E+00 0.  1.
         21   -1    0    0  501  502  0.00000000000E+00 -0.00000000000E+00 -0.67554162964E+03  0.67554162964E+03  0.00000000000E+00 0.  1.
        -13    1    1    2    0    0  0.48979797271E+03  0.18116849047E+03  0.46653341560E+03  0.70026960168E+03  0.10566000000E+00 0.  1.
         13    1    1    2    0    0 -0.36193837522E+03  0.25986444097E+03 -0.10965208647E+03  0.45886000738E+03  0.10566000000E+00 0. -1.
          4    1    1    2  501    0 -0.12785959749E+03 -0.44103293144E+03 -0.82321384990E+02  0.46651359435E+03  0.00000000000E+00 0.  1.
</event>
<event>
 5    1  0.6336319E-005  0.4377766E+03  0.7818608E-02  0.9724195E-01
         21   -1    0    0  501  502  0.00000000000E+00  0.00000000000E+00  0.58137304370E+03  0.58137304370E+03  0.00000000000E+00 0.  1.
          4   -1    0    0  502    0 -0.00000000000E+00 -0.00000000000E+00 -0.88531794971E+03  0.88531794971E+03  0.00000000000E+00 0.  1.
        -13    1    1    2    0    0 -0.13724394055E+03  0.48229737494E+03 -0.47612472842E+03  0.69147771133E+03  0.10566000000E+00 0.  1.
         13    1    1    2    0    0 -0.21902115173E+03 -0.21980662738E+03  0.10522256672E+03  0.32765380824E+03  0.10566000000E+00 0. -1.
          4    1    1    2  501    0  0.35626509227E+03 -0.26249074756E+03  0.66957255683E+02  0.44755947383E+03  0.00000000000E+00 0.  1.
</event>
<event>
 5    1  0.9259030E-005  0.4809264E+03  0.7818608E-02  0.9900567E-01
         -4   -1    0    0    0  501 -0.00000000000E+00  0.00000000000E+00  0.30942395498E+03  0.30942395498E+03  0.00000000000E+00 0. -1.
         21   -1    0    0  501  502  0.00000000000E+00 -0.00000000000E+00 -0.11349856003E+04  0.11349856003E+04  0.00000000000E+00 0. -1.
        -13    1    1    2    0    0  0.91528092496E+02 -0.90003646864E+02  0.17832306438E+02  0.12959957748E+03  0.10566000000E+00 0.  1.
         13    1    1    2    0    0  0.20002979018E+03 -0.34823586126E+03 -0.11801820893E+03  0.41857907357E+03  0.10566000000E+00 0. -1.
         -4    1    1    2    0  502 -0.29155788267E+03  0.43823950812E+03 -0.72537574282E+03  0.89623090424E+03  0.00000000000E+00 0. -1.
</event>
<event>
 5    1  0.6336319E-005  0.9397958E+02  0.7818608E-02  0.1174920E+00
         -4   -1    0    0    0  501 -0.00000000000E+00  0.00000000000E+00  0.82483114933E+02  0.82483114933E+02  0.00000000000E+00 0. -1.
         21   -1    0    0  501  502  0.00000000000E+00 -0.00000000000E+00 -0.24231880296E+03  0.24231880296E+03  0.00000000000E+00 0.  1.
        -13    1    1    2    0    0  0.83150968093E+02  0.69592297224E+02 -0.92282185790E+02  0.14238393275E+03  0.10566000000E+00 0.  1.
         13    1    1    2    0    0 -0.32463174106E+02 -0.86382633879E+02  0.49034659825E+01  0.92411429226E+02  0.10566000000E+00 0. -1.
         -4    1    1    2    0  502 -0.50687793987E+02  0.16790336654E+02 -0.72456968216E+02  0.90006555913E+02  0.00000000000E+00 0. -1.
</event>
<event>
 5    1  0.6336319E-005  0.2073364E+03  0.7818608E-02  0.1086610E+00
         -4   -1    0    0    0  501 -0.00000000000E+00  0.00000000000E+00  0.27648458644E+03  0.27648458644E+03  0.00000000000E+00 0. -1.
         21   -1    0    0  501  502  0.00000000000E+00 -0.00000000000E+00 -0.57513678116E+03  0.57513678116E+03  0.00000000000E+00 0. -1.
        -13    1    1    2    0    0  0.79835141073E+02 -0.27726697539E+02 -0.23071398671E+03  0.24570586955E+03  0.10566000000E+00 0.  1.
         13    1    1    2    0    0 -0.24751761575E+03 -0.80939424866E+02  0.15776207417E+03  0.30447502987E+03  0.10566000000E+00 0. -1.
         -4    1    1    2    0  502  0.16768247468E+03  0.10866612240E+03 -0.22570028218E+03  0.30144046817E+03  0.00000000000E+00 0. -1.
</event>
<event>
 5    1  0.6336319E-005  0.2321312E+03  0.7818608E-02  0.1040093E+00
         21   -1    0    0  501  502  0.00000000000E+00  0.00000000000E+00  0.45945608724E+03  0.45945608724E+03  0.00000000000E+00 0.  1.
         -4   -1    0    0    0  501 -0.00000000000E+00 -0.00000000000E+00 -0.13614312023E+04  0.13614312023E+04  0.00000000000E+00 0. -1.
        -13    1    1    2    0    0 -0.22446978802E+03  0.48787191246E+02  0.26515961811E+03  0.35082261900E+03  0.10566000000E+00 0.  1.
         13    1    1    2    0    0  0.22373330410E+03 -0.62219080461E+02 -0.13080524626E+04  0.13285063272E+04  0.10566000000E+00 0. -1.
         -4    1    1    2    0  502  0.73648391495E+00  0.13431889215E+02  0.14091772951E+03  0.14155834326E+03  0.00000000000E+00 0. -1.
</event>
<event>
 5    1  0.6336319E-005  0.4858231E+03  0.7818608E-02  0.9754366E-01
         21   -1    0    0  501  502  0.00000000000E+00  0.00000000000E+00  0.34525819524E+03  0.34525819524E+03  0.00000000000E+00 0.  1.
          4   -1    0    0  502    0 -0.00000000000E+00 -0.00000000000E+00 -0.10970265596E+04  0.10970265596E+04  0.00000000000E+00 0.  1.
        -13    1    1    2    0    0  0.42506527724E+03 -0.36947493628E+03 -0.36157266206E+03  0.66927350132E+03  0.10566000000E+00 0.  1.
         13    1    1    2    0    0 -0.20450937111E+03  0.46250624416E+01 -0.15032002815E+02  0.20511325249E+03  0.10566000000E+00 0. -1.
          4    1    1    2  501    0 -0.22055590613E+03  0.36484987384E+03 -0.37516369947E+03  0.56789800102E+03  0.00000000000E+00 0.  1.
</event>
<event>
 5    1  0.6336319E-005  0.3123198E+03  0.7818608E-02  0.1041697E+00
          4   -1    0    0  502    0 -0.00000000000E+00  0.00000000000E+00  0.60803300161E+03  0.60803300161E+03  0.00000000000E+00 0.  1.
         21   -1    0    0  501  502  0.00000000000E+00 -0.00000000000E+00 -0.72068111807E+03  0.72068111807E+03  0.00000000000E+00 0.  1.
        -13    1    1    2    0    0 -0.24783009533E+03 -0.45921707303E+02  0.23191588456E+03  0.34251065388E+03  0.10566000000E+00 0.  1.
         13    1    1    2    0    0 -0.73287894422E+02  0.53597735144E+02  0.27430499915E+03  0.28894130269E+03  0.10566000000E+00 0. -1.
          4    1    1    2  501    0  0.32111798975E+03 -0.76760278406E+01 -0.61886900016E+03  0.69726216311E+03  0.00000000000E+00 0.  1.
</event>
<event>
 5    1  0.6336319E-005  0.3594692E+03  0.7818608E-02  0.9854009E-01
         21   -1    0    0  501  502  0.00000000000E+00  0.00000000000E+00  0.12267638124E+03  0.12267638124E+03  0.00000000000E+00 0. -1.
         -4   -1    0    0    0  501 -0.00000000000E+00 -0.00000000000E+00 -0.31603788568E+04  0.31603788568E+04  0.00000000000E+00 0. -1.
        -13    1    1    2    0    0  0.23361833947E+03 -0.23034003934E+03 -0.15555352348E+04  0.15897559373E+04  0.10566000000E+00 0.  1.
         13    1    1    2    0    0 -0.29251891863E+03  0.28477844283E+03 -0.15407880108E+04  0.15939553898E+04  0.10566000000E+00 0. -1.
         -4    1    1    2    0  502  0.58900579167E+02 -0.54438403483E+02  0.58620769924E+02  0.99343911069E+02  0.00000000000E+00 0. -1.
</event>
<event>
 5    1  0.6336319E-005  0.5045085E+03  0.7818608E-02  0.9749366E-01
         21   -1    0    0  501  502  0.00000000000E+00  0.00000000000E+00  0.83209288085E+03  0.83209288085E+03  0.00000000000E+00 0.  1.
          4   -1    0    0  502    0 -0.00000000000E+00 -0.00000000000E+00 -0.11936495200E+04  0.11936495200E+04  0.00000000000E+00 0.  1.
        -13    1    1    2    0    0  0.30449480931E+03  0.40974503012E+03  0.19367793276E+03  0.54600295915E+03  0.10566000000E+00 0.  1.
         13    1    1    2    0    0  0.12976718445E+03 -0.13302941541E+03 -0.86102682906E+03  0.88085388064E+03  0.10566000000E+00 0. -1.
          4    1    1    2  501    0 -0.43426199377E+03 -0.27671561471E+03  0.30579225718E+03  0.59888556102E+03  0.00000000000E+00 0.  1.
</event>
<event>
 5    1  0.6336319E-005  0.7979543E+02  0.7818608E-02  0.1203143E+00
          4   -1    0    0  502    0 -0.00000000000E+00  0.00000000000E+00  0.44057850961E+03  0.44057850961E+03  0.00000000000E+00 0.  1.
         21   -1    0    0  501  502  0.00000000000E+00 -0.00000000000E+00 -0.75560450671E+02  0.75560450671E+02  0.00000000000E+00 0.  1.
        -13    1    1    2    0    0 -0.20255656870E+02  0.67923581802E+02  0.16330950189E+03  0.17802783258E+03  0.10566000000E+00 0.  1.
         13    1    1    2    0    0  0.18285666636E+02 -0.86932201723E+02  0.26105909668E+03  0.27575974402E+03  0.10566000000E+00 0. -1.
          4    1    1    2  501    0  0.19699902345E+01  0.19008619920E+02 -0.59350539630E+02  0.62351383683E+02  0.00000000000E+00 0.  1.
</event>
<event>
 5    1  0.6336319E-005  0.1528239E+03  0.7818608E-02  0.1128070E+00
          4   -1    0    0  502    0 -0.00000000000E+00  0.00000000000E+00  0.15158988422E+04  0.15158988422E+04  0.00000000000E+00 0.  1.
         21   -1    0    0  501  502  0.00000000000E+00 -0.00000000000E+00 -0.22666465444E+03  0.22666465444E+03  0.00000000000E+00 0.  1.
        -13    1    1    2    0    0 -0.87766678862E+02  0.12690449581E+03 -0.19439008753E+03  0.24818392025E+03  0.10566000000E+00 0.  1.
         13    1    1    2    0    0  0.12263908714E+02 -0.68545782778E+02  0.35745419665E+03  0.36417364218E+03  0.10566000000E+00 0. -1.
          4    1    1    2  501    0  0.75502770148E+02 -0.58358713030E+02  0.11261700787E+04  0.11302059343E+04  0.00000000000E+00 0.  1.
</event>
<event>
 5    1  0.6336319E-005  0.5212556E+02  0.7818608E-02  0.1283369E+00
         21   -1    0    0  501  502  0.00000000000E+00  0.00000000000E+00  0.63768959027E+03  0.63768959027E+03  0.00000000000E+00 0.  1.
          4   -1    0    0  502    0 -0.00000000000E+00 -0.00000000000E+00 -0.15180947247E+02  0.15180947247E+02  0.00000000000E+00 0.  1.
        -13    1    1    2    0    0 -0.33507048734E+02  0.42125252137E+02  0.70468785682E+02  0.88674235841E+02  0.10566000000E+00 0.  1.
         13    1    1    2    0    0  0.47107008872E+02 -0.23413294634E+02  0.11406351270E+03  0.12560950898E+03  0.10566000000E+00 0. -1.
          4    1    1    2  501    0 -0.13599960138E+02 -0.18711957503E+02  0.43797634464E+03  0.43858679270E+03  0.00000000000E+00 0.  1.
</event>
<event>
 5    1  0.6336319E-005  0.4943684E+03  0.7818608E-02  0.9603291E-01
          4   -1    0    0  502    0 -0.00000000000E+00  0.00000000000E+00  0.16021870933E+04  0.16021870933E+04  0.00000000000E+00 0.  1.
         21   -1    0    0  501  502  0.00000000000E+00 -0.00000000000E+00 -0.29859000985E+03  0.29859000985E+03  0.00000000000E+00 0.  1.
        -13    1    1    2    0    0 -0.18953711982E+03  0.45546519334E+03  0.44986315415E+03  0.66764491368E+03  0.10566000000E+00 0.  1.
         13    1    1    2    0    0 -0.27990183140E+03 -0.17358242297E+03  0.42503591223E+03  0.53770942956E+03  0.10566000000E+00 0. -1.
          4    1    1    2  501    0  0.46943895122E+03 -0.28188277037E+03  0.42869801706E+03  0.69542275990E+03  0.00000000000E+00 0.  1.
</event>
<event>
 5    1  0.6336319E-005  0.3205635E+03  0.7818608E-02  0.9991609E-01
         21   -1    0    0  501  502  0.00000000000E+00  0.00000000000E+00  0.28451495037E+03  0.28451495037E+03  0.00000000000E+00 0. -1.
         -4   -1    0    0    0  501 -0.00000000000E+00 -0.00000000000E+00 -0.16676930735E+04  0.16676930735E+04  0.00000000000E+00 0. -1.
        -13    1    1    2    0    0  0.72474118731E+02 -0.28582640573E+03 -0.47973694671E+03  0.56311347107E+03  0.10566000000E+00 0.  1.
         13    1    1    2    0    0  0.10828700759E+03  0.48631472884E+03 -0.57983745643E+02  0.50158769664E+03  0.10566000000E+00 0. -1.
         -4    1    1    2    0  502 -0.18076112632E+03 -0.20048832311E+03 -0.84545743076E+03  0.88750685616E+03  0.00000000000E+00 0. -1.
</event>
<event>
 5    1  0.6336319E-005  0.3805828E+02  0.7818608E-02  0.1404984E+00
         21   -1    0    0  501  502  0.00000000000E+00  0.00000000000E+00  0.89258030014E+02  0.89258030014E+02  0.00000000000E+00 0.  1.
          4   -1    0    0  502    0 -0.00000000000E+00 -0.00000000000E+00 -0.36791681266E+02  0.36791681266E+02  0.00000000000E+00 0.  1.
        -13    1    1    2    0    0  0.33400165538E+02 -0.20073479451E+02 -0.12132105315E+02  0.40813169181E+02  0.10566000000E+00 0.  1.
         13    1    1    2    0    0  0.45607646625E+01  0.13948535118E+02  0.30484731980E+02  0.33833300965E+02  0.10566000000E+00 0. -1.
          4    1    1    2  501    0 -0.37960930201E+02  0.61249443320E+01  0.34113722083E+02  0.51403241134E+02  0.00000000000E+00 0.  1.
</event>
<event>
 5    1  0.6336319E-005  0.1219526E+03  0.7818608E-02  0.1132613E+00
         -4   -1    0    0    0  501 -0.00000000000E+00  0.00000000000E+00  0.23434500931E+03  0.23434500931E+03  0.00000000000E+00 0. -1.
         21   -1    0    0  501  502  0.00000000000E+00 -0.00000000000E+00 -0.12942010097E+03  0.12942010097E+03  0.00000000000E+00 0.  1.
        -13    1    1    2    0    0  0.88858439433E+02 -0.10442138779E+03 -0.16678398051E+02  0.13812251305E+03  0.10566000000E+00 0.  1.
         13    1    1    2    0    0 -0.58846802161E+02  0.10264078094E+03  0.14528918934E+03  0.18736871601E+03  0.10566000000E+00 0. -1.
         -4    1    1    2    0  502 -0.30011637272E+02  0.17806068479E+01 -0.23685882944E+02  0.38273881216E+02  0.00000000000E+00 0. -1.
</event>
<event>
 5    1  0.6336319E-005  0.7642477E+02  0.7818608E-02  0.1210813E+00
         21   -1    0    0  501  502  0.00000000000E+00  0.00000000000E+00  0.42461556224E+03  0.42461556224E+03  0.00000000000E+00 0. -1.
          4   -1    0    0  502    0 -0.00000000000E+00 -0.00000000000E+00 -0.32436220526E+02  0.32436220526E+02  0.00000000000E+00 0.  1.
        -13    1    1    2    0    0  0.26787130587E+02 -0.72289510464E+02  0.33047544396E+02  0.83877738661E+02  0.10566000000E+00 0.  1.
         13    1    1    2    0    0 -0.44146973616E+02  0.61777290486E+02  0.22382239780E+03  0.23635114940E+03  0.10566000000E+00 0. -1.
          4    1    1    2  501    0  0.17359843029E+02  0.10512219978E+02  0.13530939952E+03  0.13682289471E+03  0.00000000000E+00 0.  1.
</event>
<event>
 5    1  0.6336319E-005  0.2394946E+03  0.7818608E-02  0.1055664E+00
         21   -1    0    0  501  502  0.00000000000E+00  0.00000000000E+00  0.33961833161E+03  0.33961833161E+03  0.00000000000E+00 0. -1.
         -4   -1    0    0    0  501 -0.00000000000E+00 -0.00000000000E+00 -0.39615687811E+03  0.39615687811E+03  0.00000000000E+00 0. -1.
        -13    1    1    2    0    0  0.45735563098E+02  0.12465302258E+03 -0.17617379773E+03  0.22060674500E+03  0.10566000000E+00 0.  1.
         13    1    1    2    0    0  0.19882244140E+03  0.12379483948E+02 -0.23182956133E+02  0.20055192706E+03  0.10566000000E+00 0. -1.
         -4    1    1    2    0  502 -0.24455800450E+03 -0.13703250653E+03  0.14281820736E+03  0.31461653765E+03  0.00000000000E+00 0. -1.
</event>
<event>
 5    1  0.6336319E-005  0.1603554E+03  0.7818608E-02  0.1091325E+00
         -4   -1    0    0    0  501 -0.00000000000E+00  0.00000000000E+00  0.24853338337E+03  0.24853338337E+03  0.00000000000E+00 0. -1.
         21   -1    0    0  501  502  0.00000000000E+00 -0.00000000000E+00 -0.10047219612E+04  0.10047219612E+04  0.00000000000E+00 0.  1.
        -13    1    1    2    0    0  0.13337418700E+03 -0.37957021644E+02 -0.69673953937E+03  0.71040510002E+03  0.10566000000E+00 0.  1.
         13    1    1    2    0    0 -0.15411012097E+03  0.47234273088E+02  0.21430459255E+03  0.26815569264E+03  0.10566000000E+00 0. -1.
         -4    1    1    2    0  502  0.20735933970E+02 -0.92772514445E+01 -0.27375363102E+03  0.27469455191E+03  0.00000000000E+00 0. -1.
</event>
<event>
 5    1  0.6336319E-005  0.2334507E+03  0.7818608E-02  0.1039345E+00
         -4   -1    0    0    0  501 -0.00000000000E+00  0.00000000000E+00  0.17949022719E+03  0.17949022719E+03  0.00000000000E+00 0. -1.
         21   -1    0    0  501  502  0.00000000000E+00 -0.00000000000E+00 -0.52122483924E+03  0.52122483924E+03  0.00000000000E+00 0.  1.
        -13    1    1    2    0    0  0.60698316152E+02  0.19873912321E+03 -0.24397262926E+03  0.32047492830E+03  0.10566000000E+00 0.  1.
         13    1    1    2    0    0 -0.73961037869E+02 -0.23160344697E+03  0.32458424017E+02  0.24528341205E+03  0.10566000000E+00 0. -1.
         -4    1    1    2    0  502  0.13262721717E+02  0.32864323769E+02 -0.13022040681E+03  0.13495672608E+03  0.00000000000E+00 0. -1.
</event>
<event>
 5    1  0.6336319E-005  0.3426194E+03  0.7818608E-02  0.1007167E+00
         21   -1    0    0  501  502  0.00000000000E+00  0.00000000000E+00  0.20325346049E+03  0.20325346049E+03  0.00000000000E+00 0.  1.
          4   -1    0    0  502    0 -0.00000000000E+00 -0.00000000000E+00 -0.19326813600E+04  0.19326813600E+04  0.00000000000E+00 0.  1.
        -13    1    1    2    0    0 -0.22093037423E+03 -0.46284407430E+03 -0.96670193152E+03  0.10943251358E+04  0.10566000000E+00 0.  1.
         13    1    1    2    0    0  0.81423595416E+02  0.18518683437E+03 -0.69464831370E+03  0.72350553308E+03  0.10566000000E+00 0. -1.
          4    1    1    2  501    0  0.13950677881E+03  0.27765723992E+03 -0.68077654271E+02  0.31810415154E+03  0.00000000000E+00 0.  1.
</event>
<event>
 5    1  0.6336319E-005  0.4932908E+03  0.7818608E-02  0.9590573E-01
         21   -1    0    0  501  502  0.00000000000E+00  0.00000000000E+00  0.63235016808E+03  0.63235016808E+03  0.00000000000E+00 0. -1.
          4   -1    0    0  502    0 -0.00000000000E+00 -0.00000000000E+00 -0.83587470798E+03  0.83587470798E+03  0.00000000000E+00 0.  1.
        -13    1    1    2    0    0  0.25478709130E+03 -0.34421312934E+03 -0.28707797457E+03  0.51557047525E+03  0.10566000000E+00 0.  1.
         13    1    1    2    0    0 -0.24971639137E+03 -0.24075409656E+03  0.11867378384E+03  0.36661190551E+03  0.10566000000E+00 0. -1.
          4    1    1    2  501    0 -0.50706999305E+01  0.58496722590E+03 -0.35120349179E+02  0.58604249530E+03  0.00000000000E+00 0.  1.
</event>
<event>
 5    1  0.6336319E-005  0.2931970E+03  0.7818608E-02  0.1037238E+00
          4   -1    0    0  502    0 -0.00000000000E+00  0.00000000000E+00  0.25977740348E+04  0.25977740348E+04  0.00000000000E+00 0.  1.
         21   -1    0    0  501  502  0.00000000000E+00 -0.00000000000E+00 -0.13292576873E+03  0.13292576873E+03  0.00000000000E+00 0.  1.
        -13    1    1    2    0    0  0.37246503436E+03  0.96779463779E+02  0.22011435858E+04  0.22345311729E+04  0.10566000000E+00 0.  1.
         13    1    1    2    0    0 -0.12037831690E+03  0.35960273104E+02  0.13222558103E+03  0.18239434164E+03  0.10566000000E+00 0. -1.
          4    1    1    2  501    0 -0.25208671747E+03 -0.13273973688E+03  0.13147909929E+03  0.31377428897E+03  0.00000000000E+00 0.  1.
</event>
<event>
 5    1  0.6336319E-005  0.4731568E+03  0.7818608E-02  0.9756913E-01
          4   -1    0    0  502    0 -0.00000000000E+00  0.00000000000E+00  0.19097181124E+04  0.19097181124E+04  0.00000000000E+00 0.  1.
         21   -1    0    0  501  502  0.00000000000E+00 -0.00000000000E+00 -0.22410428373E+03  0.22410428373E+03  0.00000000000E+00 0.  1.
        -13    1    1    2    0    0  0.37392026355E+03 -0.39165950882E+03  0.73673805404E+03  0.91432844523E+03  0.10566000000E+00 0.  1.
         13    1    1    2    0    0 -0.21718646243E+03 -0.31781154508E+02  0.62887010817E+03  0.66607629094E+03  0.10566000000E+00 0. -1.
          4    1    1    2  501    0 -0.15673380111E+03  0.42344066333E+03  0.32000566647E+03  0.55341765995E+03  0.00000000000E+00 0.  1.
</event>
<event>
 5    1  0.6336319E-005  0.3335909E+03  0.7818608E-02  0.9943316E-01
          4   -1    0    0  502    0 -0.00000000000E+00  0.00000000000E+00  0.19625757218E+04  0.19625757218E+04  0.00000000000E+00 0.  1.
         21   -1    0    0  501  502  0.00000000000E+00 -0.00000000000E+00 -0.34854351859E+03  0.34854351859E+03  0.00000000000E+00 0.  1.
        -13    1    1    2    0    0  0.69177926301E+02 -0.28867373507E+03  0.90018592249E+03  0.94786751027E+03  0.10566000000E+00 0.  1.
         13    1    1    2    0    0  0.78636403836E+02  0.41645646377E+03  0.95975615520E+03  0.10491670786E+04  0.10566000000E+00 0. -1.
          4    1    1    2  501    0 -0.14781433014E+03 -0.12778272870E+03 -0.24590987448E+03  0.31408465151E+03  0.00000000000E+00 0.  1.
</event>
<event>
 5    1  0.6336319E-005  0.4805824E+03  0.7818608E-02  0.9778045E-01
         21   -1    0    0  501  502  0.00000000000E+00  0.00000000000E+00  0.25516622010E+03  0.25516622010E+03  0.00000000000E+00 0.  1.
          4   -1    0    0  502    0 -0.00000000000E+00 -0.00000000000E+00 -0.20311221570E+04  0.20311221570E+04  0.00000000000E+00 0.  1.
        -13    1    1    2    0    0  0.38782570628E+03  0.27333050626E+03 -0.40159456147E+03  0.62160803331E+03  0.10566000000E+00 0.  1.
         13    1    1    2    0    0  0.10464118372E+03 -0.16431937964E+03 -0.10433392503E+04  0.10613705471E+04  0.10566000000E+00 0. -1.
          4    1    1    2  501    0 -0.49246689000E+03 -0.10901112662E+03 -0.33102212516E+03  0.60330979672E+03  0.00000000000E+00 0.  1.
</event>
<event>
 5    1  0.6336319E-005  0.1753902E+03  0.7818608E-02  0.1078456E+00
         -4   -1    0    0    0  501 -0.00000000000E+00  0.00000000000E+00  0.10012695459E+03  0.10012695459E+03  0.00000000000E+00 0. -1.
         21   -1    0    0  501  502  0.00000000000E+00 -0.00000000000E+00 -0.42380466312E+03  0.42380466312E+03  0.00000000000E+00 0.  1.
        -13    1    1    2    0    0 -0.92660268818E+02 -0.14127321474E+03 -0.17831119648E+03  0.24563985950E+03  0.10566000000E+00 0.  1.
         13    1    1    2    0    0  0.12452121759E+03  0.13051392391E+03 -0.65977629839E+02  0.19207414393E+03  0.10566000000E+00 0. -1.
         -4    1    1    2    0  502 -0.31860948768E+02  0.10759290823E+02 -0.79388882201E+02  0.86217614283E+02  0.00000000000E+00 0. -1.
</event>
<event>
 5    1  0.6336319E-005  0.5189847E+03  0.7818608E-02  0.9504761E-01
         21   -1    0    0  501  502  0.00000000000E+00  0.00000000000E+00  0.39754984011E+03  0.39754984011E+03  0.00000000000E+00 0.  1.
          4   -1    0    0  502    0 -0.00000000000E+00 -0.00000000000E+00 -0.18346176997E+04  0.18346176997E+04  0.00000000000E+00 0.  1.
        -13    1    1    2    0    0 -0.38946095514E+03  0.73678633763E+02 -0.66413135853E+03  0.77342022807E+03  0.10566000000E+00 0.  1.
         13    1    1    2    0    0  0.59404764165E+02 -0.58406635772E+03 -0.56917200428E+03  0.81769139524E+03  0.10566000000E+00 0. -1.
          4    1    1    2  501    0  0.33005619097E+03  0.51038772396E+03 -0.20376449682E+03  0.64105591654E+03  0.00000000000E+00 0.  1.
</event>
<event>
 5    1  0.6336319E-005  0.9381364E+02  0.7818608E-02  0.1175218E+00
         21   -1    0    0  501  502  0.00000000000E+00  0.00000000000E+00  0.24926568612E+03  0.24926568612E+03  0.00000000000E+00 0. -1.
         -4   -1    0    0    0  501 -0.00000000000E+00 -0.00000000000E+00 -0.83699390125E+02  0.83699390125E+02  0.00000000000E+00 0. -1.
        -13    1    1    2    0    0  0.79219005861E+02  0.13274967872E+02  0.61417657365E+02  0.10111387374E+03  0.10566000000E+00 0.  1.
         13    1    1    2    0    0 -0.85953957738E+02 -0.91712576021E+02  0.81967562275E+02  0.15005989431E+03  0.10566000000E+00 0. -1.
         -4    1    1    2    0  502  0.67349518773E+01  0.78437608149E+02  0.22181076358E+02  0.81791308201E+02  0.00000000000E+00 0. -1.
</event>
<event>
 5    1  0.6336319E-005  0.2661299E+02  0.7818608E-02  0.1434364E+00
         21   -1    0    0  501  502  0.00000000000E+00  0.00000000000E+00  0.34826668840E+02  0.34826668840E+02  0.00000000000E+00 0. -1.
         -4   -1    0    0    0  501 -0.00000000000E+00 -0.00000000000E+00 -0.83498621194E+02  0.83498621194E+02  0.00000000000E+00 0. -1.
        -13    1    1    2    0    0 -0.26985356264E+02 -0.10742969204E+01 -0.16825759956E+02  0.31819505475E+02  0.10566000000E+00 0.  1.
         13    1    1    2    0    0  0.23366914309E+02  0.14594885361E+02 -0.53814934038E+02  0.60457271296E+02  0.10566000000E+00 0. -1.
         -4    1    1    2    0  502  0.36184419550E+01 -0.13520588440E+02  0.21968741640E+02  0.26048513263E+02  0.00000000000E+00 0. -1.
</event>
<event>
 5    1  0.6336319E-005  0.4996306E+03  0.7818608E-02  0.9902881E-01
         21   -1    0    0  501  502  0.00000000000E+00  0.00000000000E+00  0.12768546190E+04  0.12768546190E+04  0.00000000000E+00 0. -1.
         -4   -1    0    0    0  501 -0.00000000000E+00 -0.00000000000E+00 -0.28918642740E+03  0.28918642740E+03  0.00000000000E+00 0. -1.
        -13    1    1    2    0    0 -0.10437461494E+03 -0.44845119909E+02 -0.45905747236E+02  0.12252548232E+03  0.10566000000E+00 0.  1.
         13    1    1    2    0    0  0.97380669125E+02  0.52171690699E+03  0.53713060897E+03  0.75510319030E+03  0.10566000000E+00 0. -1.
         -4    1    1    2    0  502  0.69939458139E+01 -0.47687178708E+03  0.49644332986E+03  0.68841237377E+03  0.00000000000E+00 0. -1.
</event>
<event>
 5    1  0.6336319E-005  0.4080946E+03  0.7818608E-02  0.9912654E-01
          4   -1    0    0  502    0 -0.00000000000E+00  0.00000000000E+00  0.77660296174E+03  0.77660296174E+03  0.00000000000E+00 0.  1.
         21   -1    0    0  501  502  0.00000000000E+00 -0.00000000000E+00 -0.50641651965E+03  0.50641651965E+03  0.00000000000E+00 0.  1.
        -13    1    1    2    0    0  0.14452136235E+02 -0.54418642975E+03  0.27770728466E+03  0.61112116776E+03  0.10566000000E+00 0.  1.
         13    1    1    2    0    0 -0.94189603246E+02  0.17844224956E+03  0.16411494606E+03  0.26009045440E+03  0.10566000000E+00 0. -1.
          4    1    1    2  501    0  0.79737467010E+02  0.36574418019E+03 -0.17163578862E+03  0.41180785923E+03  0.00000000000E+00 0.  1.
</event>
<event>
 5    1  0.6336319E-005  0.4909234E+03  0.7818608E-02  0.9888397E-01
          4   -1    0    0  502    0 -0.00000000000E+00  0.00000000000E+00  0.44842985762E+03  0.44842985762E+03  0.00000000000E+00 0.  1.
         21   -1    0    0  501  502  0.00000000000E+00 -0.00000000000E+00 -0.72994567934E+03  0.72994567934E+03  0.00000000000E+00 0.  1.
        -13    1    1    2    0    0  0.27672829718E+03 -0.41149668544E+03 -0.10676002890E+03  0.50725317892E+03  0.10566000000E+00 0.  1.
         13    1    1    2    0    0  0.93361096878E+02  0.84173776781E+02  0.40682184548E+02  0.13212331517E+03  0.10566000000E+00 0. -1.
          4    1    1    2  501    0 -0.37008939406E+03  0.32732290866E+03 -0.21543797737E+03  0.53899904288E+03  0.00000000000E+00 0.  1.
</event>
<event>
 5    1  0.6336319E-005  0.5156254E+03  0.7818608E-02  0.9595225E-01
         21   -1    0    0  501  502  0.00000000000E+00  0.00000000000E+00  0.19067625546E+03  0.19067625546E+03  0.00000000000E+00 0.  1.
          4   -1    0    0  502    0 -0.00000000000E+00 -0.00000000000E+00 -0.31254210070E+04  0.31254210070E+04  0.00000000000E+00 0.  1.
        -13    1    1    2    0    0 -0.23751728680E+03  0.31946119217E+03 -0.70054698444E+03  0.80575182495E+03  0.10566000000E+00 0.  1.
         13    1    1    2    0    0 -0.28321643470E+03  0.95017263170E+02 -0.14561346250E+04  0.14864615321E+04  0.10566000000E+00 0. -1.
          4    1    1    2  501    0  0.52073372150E+03 -0.41447845534E+03 -0.77806314216E+03  0.10238839054E+04  0.00000000000E+00 0.  1.
</event>
<event>
 5    1  0.6336319E-005  0.4846798E+03  0.7818608E-02  0.9808150E-01
         -4   -1    0    0    0  501 -0.00000000000E+00  0.00000000000E+00  0.27142985527E+04  0.27142985527E+04  0.00000000000E+00 0. -1.
         21   -1    0    0  501  502  0.00000000000E+00 -0.00000000000E+00 -0.12564934730E+03  0.12564934730E+03  0.00000000000E+00 0. -1.
        -13    1    1    2    0    0  0.12976889533E+03 -0.11187608639E+03  0.47820387554E+03  0.50797163568E+03  0.10566000000E+00 0.  1.
         13    1    1    2    0    0 -0.64776992618E+02  0.53351117644E+03  0.89646666323E+03  0.10452189836E+04  0.10566000000E+00 0. -1.
         -4    1    1    2    0  502 -0.64991902717E+02 -0.42163509005E+03  0.12139786666E+04  0.12867572808E+04  0.00000000000E+00 0. -1.
</event>
<event>
 5    1  0.6336319E-005  0.5072065E+02  0.7818608E-02  0.1288882E+00
          4   -1    0    0  502    0 -0.00000000000E+00  0.00000000000E+00  0.47372828261E+02  0.47372828261E+02  0.00000000000E+00 0.  1.
         21   -1    0    0  501  502  0.00000000000E+00 -0.00000000000E+00 -0.24220163594E+03  0.24220163594E+03  0.00000000000E+00 0.  1.
        -13    1    1    2    0    0 -0.54354024918E+02  0.24763620432E+02  0.17760433824E+02  0.62314052150E+02  0.10566000000E+00 0.  1.
         13    1    1    2    0    0  0.33548503781E+02 -0.75237536112E-01 -0.42559589141E+02  0.54192596898E+02  0.10566000000E+00 0. -1.
          4    1    1    2  501    0  0.20805521136E+02 -0.24688382896E+02 -0.17002965236E+03  0.17306781516E+03  0.00000000000E+00 0.  1.
</event>
<event>
 5    1  0.6336319E-005  0.9633859E+02  0.7818608E-02  0.1170760E+00
         21   -1    0    0  501  502  0.00000000000E+00  0.00000000000E+00  0.41747481805E+03  0.41747481805E+03  0.00000000000E+00 0. -1.
         -4   -1    0    0    0  501 -0.00000000000E+00 -0.00000000000E+00 -0.37511956108E+03  0.37511956108E+03  0.00000000000E+00 0. -1.
        -13    1    1    2    0    0  0.91992279913E+02  0.24243935673E+02 -0.33848891482E+03  0.35160361858E+03  0.10566000000E+00 0.  1.
         13    1    1    2    0    0 -0.10943204139E+03 -0.62473136944E+02  0.11109716489E+03  0.16799064180E+03  0.10566000000E+00 0. -1.
         -4    1    1    2    0  502  0.17439761473E+02  0.38229201271E+02  0.26974700689E+03  0.27300011875E+03  0.00000000000E+00 0. -1.
</event>
<event>
 5    1  0.6336319E-005  0.1333036E+03  0.7818608E-02  0.1118854E+00
         21   -1    0    0  501  502  0.00000000000E+00  0.00000000000E+00  0.37624747785E+03  0.37624747785E+03  0.00000000000E+00 0.  1.
          4   -1    0    0  502    0 -0.00000000000E+00 -0.00000000000E+00 -0.10168809056E+04  0.10168809056E+04  0.00000000000E+00 0.  1.
        -13    1    1    2    0    0  0.13367527348E+03 -0.27083170480E+02 -0.29141740393E+03  0.32175563918E+03  0.10566000000E+00 0.  1.
         13    1    1    2    0    0 -0.12738379856E+03  0.35156198713E+02 -0.70407370414E+03  0.71636749121E+03  0.10566000000E+00 0. -1.
          4    1    1    2  501    0 -0.62914749178E+01 -0.80730282328E+01  0.35485768030E+03  0.35500525307E+03  0.00000000000E+00 0.  1.
</event>
<event>
 5    1  0.6336319E-005  0.3842803E+03  0.7818608E-02  0.9775575E-01
         21   -1    0    0  501  502  0.00000000000E+00  0.00000000000E+00  0.15403103216E+04  0.15403103216E+04  0.00000000000E+00 0.  1.
          4   -1    0    0  502    0 -0.00000000000E+00 -0.00000000000E+00 -0.45195085803E+03  0.45195085803E+03  0.00000000000E+00 0.  1.
        -13    1    1    2    0    0  0.58526190491E+03 -0.64250967943E+01  0.24519172487E+03  0.63457999678E+03  0.10566000000E+00 0.  1.
         13    1    1    2    0    0 -0.33140609430E+03  0.21713512513E+02 -0.12636835819E+03  0.35534553477E+03  0.10566000000E+00 0. -1.
          4    1    1    2  501    0 -0.25385581061E+03 -0.15288415718E+02  0.96953609685E+03  0.10023356480E+04  0.00000000000E+00 0.  1.
</event>
<event>
 5    1  0.6336319E-005  0.1748518E+03  0.7818608E-02  0.1078892E+00
         21   -1    0    0  501  502  0.00000000000E+00  0.00000000000E+00  0.57989766561E+03  0.57989766561E+03  0.00000000000E+00 0.  1.
          4   -1    0    0  502    0 -0.00000000000E+00 -0.00000000000E+00 -0.23252311367E+03  0.23252311367E+03  0.00000000000E+00 0.  1.
        -13    1    1    2    0    0  0.13418358934E+03 -0.12655398036E+03 -0.15949405687E+03  0.24384320974E+03  0.10566000000E+00 0.  1.
         13    1    1    2    0    0 -0.11450712965E+03  0.78129561153E+02  0.13652693532E+03  0.19456548075E+03  0.10566000000E+00 0. -1.
          4    1    1    2  501    0 -0.19676459695E+02  0.48424419206E+02  0.37034167349E+03  0.37401208879E+03  0.00000000000E+00 0.  1.
</event>
<event>
 5    1  0.6336319E-005  0.2630986E+03  0.7818608E-02  0.1057799E+00
         -4   -1    0    0    0  501 -0.00000000000E+00  0.00000000000E+00  0.50409331795E+03  0.50409331795E+03  0.00000000000E+00 0. -1.
         21   -1    0    0  501  502  0.00000000000E+00 -0.00000000000E+00 -0.67787084697E+03  0.67787084697E+03  0.00000000000E+00 0. -1.
        -13    1    1    2    0    0 -0.87624791178E+02 -0.34213336585E+02  0.12248699732E+03  0.15444005991E+03  0.10566000000E+00 0.  1.
         13    1    1    2    0    0 -0.47104202583E+02 -0.19840141607E+03  0.30615523795E+03  0.36784911131E+03  0.10566000000E+00 0. -1.
         -4    1    1    2    0  502  0.13472899376E+03  0.23261475266E+03 -0.60241976429E+03  0.65967499370E+03  0.00000000000E+00 0. -1.
</event>
<event>
 5    1  0.6336319E-005  0.5955349E+02  0.7818608E-02  0.1257140E+00
         -4   -1    0    0    0  501 -0.00000000000E+00  0.00000000000E+00  0.17273376636E+03  0.17273376636E+03  0.00000000000E+00 0. -1.
         21   -1    0    0  501  502  0.00000000000E+00 -0.00000000000E+00 -0.12582600740E+03  0.12582600740E+03  0.00000000000E+00 0. -1.
        -13    1    1    2    0    0  0.31722330348E+02 -0.33584107520E+02 -0.19325741668E+02  0.50076880651E+02  0.10566000000E+00 0.  1.
         13    1    1    2    0    0 -0.48509080754E+02  0.38594448379E+02  0.15031518309E+03  0.16259559586E+03  0.10566000000E+00 0. -1.
         -4    1    1    2    0  502  0.16786750406E+02 -0.50103408588E+01 -0.84081682458E+02  0.85887297254E+02  0.00000000000E+00 0. -1.
</event>
<event>
 5    1  0.6336319E-005  0.2958323E+03  0.7818608E-02  0.1009041E+00
          4   -1    0    0  502    0 -0.00000000000E+00  0.00000000000E+00  0.20326542070E+04  0.20326542070E+04  0.00000000000E+00 0.  1.
         21   -1    0    0  501  502  0.00000000000E+00 -0.00000000000E+00 -0.36789112164E+03  0.36789112164E+03  0.00000000000E+00 0.  1.
        -13    1    1    2    0    0 -0.11657684358E+02  0.25236459667E+03 -0.27207417579E+03  0.37127908580E+03  0.10566000000E+00 0.  1.
         13    1    1    2    0    0  0.27218366795E+03 -0.13870457570E+03  0.12311770924E+04  0.12685109193E+04  0.10566000000E+00 0. -1.
          4    1    1    2  501    0 -0.26052598359E+03 -0.11366002097E+03  0.70566016873E+03  0.76075532349E+03  0.00000000000E+00 0.  1.
</event>
<event>
 5    1  0.6336319E-005  0.7010966E+02  0.7818608E-02  0.1226440E+00
         21   -1    0    0  501  502  0.00000000000E+00  0.00000000000E+00  0.12255557206E+03  0.12255557206E+03  0.00000000000E+00 0. -1.
          4   -1    0    0  502    0 -0.00000000000E+00 -0.00000000000E+00 -0.48879735439E+02  0.48879735439E+02  0.00000000000E+00 0.  1.
        -13    1    1    2    0    0 -0.58569456535E+02 -0.39968269978E+02  0.29439147847E+02  0.76775767230E+02  0.10566000000E+00 0.  1.
         13    1    1    2    0    0  0.64180749421E+02  0.27757529085E+02  0.33926403225E+02  0.77721689488E+02  0.10566000000E+00 0. -1.
          4    1    1    2  501    0 -0.56112928856E+01  0.12210740893E+02  0.10310285553E+02  0.16937850784E+02  0.00000000000E+00 0.  1.
</event>
<event>
 5    1  0.6336319E-005  0.1804634E+03  0.7818608E-02  0.1100041E+00
         -4   -1    0    0    0  501 -0.00000000000E+00  0.00000000000E+00  0.19560221867E+04  0.19560221867E+04  0.00000000000E+00 0. -1.
         21   -1    0    0  501  502  0.00000000000E+00 -0.00000000000E+00 -0.17354742646E+03  0.17354742646E+03  0.00000000000E+00 0. -1.
        -13    1    1    2    0    0 -0.73675001814E+02  0.49339617010E+02  0.46266436376E+03  0.47108462972E+03  0.10566000000E+00 0.  1.
         13    1    1    2    0    0  0.16784516668E+03 -0.73922778540E+02 -0.11754515888E+03  0.21783813418E+03  0.10566000000E+00 0. -1.
         -4    1    1    2    0  502 -0.94170164863E+02  0.24583161530E+02  0.14373555553E+04  0.14406468492E+04  0.00000000000E+00 0. -1.
</event>
<event>
 5    1  0.6336319E-005  0.4952779E+03  0.7818608E-02  0.9807641E-01
         -4   -1    0    0    0  501 -0.00000000000E+00  0.00000000000E+00  0.10474164136E+04  0.10474164136E+04  0.00000000000E+00 0. -1.
         21   -1    0    0  501  502  0.00000000000E+00 -0.00000000000E+00 -0.64972653897E+03  0.64972653897E+03  0.00000000000E+00 0. -1.
        -13    1    1    2    0    0 -0.15310396706E+03  0.49315141801E+02  0.64381795805E+03  0.66360709928E+03  0.10566000000E+00 0.  1.
         13    1    1    2    0    0 -0.36429346411E+03  0.19694148381E+03 -0.11304717492E+02  0.41427464783E+03  0.10566000000E+00 0. -1.
         -4    1    1    2    0  502  0.51739743117E+03 -0.24625662561E+03 -0.23482336590E+03  0.61926120548E+03  0.00000000000E+00 0. -1.
</event>
<event>
 5    1  0.6336319E-005  0.3337651E+03  0.7818608E-02  0.9942687E-01
          4   -1    0    0  502    0 -0.00000000000E+00  0.00000000000E+00  0.19467549648E+04  0.19467549648E+04  0.00000000000E+00 0.  1.
         21   -1    0    0  501  502  0.00000000000E+00 -0.00000000000E+00 -0.56197543012E+03  0.56197543012E+03  0.00000000000E+00 0.  1.
        -13    1    1    2    0    0  0.19465146353E+03  0.27249901945E+03  0.17724438152E+04  0.18038020947E+04  0.10566000000E+00 0.  1.
         13    1    1    2    0    0 -0.19416642276E+03 -0.25714357875E+03 -0.53045947283E+01  0.32226009637E+03  0.10566000000E+00 0. -1.
          4    1    1    2  501    0 -0.48504077573E+00 -0.15355440700E+02 -0.38235968582E+03  0.38266820376E+03  0.00000000000E+00 0.  1.
</event>
<event>
 5    1  0.6336319E-005  0.2015343E+03  0.7818608E-02  0.1059089E+00
         21   -1    0    0  501  502  0.00000000000E+00  0.00000000000E+00  0.12825191738E+04  0.12825191738E+04  0.00000000000E+00 0. -1.
          4   -1    0    0  502    0 -0.00000000000E+00 -0.00000000000E+00 -0.57771695340E+02  0.57771695340E+02  0.00000000000E+00 0.  1.
        -13    1    1    2    0    0  0.64648999703E+02  0.18525732708E+03  0.22977550642E+03  0.30215321431E+03  0.10566000000E+00 0.  1.
         13    1    1    2    0    0 -0.87517862385E+02 -0.19386900393E+03  0.51038958750E+03  0.55293951668E+03  0.10566000000E+00 0. -1.
          4    1    1    2  501    0  0.22868862682E+02  0.86116768505E+01  0.48458238452E+03  0.48519813813E+03  0.00000000000E+00 0.  1.
</event>
<event>
 5    1  0.6336319E-005  0.9268687E+02  0.7818608E-02  0.1177257E+00
         -4   -1    0    0    0  501 -0.00000000000E+00  0.00000000000E+00  0.39529508784E+03  0.39529508784E+03  0.00000000000E+00 0. -1.
         21   -1    0    0  501  502  0.00000000000E+00 -0.00000000000E+00 -0.84359073845E+02  0.84359073845E+02  0.00000000000E+00 0. -1.
        -13    1    1    2    0    0  0.45489839726E+02 -0.68789960235E+02  0.24802346314E+02  0.86119403703E+02  0.10566000000E+00 0.  1.
         13    1    1    2    0    0 -0.21689360695E+02  0.93485297284E+02  0.32664714791E+03  0.34045307984E+03  0.10566000000E+00 0. -1.
         -4    1    1    2    0  502 -0.23800479031E+02 -0.24695337048E+02 -0.40513480225E+02  0.53081678138E+02  0.00000000000E+00 0. -1.
</event>
<event>
 5    1  0.6336319E-005  0.2963883E+03  0.7818608E-02  0.1008808E+00
         -4   -1    0    0    0  501 -0.00000000000E+00  0.00000000000E+00  0.12145975801E+04  0.12145975801E+04  0.00000000000E+00 0. -1.
         21   -1    0    0  501  502  0.00000000000E+00 -0.00000000000E+00 -0.25076480780E+03  0.25076480780E+03  0.00000000000E+00 0. -1.
        -13    1    1    2    0    0 -0.22408900480E+02 -0.25461048549E+03  0.27020409579E+03  0.37193940728E+03  0.10566000000E+00 0.  1.
         13    1    1    2    0    0  0.10222893651E+03  0.30632490203E+03  0.85062685736E+03  0.90986359565E+03  0.10566000000E+00 0. -1.
         -4    1    1    2    0  502 -0.79820036033E+02 -0.51714416546E+02 -0.15699818083E+03  0.18355938498E+03  0.00000000000E+00 0. -1.
</event>
<event>
 5    1  0.6336319E-005  0.4858230E+03  0.7818608E-02  0.1030188E+00
         -4   -1    0    0    0  501 -0.00000000000E+00  0.00000000000E+00  0.30346020288E+03  0.30346020288E+03  0.00000000000E+00 0. -1.
         21   -1    0    0  501  502  0.00000000000E+00 -0.00000000000E+00 -0.13630606272E+04  0.13630606272E+04  0.00000000000E+00 0. -1.
        -13    1    1    2    0    0 -0.30485257306E+02 -0.15681386170E+02  0.10856808609E+03  0.11385208503E+03  0.10566000000E+00 0.  1.
         13    1    1    2    0    0 -0.40971748859E+03 -0.21640568753E+03 -0.30002154654E+03  0.55200795429E+03  0.10566000000E+00 0. -1.
         -4    1    1    2    0  502  0.44020274589E+03  0.23208707370E+03 -0.86814696386E+03  0.10006607907E+04  0.00000000000E+00 0. -1.
</event>
<event>
 5    1  0.6336319E-005  0.1811803E+03  0.7818608E-02  0.1073864E+00
         21   -1    0    0  501  502  0.00000000000E+00  0.00000000000E+00  0.19084413443E+03  0.19084413443E+03  0.00000000000E+00 0.  1.
         -4   -1    0    0    0  501 -0.00000000000E+00 -0.00000000000E+00 -0.26224591243E+03  0.26224591243E+03  0.00000000000E+00 0. -1.
        -13    1    1    2    0    0 -0.17470481020E+03  0.24416884342E+02 -0.11145548098E+03  0.20866310252E+03  0.10566000000E+00 0.  1.
         13    1    1    2    0    0  0.18311627071E+03 -0.61003159858E+02  0.50155824864E+01  0.19307542915E+03  0.10566000000E+00 0. -1.
         -4    1    1    2    0  502 -0.84114605093E+01  0.36586275516E+02  0.35038120494E+02  0.51351515185E+02  0.00000000000E+00 0. -1.
</event>
<event>
 5    1  0.6336319E-005  0.4753882E+03  0.7818608E-02  0.9706064E-01
         21   -1    0    0  501  502  0.00000000000E+00  0.00000000000E+00  0.12619836730E+03  0.12619836730E+03  0.00000000000E+00 0.  1.
          4   -1    0    0  502    0 -0.00000000000E+00 -0.00000000000E+00 -0.34806147203E+04  0.34806147203E+04  0.00000000000E+00 0.  1.
        -13    1    1    2    0    0  0.13845906698E+03 -0.60913059376E+03 -0.14501358256E+04  0.15789569080E+04  0.10566000000E+00 0.  1.
         13    1    1    2    0    0 -0.14819999189E+03  0.21127185189E+03 -0.11080406861E+04  0.11376964474E+04  0.10566000000E+00 0. -1.
          4    1    1    2  501    0  0.97409249152E+01  0.39785874187E+03 -0.79623984118E+03  0.89015973217E+03  0.00000000000E+00 0.  1.
</event>
<event>
 5    1  0.6336319E-005  0.4784451E+03  0.7818608E-02  0.9578724E-01
         21   -1    0    0  501  502  0.00000000000E+00  0.00000000000E+00  0.31112033671E+03  0.31112033671E+03  0.00000000000E+00 0. -1.
         -4   -1    0    0    0  501 -0.00000000000E+00 -0.00000000000E+00 -0.19198546600E+04  0.19198546600E+04  0.00000000000E+00 0. -1.
        -13    1    1    2    0    0 -0.38882195406E+03 -0.78145394342E+02 -0.76419463597E+03  0.86097773922E+03  0.10566000000E+00 0.  1.
         13    1    1    2    0    0  0.45883633964E+03 -0.38099571961E+03 -0.59633000913E+03  0.84338485633E+03  0.10566000000E+00 0. -1.
         -4    1    1    2    0  502 -0.70014385582E+02  0.45914111395E+03 -0.24820967819E+03  0.52661240117E+03  0.00000000000E+00 0. -1.
</event>
<event>
 5    1  0.6336319E-005  0.1024194E+03  0.7818608E-02  0.1160614E+00
          4   -1    0    0  502    0 -0.00000000000E+00  0.00000000000E+00  0.51233028071E+03  0.51233028071E+03  0.00000000000E+00 0.  1.
         21   -1    0    0  501  502  0.00000000000E+00 -0.00000000000E+00 -0.10173540880E+03  0.10173540880E+03  0.00000000000E+00 0.  1.
        -13    1    1    2    0    0  0.97209586561E+02  0.28127699847E+02  0.44454396234E+03  0.45591689685E+03  0.10566000000E+00 0.  1.
         13    1    1    2    0    0 -0.10801770061E+03 -0.36247830630E+02  0.78602365796E+01  0.11420824556E+03  0.10566000000E+00 0. -1.
          4    1    1    2  501    0  0.10808114051E+02  0.81201307833E+01 -0.41809327017E+02  0.43940547094E+02  0.00000000000E+00 0.  1.
</event>
<event>
 5    1  0.6336319E-005  0.5631575E+03  0.7818608E-02  0.9386532E-01
         -4   -1    0    0    0  501 -0.00000000000E+00  0.00000000000E+00  0.14638284442E+04  0.14638284442E+04  0.00000000000E+00 0. -1.
         21   -1    0    0  501  502  0.00000000000E+00 -0.00000000000E+00 -0.64527052103E+03  0.64527052103E+03  0.00000000000E+00 0. -1.
        -13    1    1    2    0    0  0.32528669204E+03 -0.50072287588E+03  0.72618720078E+03  0.94015035616E+03  0.10566000000E+00 0.  1.
         13    1    1    2    0    0 -0.50932046144E+03 -0.31515783130E+02  0.27145298282E+03  0.57800286338E+03  0.10566000000E+00 0. -1.
         -4    1    1    2    0  502  0.18403376939E+03  0.53223865901E+03 -0.17908226038E+03  0.59094574574E+03  0.00000000000E+00 0. -1.
</event>
<event>
 5    1  0.6336319E-005  0.2118790E+03  0.7818608E-02  0.1062431E+00
         -4   -1    0    0    0  501 -0.00000000000E+00  0.00000000000E+00  0.29476228682E+03  0.29476228682E+03  0.00000000000E+00 0. -1.
         21   -1    0    0  501  502  0.00000000000E+00 -0.00000000000E+00 -0.11553047005E+04  0.11553047005E+04  0.00000000000E+00 0. -1.
        -13    1    1    2    0    0 -0.15024717504E+03 -0.46707350320E+02 -0.48293180442E+02  0.16458442400E+03  0.10566000000E+00 0.  1.
         13    1    1    2    0    0  0.35479498615E+03  0.45990841566E+02  0.82914660948E+02  0.36724581941E+03  0.10566000000E+00 0. -1.
         -4    1    1    2    0  502 -0.20454781112E+03  0.71650875425E+00 -0.89516389422E+03  0.91823674395E+03  0.00000000000E+00 0. -1.
</event>
<event>
 5    1  0.6336319E-005  0.1163412E+03  0.7818608E-02  0.1177639E+00
          4   -1    0    0  502    0 -0.00000000000E+00  0.00000000000E+00  0.24189729556E+03  0.24189729556E+03  0.00000000000E+00 0.  1.
         21   -1    0    0  501  502  0.00000000000E+00 -0.00000000000E+00 -0.15529893090E+03  0.15529893090E+03  0.00000000000E+00 0.  1.
        -13    1    1    2    0    0  0.14525036889E+03  0.51790290531E+02  0.14431924677E+03  0.21120596585E+03  0.10566000000E+00 0.  1.
         13    1    1    2    0    0 -0.37613213969E+02 -0.27248673144E+02  0.20417849265E+02  0.50736020595E+02  0.10566000000E+00 0. -1.
          4    1    1    2  501    0 -0.10763715492E+03 -0.24541617387E+02 -0.78138731377E+02  0.13525424003E+03  0.00000000000E+00 0.  1.
</event>
<event>
 5    1  0.6336319E-005  0.1117889E+03  0.7818608E-02  0.1146399E+00
         -4   -1    0    0    0  501 -0.00000000000E+00  0.00000000000E+00  0.22814053018E+03  0.22814053018E+03  0.00000000000E+00 0. -1.
         21   -1    0    0  501  502  0.00000000000E+00 -0.00000000000E+00 -0.78622757427E+02  0.78622757427E+02  0.00000000000E+00 0.  1.
        -13    1    1    2    0    0 -0.11681467269E+03 -0.18417421448E+02  0.24739024612E+02  0.12081762980E+03  0.10566000000E+00 0.  1.
         13    1    1    2    0    0  0.10870777258E+03  0.10514432536E+02  0.13289557064E+03  0.17201504868E+03  0.10566000000E+00 0. -1.
         -4    1    1    2    0  502  0.81069001026E+01  0.79029889117E+01 -0.81168225048E+01  0.13930609125E+02  0.00000000000E+00 0. -1.
</event>
<event>
 5    1  0.6336319E-005  0.2195894E+03  0.7818608E-02  0.1063175E+00
         -4   -1    0    0    0  501 -0.00000000000E+00  0.00000000000E+00  0.29873259975E+04  0.29873259975E+04  0.00000000000E+00 0. -1.
         21   -1    0    0  501  502  0.00000000000E+00 -0.00000000000E+00 -0.15261431768E+03  0.15261431768E+03  0.00000000000E+00 0. -1.
        -13    1    1    2    0    0 -0.47381557212E+02 -0.27258803587E+03  0.33802136369E+03  0.43681541037E+03  0.10566000000E+00 0.  1.
         13    1    1    2    0    0  0.41683581273E+02 -0.16100841535E+03 -0.27579335630E+01  0.16633955670E+03  0.10566000000E+00 0. -1.
         -4    1    1    2    0  502  0.56979759383E+01  0.43359645122E+03  0.24994482497E+04  0.25367853481E+04  0.00000000000E+00 0. -1.
</event>
<event>
 5    1  0.6336319E-005  0.4511168E+03  0.7818608E-02  0.9865835E-01
         -4   -1    0    0    0  501 -0.00000000000E+00  0.00000000000E+00  0.11194045075E+04  0.11194045075E+04  0.00000000000E+00 0. -1.
         21   -1    0    0  501  502  0.00000000000E+00 -0.00000000000E+00 -0.32640416215E+03  0.32640416215E+03  0.00000000000E+00 0. -1.
        -13    1    1    2    0    0  0.15928538889E+03  0.71912417226E+02  0.24705099094E+03  0.30261763688E+03  0.10566000000E+00 0.  1.
         13    1    1    2    0    0 -0.57152250843E+02  0.39704650402E+03  0.52774661150E+03  0.66289426249E+03  0.10566000000E+00 0. -1.
         -4    1    1    2    0  502 -0.10213313804E+03 -0.46895892124E+03  0.18202742928E+02  0.48029677029E+03  0.00000000000E+00 0. -1.
</event>
<event>
 5    1  0.6336319E-005  0.6863182E+02  0.7818608E-02  0.1230364E+00
         -4   -1    0    0    0  501 -0.00000000000E+00  0.00000000000E+00  0.41442544849E+02  0.41442544849E+02  0.00000000000E+00 0. -1.
         21   -1    0    0  501  502  0.00000000000E+00 -0.00000000000E+00 -0.25922278796E+03  0.25922278796E+03  0.00000000000E+00 0.  1.
        -13    1    1    2    0    0 -0.49734566741E+02 -0.56180733138E+02 -0.67290252065E+02  0.10078586752E+03  0.10566000000E+00 0.  1.
         13    1    1    2    0    0  0.45257727320E+02  0.47120624481E+02 -0.19055278174E+02  0.68056813942E+02  0.10566000000E+00 0. -1.
         -4    1    1    2    0  502  0.44768394207E+01  0.90601086579E+01 -0.13143471287E+03  0.13182265135E+03  0.00000000000E+00 0. -1.
</event>
<event>
 5    1  0.6336319E-005  0.1841842E+03  0.7818608E-02  0.1071555E+00
         21   -1    0    0  501  502  0.00000000000E+00  0.00000000000E+00  0.15297138476E+03  0.15297138476E+03  0.00000000000E+00 0.  1.
         -4   -1    0    0    0  501 -0.00000000000E+00 -0.00000000000E+00 -0.42891315530E+03  0.42891315530E+03  0.00000000000E+00 0. -1.
        -13    1    1    2    0    0  0.18743638796E+03  0.52848978273E+02 -0.23898146443E+03  0.30828163347E+03  0.10566000000E+00 0.  1.
         13    1    1    2    0    0 -0.16470797272E+03 -0.41510071960E+02 -0.10587714946E+03  0.20015440114E+03  0.10566000000E+00 0. -1.
         -4    1    1    2    0  502 -0.22728415235E+02 -0.11338906314E+02  0.68916843345E+02  0.73448505445E+02  0.00000000000E+00 0. -1.
</event>
<event>
 5    1  0.6336319E-005  0.6100346E+03  0.7818608E-02  0.9264823E-01
         21   -1    0    0  501  502  0.00000000000E+00  0.00000000000E+00  0.50761517029E+03  0.50761517029E+03  0.00000000000E+00 0. -1.
          4   -1    0    0  502    0 -0.00000000000E+00 -0.00000000000E+00 -0.17236472133E+04  0.17236472133E+04  0.00000000000E+00 0.  1.
        -13    1    1    2    0    0  0.49806971390E+03  0.35836358565E+03 -0.96530493183E+03  0.11438144614E+04  0.10566000000E+00 0.  1.
         13    1    1    2    0    0 -0.27869877146E+03 -0.59795376474E+03 -0.35125870100E+03  0.74739841863E+03  0.10566000000E+00 0. -1.
          4    1    1    2  501    0 -0.21937094244E+03  0.23959017910E+03  0.10053158986E+03  0.34004950355E+03  0.00000000000E+00 0.  1.
</event>
<event>
 5    1  0.6336319E-005  0.4082522E+03  0.7818608E-02  0.9705511E-01
         21   -1    0    0  501  502  0.00000000000E+00  0.00000000000E+00  0.14057713576E+03  0.14057713576E+03  0.00000000000E+00 0. -1.
          4   -1    0    0  502    0 -0.00000000000E+00 -0.00000000000E+00 -0.23080043472E+04  0.23080043472E+04  0.00000000000E+00 0.  1.
        -13    1    1    2    0    0 -0.32532026655E+02  0.40473434779E+03 -0.16466465403E+04  0.16959696533E+04  0.10566000000E+00 0.  1.
         13    1    1    2    0    0 -0.67968656063E+02 -0.41922647835E+03 -0.48567339127E+03  0.64517380024E+03  0.10566000000E+00 0. -1.
          4    1    1    2  501    0  0.10050068272E+03  0.14492130562E+02 -0.35107279916E+02  0.10743802948E+03  0.00000000000E+00 0.  1.
</event>
<event>
 5    1  0.6336319E-005  0.2014039E+03  0.7818608E-02  0.1059178E+00
         -4   -1    0    0    0  501 -0.00000000000E+00  0.00000000000E+00  0.95643111648E+03  0.95643111648E+03  0.00000000000E+00 0. -1.
         21   -1    0    0  501  502  0.00000000000E+00 -0.00000000000E+00 -0.20236102163E+03  0.20236102163E+03  0.00000000000E+00 0.  1.
        -13    1    1    2    0    0  0.73952620546E+02 -0.19089715054E+03  0.27379857362E+03  0.34187187988E+03  0.10566000000E+00 0.  1.
         13    1    1    2    0    0 -0.11170728500E+03  0.16758543149E+03  0.62965739452E+03  0.66108383735E+03  0.10566000000E+00 0. -1.
         -4    1    1    2    0  502  0.37754664453E+02  0.23311719054E+02 -0.14938587329E+03  0.15583642087E+03  0.00000000000E+00 0. -1.
</event>
<event>
 5    1  0.6336319E-005  0.4956442E+03  0.7818608E-02  0.9816411E-01
          4   -1    0    0  502    0 -0.00000000000E+00  0.00000000000E+00  0.12049378413E+04  0.12049378413E+04  0.00000000000E+00 0.  1.
         21   -1    0    0  501  502  0.00000000000E+00 -0.00000000000E+00 -0.27897986751E+03  0.27897986751E+03  0.00000000000E+00 0. -1.
        -13    1    1    2    0    0  0.23259991272E+03 -0.43193838982E+03  0.42404068855E+03  0.64844738315E+03  0.10566000000E+00 0.  1.
         13    1    1    2    0    0  0.13581062079E+03  0.76289876291E+02  0.12189577011E+03  0.19779600572E+03  0.10566000000E+00 0. -1.
          4    1    1    2  501    0 -0.36841053351E+03  0.35564851352E+03  0.38002151516E+03  0.63767431998E+03  0.00000000000E+00 0.  1.
</event>
<event>
 5    1  0.6336319E-005  0.4657716E+03  0.7818608E-02  0.9584351E-01
          4   -1    0    0  502    0 -0.00000000000E+00  0.00000000000E+00  0.15356395122E+04  0.15356395122E+04  0.00000000000E+00 0.  1.
         21   -1    0    0  501  502  0.00000000000E+00 -0.00000000000E+00 -0.56786646973E+03  0.56786646973E+03  0.00000000000E+00 0.  1.
        -13    1    1    2    0    0  0.22582732683E+03 -0.23528833494E+03  0.99431901079E+02  0.34094764439E+03  0.10566000000E+00 0.  1.
         13    1    1    2    0    0  0.42029181113E+03  0.29239514282E+02  0.98784094439E+03  0.10739319803E+04  0.10566000000E+00 0. -1.
          4    1    1    2  501    0 -0.64611913796E+03  0.20604882065E+03 -0.11949980303E+03  0.68862635721E+03  0.00000000000E+00 0.  1.
</event>
<event>
 5    1  0.6336319E-005  0.5152058E+03  0.7818608E-02  0.9445253E-01
         -4   -1    0    0    0  501 -0.00000000000E+00  0.00000000000E+00  0.26769545367E+04  0.26769545367E+04  0.00000000000E+00 0. -1.
         21   -1    0    0  501  502  0.00000000000E+00 -0.00000000000E+00 -0.31608800237E+03  0.31608800237E+03  0.00000000000E+00 0. -1.
        -13    1    1    2    0    0 -0.49824876541E+03 -0.12017450445E+03  0.14515975125E+04  0.15394249229E+04  0.10566000000E+00 0.  1.
         13    1    1    2    0    0  0.42998135025E+03  0.41836157307E+03  0.12638700306E+03  0.61309383710E+03  0.10566000000E+00 0. -1.
         -4    1    1    2    0  502  0.68267415162E+02 -0.29818706862E+03  0.78288201871E+03  0.84052377901E+03  0.00000000000E+00 0. -1.
</event>
<event>
 5    1  0.6336319E-005  0.5228181E+02  0.7818608E-02  0.1282767E+00
         21   -1    0    0  501  502  0.00000000000E+00  0.00000000000E+00  0.43567748762E+03  0.43567748762E+03  0.00000000000E+00 0. -1.
          4   -1    0    0  502    0 -0.00000000000E+00 -0.00000000000E+00 -0.68809810900E+02  0.68809810900E+02  0.00000000000E+00 0.  1.
        -13    1    1    2    0    0  0.24989741786E+02  0.46764842974E+02 -0.54483542233E+02  0.76025688232E+02  0.10566000000E+00 0.  1.
         13    1    1    2    0    0 -0.41035405974E+02 -0.19698301621E+02  0.21920268086E+03  0.22387888263E+03  0.10566000000E+00 0. -1.
          4    1    1    2  501    0  0.16045664188E+02 -0.27066541353E+02  0.20214853810E+03  0.20458272765E+03  0.00000000000E+00 0.  1.
</event>
<event>
 5    1  0.6336319E-005  0.3137213E+03  0.7818608E-02  0.1001797E+00
          4   -1    0    0  502    0 -0.00000000000E+00  0.00000000000E+00  0.23718274257E+04  0.23718274257E+04  0.00000000000E+00 0.  1.
         21   -1    0    0  501  502  0.00000000000E+00 -0.00000000000E+00 -0.21578369149E+03  0.21578369149E+03  0.00000000000E+00 0. -1.
        -13    1    1    2    0    0  0.30188093464E+03 -0.26836073528E+03  0.67894899134E+02  0.40958431541E+03  0.10566000000E+00 0.  1.
         13    1    1    2    0    0 -0.91949477519E+01  0.31618886477E+03  0.12322884203E+04  0.12722400352E+04  0.10566000000E+00 0. -1.
          4    1    1    2  501    0 -0.29268598689E+03 -0.47828129492E+02  0.85586041479E+03  0.90578676657E+03  0.00000000000E+00 0.  1.
</event>
<event>
 5    1  0.6336319E-005  0.2763050E+03  0.7818608E-02  0.1030306E+00
         21   -1    0    0  501  502  0.00000000000E+00  0.00000000000E+00  0.30048547382E+03  0.30048547382E+03  0.00000000000E+00 0. -1.
         -4   -1    0    0    0  501 -0.00000000000E+00 -0.00000000000E+00 -0.19722141870E+04  0.19722141870E+04  0.00000000000E+00 0. -1.
        -13    1    1    2    0    0 -0.36694184458E+03 -0.24818625308E+03 -0.41583733843E+03  0.60758821312E+03  0.10566000000E+00 0.  1.
         13    1    1    2    0    0  0.31470552201E+02  0.21551757843E+03 -0.13062750137E+04  0.13243083647E+04  0.10566000000E+00 0. -1.
         -4    1    1    2    0  502  0.33547129238E+03  0.32668674657E+02  0.50383638931E+02  0.34080308301E+03  0.00000000000E+00 0. -1.
</event>
<event>
 5    1  0.6336319E-005  0.1071045E+03  0.7818608E-02  0.1153308E+00
         -4   -1    0    0    0  501 -0.00000000000E+00  0.00000000000E+00  0.42104487878E+02  0.42104487878E+02  0.00000000000E+00 0. -1.
         21   -1    0    0  501  502  0.00000000000E+00 -0.00000000000E+00 -0.68186749823E+03  0.68186749823E+03  0.00000000000E+00 0.  1.
        -13    1    1    2    0    0 -0.32140100873E+02  0.11757601442E+03 -0.90447072863E+02  0.15178204572E+03  0.10566000000E+00 0.  1.
         13    1    1    2    0    0  0.14612771205E+02 -0.84715462966E+02 -0.16479803988E+03  0.18587266571E+03  0.10566000000E+00 0. -1.
         -4    1    1    2    0  502  0.17527329667E+02 -0.32860551450E+02 -0.38451789761E+03  0.38631727467E+03  0.00000000000E+00 0. -1.
</event>
<event>
 5    1  0.6336319E-005  0.4361091E+02  0.7818608E-02  0.1370457E+00
         -4   -1    0    0    0  501 -0.00000000000E+00  0.00000000000E+00  0.13732867511E+03  0.13732867511E+03  0.00000000000E+00 0. -1.
         21   -1    0    0  501  502  0.00000000000E+00 -0.00000000000E+00 -0.29253540624E+03  0.29253540624E+03  0.00000000000E+00 0.  1.
        -13    1    1    2    0    0 -0.46685552388E+02  0.61901923207E+02 -0.18293665500E+03  0.19868875108E+03  0.10566000000E+00 0.  1.
         13    1    1    2    0    0 -0.11381668996E+02 -0.25127370247E+02  0.11603779706E+03  0.11927157514E+03  0.10566000000E+00 0. -1.
         -4    1    1    2    0  502  0.58067221384E+02 -0.36774552960E+02 -0.88307873187E+02  0.11190375513E+03  0.00000000000E+00 0. -1.
</event>
<event>
 5    1  0.6336319E-005  0.4973728E+02  0.7818608E-02  0.1292862E+00
         21   -1    0    0  501  502  0.00000000000E+00  0.00000000000E+00  0.52063521275E+02  0.52063521275E+02  0.00000000000E+00 0. -1.
          4   -1    0    0  502    0 -0.00000000000E+00 -0.00000000000E+00 -0.20592553644E+03  0.20592553644E+03  0.00000000000E+00 0.  1.
        -13    1    1    2    0    0  0.27309867083E+02  0.41532157202E+02 -0.17867597606E+03  0.18546122104E+03  0.10566000000E+00 0.  1.
         13    1    1    2    0    0 -0.16382413571E+02 -0.48883039065E+02  0.96629219638E+01  0.52453009518E+02  0.10566000000E+00 0. -1.
          4    1    1    2  501    0 -0.10927453512E+02  0.73508818624E+01  0.15151038939E+02  0.20074827156E+02  0.00000000000E+00 0.  1.
</event>
<event>
 5    1  0.6336319E-005  0.6498884E+03  0.7818608E-02  0.9199025E-01
         21   -1    0    0  501  502  0.00000000000E+00  0.00000000000E+00  0.51179264488E+03  0.51179264488E+03  0.00000000000E+00 0.  1.
          4   -1    0    0  502    0 -0.00000000000E+00 -0.00000000000E+00 -0.42769328868E+04  0.42769328868E+04  0.00000000000E+00 0.  1.
        -13    1    1    2    0    0 -0.63189223198E+03 -0.14656299904E+02 -0.49594335634E+03  0.80340676113E+03  0.10566000000E+00 0.  1.
         13    1    1    2    0    0  0.57534062754E+03  0.33807217328E+03 -0.35133517338E+04  0.35761641530E+04  0.10566000000E+00 0. -1.
          4    1    1    2  501    0  0.56551604438E+02 -0.32341587338E+03  0.24415484830E+03  0.40915461755E+03  0.00000000000E+00 0.  1.
</event>
<event>
 5    1  0.8389351E-005  0.2108142E+03  0.7818608E-02  0.1071710E+00
         21   -1    0    0  501  502  0.00000000000E+00  0.00000000000E+00  0.29289366925E+03  0.29289366925E+03  0.00000000000E+00 0. -1.
         -4   -1    0    0    0  501 -0.00000000000E+00 -0.00000000000E+00 -0.15367569861E+04  0.15367569861E+04  0.00000000000E+00 0. -1.
        -13    1    1    2    0    0  0.19165023406E+02  0.27612833477E+03 -0.14147575550E+03  0.31085294907E+03  0.10566000000E+00 0.  1.
         13    1    1    2    0    0 -0.20024702602E+02  0.15216889089E+03  0.13809228462E+03  0.20646028747E+03  0.10566000000E+00 0. -1.
         -4    1    1    2    0  502  0.85967919526E+00 -0.42829722566E+03 -0.12404798460E+04  0.13123374188E+04  0.00000000000E+00 0. -1.
</event>
<event>
 5    1  0.6336319E-005  0.2440248E+03  0.7818608E-02  0.1042805E+00
         -4   -1    0    0    0  501 -0.00000000000E+00  0.00000000000E+00  0.15979897363E+04  0.15979897363E+04  0.00000000000E+00 0. -1.
         21   -1    0    0  501  502  0.00000000000E+00 -0.00000000000E+00 -0.18237022917E+03  0.18237022917E+03  0.00000000000E+00 0. -1.
        -13    1    1    2    0    0 -0.69979910788E+02 -0.17027409568E+03  0.38645031456E+03  0.42805877209E+03  0.10566000000E+00 0.  1.
         13    1    1    2    0    0 -0.17921606513E+03  0.17771484192E+03  0.10702719711E+04  0.10996286038E+04  0.10566000000E+00 0. -1.
         -4    1    1    2    0  502  0.24919597592E+03 -0.74407462361E+01 -0.41102778518E+02  0.25267258957E+03  0.00000000000E+00 0. -1.
</event>
<event>
 5    1  0.6336319E-005  0.5040965E+03  0.7818608E-02  0.9551852E-01
          4   -1    0    0  502    0 -0.00000000000E+00  0.00000000000E+00  0.14587824479E+04  0.14587824479E+04  0.00000000000E+00 0.  1.
         21   -1    0    0  501  502  0.00000000000E+00 -0.00000000000E+00 -0.50656414684E+03  0.50656414684E+03  0.00000000000E+00 0.  1.
        -13    1    1    2    0    0  0.46918882063E+02  0.33862680960E+03  0.18543865780E+03  0.38891773506E+03  0.10566000000E+00 0.  1.
         13    1    1    2    0    0  0.19195982394E+03  0.32023270943E+03  0.79152748444E+03  0.87516474562E+03  0.10566000000E+00 0. -1.
          4    1    1    2  501    0 -0.23887870601E+03 -0.65885951903E+03 -0.24747841192E+02  0.70126411405E+03  0.00000000000E+00 0.  1.
</event>
<event>
 5    1  0.6336319E-005  0.4559043E+03  0.7818608E-02  0.9701011E-01
         21   -1    0    0  501  502  0.00000000000E+00  0.00000000000E+00  0.15652113648E+03  0.15652113648E+03  0.00000000000E+00 0. -1.
         -4   -1    0    0    0  501 -0.00000000000E+00 -0.00000000000E+00 -0.31039762036E+04  0.31039762036E+04  0.00000000000E+00 0. -1.
        -13    1    1    2    0    0 -0.28250516613E+03  0.94147384922E+02 -0.10111893002E+04  0.10541236697E+04  0.10566000000E+00 0.  1.
         13    1    1    2    0    0 -0.24880022218E+03 -0.12641534687E+03 -0.14776354518E+04  0.15037582685E+04  0.10566000000E+00 0. -1.
         -4    1    1    2    0  502  0.53130538831E+03  0.32267961952E+02 -0.45863031507E+03  0.70261540185E+03  0.00000000000E+00 0. -1.
</event>
<event>
 5    1  0.6336319E-005  0.1126235E+03  0.7818608E-02  0.1145207E+00
          4   -1    0    0  502    0 -0.00000000000E+00  0.00000000000E+00  0.89826838566E+02  0.89826838566E+02  0.00000000000E+00 0.  1.
         21   -1    0    0  501  502  0.00000000000E+00 -0.00000000000E+00 -0.35777813251E+03  0.35777813251E+03  0.00000000000E+00 0.  1.
        -13    1    1    2    0    0 -0.77097281116E+02 -0.87483303619E+02 -0.31584155254E+01  0.11665035757E+03  0.10566000000E+00 0.  1.
         13    1    1    2    0    0  0.66770074849E+02  0.83517043078E+02 -0.53848871280E+02  0.11972072286E+03  0.10566000000E+00 0. -1.
          4    1    1    2  501    0  0.10327206267E+02  0.39662605404E+01 -0.21094400714E+03  0.21123389065E+03  0.00000000000E+00 0.  1.
</event>
<event>
 5    1  0.6336319E-005  0.4792037E+03  0.7818608E-02  0.9618625E-01
         21   -1    0    0  501  502  0.00000000000E+00  0.00000000000E+00  0.28089900525E+03  0.28089900525E+03  0.00000000000E+00 0.  1.
          4   -1    0    0  502    0 -0.00000000000E+00 -0.00000000000E+00 -0.21362772676E+04  0.21362772676E+04  0.00000000000E+00 0.  1.
        -13    1    1    2    0    0  0.30776673959E+03  0.60977269637E+03 -0.55483986537E+03  0.87999454237E+03  0.10566000000E+00 0.  1.
         13    1    1    2    0    0 -0.46908902644E+02 -0.33924266903E+03 -0.99674551392E+03  0.10539391179E+04  0.10566000000E+00 0. -1.
          4    1    1    2  501    0 -0.26085783695E+03 -0.27053002734E+03 -0.30379288311E+03  0.48324261258E+03  0.00000000000E+00 0.  1.
</event>
<event>
 5    1  0.6336319E-005  0.4489821E+03  0.7818608E-02  0.9597403E-01
         21   -1    0    0  501  502  0.00000000000E+00  0.00000000000E+00  0.60601232996E+03  0.60601232996E+03  0.00000000000E+00 0.  1.
         -4   -1    0    0    0  501 -0.00000000000E+00 -0.00000000000E+00 -0.10157585143E+04  0.10157585143E+04  0.00000000000E+00 0. -1.
        -13    1    1    2    0    0 -0.38752168343E+03  0.25496100827E+03 -0.68535986365E+02  0.46890869415E+03  0.10566000000E+00 0.  1.
         13    1    1    2    0    0  0.46750793770E+03  0.15309253982E+02 -0.60641102046E+03  0.76585402132E+03  0.10566000000E+00 0. -1.
         -4    1    1    2    0  502 -0.79986254274E+02 -0.27027026225E+03  0.26520082246E+03  0.38700812880E+03  0.00000000000E+00 0. -1.
</event>
<event>
 5    1  0.6336319E-005  0.1923317E+03  0.7818608E-02  0.1065524E+00
         21   -1    0    0  501  502  0.00000000000E+00  0.00000000000E+00  0.20133729516E+03  0.20133729516E+03  0.00000000000E+00 0. -1.
         -4   -1    0    0    0  501 -0.00000000000E+00 -0.00000000000E+00 -0.11759606397E+04  0.11759606397E+04  0.00000000000E+00 0. -1.
        -13    1    1    2    0    0  0.90847750024E+02  0.14536949345E+03 -0.14980573189E+03  0.22765625795E+03  0.10566000000E+00 0.  1.
         13    1    1    2    0    0 -0.17315687544E+03 -0.10419196331E+03 -0.96280094935E+03  0.98378094512E+03  0.10566000000E+00 0. -1.
         -4    1    1    2    0  502  0.82309125417E+02 -0.41177530139E+02  0.13798333676E+03  0.16586073175E+03  0.00000000000E+00 0. -1.
</event>
<event>
 5    1  0.6336319E-005  0.4659543E+03  0.7818608E-02  0.9741263E-01
          4   -1    0    0  502    0 -0.00000000000E+00  0.00000000000E+00  0.14528752626E+04  0.14528752626E+04  0.00000000000E+00 0.  1.
         21   -1    0    0  501  502  0.00000000000E+00 -0.00000000000E+00 -0.39626396392E+03  0.39626396392E+03  0.00000000000E+00 0.  1.
        -13    1    1    2    0    0 -0.17152613576E+03  0.51381709381E+03  0.30173252189E+03  0.62005785784E+03  0.10566000000E+00 0.  1.
         13    1    1    2    0    0 -0.14194745349E+03 -0.19671660906E+03  0.74454948287E+03  0.78307116372E+03  0.10566000000E+00 0. -1.
          4    1    1    2  501    0  0.31347358925E+03 -0.31710048474E+03  0.10329293867E+02  0.44601020492E+03  0.00000000000E+00 0.  1.
</event>
<event>
 5    1  0.6336319E-005  0.8583606E+02  0.7818608E-02  0.1190390E+00
         21   -1    0    0  501  502  0.00000000000E+00  0.00000000000E+00  0.36416965950E+03  0.36416965950E+03  0.00000000000E+00 0.  1.
         -4   -1    0    0    0  501 -0.00000000000E+00 -0.00000000000E+00 -0.24712949475E+03  0.24712949475E+03  0.00000000000E+00 0. -1.
        -13    1    1    2    0    0 -0.52692313108E+02  0.11307278015E+02  0.12562777851E+03  0.13669924760E+03  0.10566000000E+00 0.  1.
         13    1    1    2    0    0  0.81527543153E+02  0.34219279978E+02 -0.23016483231E+03  0.24656350219E+03  0.10566000000E+00 0. -1.
         -4    1    1    2    0  502 -0.28835230045E+02 -0.45526557994E+02  0.22157721856E+03  0.22803640446E+03  0.00000000000E+00 0. -1.
</event>
<event>
 5    1  0.6336319E-005  0.3503425E+03  0.7818608E-02  0.1000361E+00
         21   -1    0    0  501  502  0.00000000000E+00  0.00000000000E+00  0.28328829307E+03  0.28328829307E+03  0.00000000000E+00 0. -1.
         -4   -1    0    0    0  501 -0.00000000000E+00 -0.00000000000E+00 -0.16229190743E+04  0.16229190743E+04  0.00000000000E+00 0. -1.
        -13    1    1    2    0    0 -0.32533313586E+02 -0.23384219453E+03 -0.62677234398E+03  0.66976426508E+03  0.10566000000E+00 0.  1.
         13    1    1    2    0    0  0.33929782465E+03  0.35894500400E+03 -0.75527681842E+03  0.90244535198E+03  0.10566000000E+00 0. -1.
         -4    1    1    2    0  502 -0.30676451106E+03 -0.12510280947E+03  0.42418381117E+02  0.33399775036E+03  0.00000000000E+00 0. -1.
</event>
<event>
 5    1  0.6336319E-005  0.4537530E+03  0.7818608E-02  0.9682556E-01
         21   -1    0    0  501  502  0.00000000000E+00  0.00000000000E+00  0.27753920449E+03  0.27753920449E+03  0.00000000000E+00 0.  1.
          4   -1    0    0  502    0 -0.00000000000E+00 -0.00000000000E+00 -0.16822459016E+04  0.16822459016E+04  0.00000000000E+00 0.  1.
        -13    1    1    2    0    0  0.13059345668E+00  0.64423458567E+03 -0.69167283438E+03  0.94522459733E+03  0.10566000000E+00 0.  1.
         13    1    1    2    0    0 -0.13912105561E+03 -0.29052683811E+03 -0.44569276067E+03  0.54991141091E+03  0.10566000000E+00 0. -1.
          4    1    1    2  501    0  0.13899046216E+03 -0.35370774756E+03 -0.26734110203E+03  0.46464909780E+03  0.00000000000E+00 0.  1.
</event>
<event>
 5    1  0.6336319E-005  0.4883505E+03  0.7818608E-02  0.9863467E-01
         21   -1    0    0  501  502  0.00000000000E+00  0.00000000000E+00  0.48521553927E+03  0.48521553927E+03  0.00000000000E+00 0.  1.
          4   -1    0    0  502    0 -0.00000000000E+00 -0.00000000000E+00 -0.98370908650E+03  0.98370908650E+03  0.00000000000E+00 0.  1.
        -13    1    1    2    0    0 -0.33312473550E+03 -0.24387611998E+03 -0.16944757736E+03  0.44627362003E+03  0.10566000000E+00 0.  1.
         13    1    1    2    0    0 -0.13539988533E+03 -0.30831185996E+02 -0.44596808975E+03  0.46708804225E+03  0.10566000000E+00 0. -1.
          4    1    1    2  501    0  0.46852462083E+03  0.27470730598E+03  0.11692211988E+03  0.55556296349E+03  0.00000000000E+00 0.  1.
</event>
<event>
 5    1  0.6336319E-005  0.5233857E+03  0.7818608E-02  0.9428137E-01
          4   -1    0    0  502    0 -0.00000000000E+00  0.00000000000E+00  0.43778890448E+04  0.43778890448E+04  0.00000000000E+00 0.  1.
         21   -1    0    0  501  502  0.00000000000E+00 -0.00000000000E+00 -0.15561227305E+03  0.15561227305E+03  0.00000000000E+00 0.  1.
        -13    1    1    2    0    0 -0.56583027992E+03 -0.26841028943E+03  0.82347329788E+03  0.10345609081E+04  0.10566000000E+00 0.  1.
         13    1    1    2    0    0  0.29081488952E+03  0.41827418627E+03  0.18546388631E+04  0.19233335432E+04  0.10566000000E+00 0. -1.
          4    1    1    2  501    0  0.27501539040E+03 -0.14986389684E+03  0.15441646108E+04  0.15756068665E+04  0.00000000000E+00 0.  1.
</event>
<event>
 5    1  0.6336319E-005  0.5020727E+02  0.7818608E-02  0.1312134E+00
         21   -1    0    0  501  502  0.00000000000E+00  0.00000000000E+00  0.56759159132E+02  0.56759159132E+02  0.00000000000E+00 0. -1.
          4   -1    0    0  502    0 -0.00000000000E+00 -0.00000000000E+00 -0.16785558667E+03  0.16785558667E+03  0.00000000000E+00 0.  1.
        -13    1    1    2    0    0  0.23863676546E+02 -0.52700095866E+01 -0.13138884696E+03  0.13364238971E+03  0.10566000000E+00 0.  1.
         13    1    1    2    0    0  0.22186877729E+02 -0.24856751737E+02  0.11483595080E+02  0.35242017114E+02  0.10566000000E+00 0. -1.
          4    1    1    2  501    0 -0.46050554275E+02  0.30126761324E+02  0.88088243322E+01  0.55730338982E+02  0.00000000000E+00 0.  1.
</event>
<event>
 5    1  0.6336319E-005  0.4773673E+03  0.7818608E-02  0.9682344E-01
          4   -1    0    0  502    0 -0.00000000000E+00  0.00000000000E+00  0.88401652150E+03  0.88401652150E+03  0.00000000000E+00 0.  1.
         21   -1    0    0  501  502  0.00000000000E+00 -0.00000000000E+00 -0.50141245854E+03  0.50141245854E+03  0.00000000000E+00 0.  1.
        -13    1    1    2    0    0  0.10857551712E+02 -0.61634175874E+03  0.20106570822E+03  0.64839993845E+03  0.10566000000E+00 0.  1.
         13    1    1    2    0    0  0.15207129649E+03  0.23134026135E+03  0.15696897746E+03  0.31825032095E+03  0.10566000000E+00 0. -1.
          4    1    1    2  501    0 -0.16292884820E+03  0.38500149739E+03  0.24569377278E+02  0.41877872064E+03  0.00000000000E+00 0.  1.
</event>
<event>
 5    1  0.6336319E-005  0.2350085E+03  0.7818608E-02  0.1058854E+00
         21   -1    0    0  501  502  0.00000000000E+00  0.00000000000E+00  0.37560165292E+03  0.37560165292E+03  0.00000000000E+00 0.  1.
          4   -1    0    0  502    0 -0.00000000000E+00 -0.00000000000E+00 -0.11476309185E+04  0.11476309185E+04  0.00000000000E+00 0.  1.
        -13    1    1    2    0    0 -0.89849559969E+02  0.15605252866E+03 -0.73160185460E+03  0.75343654009E+03  0.10566000000E+00 0.  1.
         13    1    1    2    0    0  0.31093882957E+03  0.73159147249E+02 -0.23503344898E+03  0.39658031956E+03  0.10566000000E+00 0. -1.
          4    1    1    2  501    0 -0.22108926960E+03 -0.22921167591E+03  0.19460603798E+03  0.37321571179E+03  0.00000000000E+00 0.  1.
</event>
<event>
 5    1  0.6336319E-005  0.4751729E+03  0.7818608E-02  0.9648088E-01
         -4   -1    0    0    0  501 -0.00000000000E+00  0.00000000000E+00  0.36286650797E+04  0.36286650797E+04  0.00000000000E+00 0. -1.
         21   -1    0    0  501  502  0.00000000000E+00 -0.00000000000E+00 -0.13836853433E+03  0.13836853433E+03  0.00000000000E+00 0. -1.
        -13    1    1    2    0    0  0.20303434661E+03  0.24285179686E+03  0.13042194385E+04  0.13420835652E+04  0.10566000000E+00 0.  1.
         13    1    1    2    0    0 -0.39477426355E+03  0.23732497424E+03  0.14785271184E+04  0.15486162577E+04  0.10566000000E+00 0. -1.
         -4    1    1    2    0  502  0.19173991694E+03 -0.48017677110E+03  0.70754998844E+03  0.87633379108E+03  0.00000000000E+00 0. -1.
</event>
<event>
 5    1  0.6336319E-005  0.1473337E+03  0.7818608E-02  0.1103771E+00
         21   -1    0    0  501  502  0.00000000000E+00  0.00000000000E+00  0.97692959705E+03  0.97692959705E+03  0.00000000000E+00 0. -1.
         -4   -1    0    0    0  501 -0.00000000000E+00 -0.00000000000E+00 -0.16788825833E+03  0.16788825833E+03  0.00000000000E+00 0. -1.
        -13    1    1    2    0    0 -0.86492171492E+02  0.12636376178E+03  0.82446440126E+03  0.83856440190E+03  0.10566000000E+00 0.  1.
         13    1    1    2    0    0  0.90693678145E+02 -0.11582866337E+03 -0.12685125207E+03  0.19424951436E+03  0.10566000000E+00 0. -1.
         -4    1    1    2    0  502 -0.42015066532E+01 -0.10535098409E+02  0.11142818953E+03  0.11200393912E+03  0.00000000000E+00 0. -1.
</event>
<event>
 5    1  0.6336319E-005  0.4998813E+03  0.7818608E-02  0.9654250E-01
          4   -1    0    0  502    0 -0.00000000000E+00  0.00000000000E+00  0.26330417196E+04  0.26330417196E+04  0.00000000000E+00 0.  1.
         21   -1    0    0  501  502  0.00000000000E+00 -0.00000000000E+00 -0.17398278863E+03  0.17398278863E+03  0.00000000000E+00 0.  1.
        -13    1    1    2    0    0 -0.46067559550E+03 -0.78133527636E+02  0.67407557025E+03  0.82018579481E+03  0.10566000000E+00 0.  1.
         13    1    1    2    0    0 -0.92968685946E+02  0.24928275278E+03  0.81071218703E+03  0.85325220701E+03  0.10566000000E+00 0. -1.
          4    1    1    2  501    0  0.55364428145E+03 -0.17114922514E+03  0.97427117367E+03  0.11335865064E+04  0.00000000000E+00 0.  1.
</event>
<event>
 5    1  0.6336319E-005  0.2941083E+03  0.7818608E-02  0.1009768E+00
         -4   -1    0    0    0  501 -0.00000000000E+00  0.00000000000E+00  0.15625831927E+04  0.15625831927E+04  0.00000000000E+00 0. -1.
         21   -1    0    0  501  502  0.00000000000E+00 -0.00000000000E+00 -0.28534326519E+03  0.28534326519E+03  0.00000000000E+00 0.  1.
        -13    1    1    2    0    0 -0.20374276675E+03  0.20559220313E+03  0.34221434834E+03  0.44820747469E+03  0.10566000000E+00 0.  1.
         13    1    1    2    0    0  0.34049773291E+03 -0.89805090140E+02 -0.86489052374E+02  0.36260726369E+03  0.10566000000E+00 0. -1.
         -4    1    1    2    0  502 -0.13675496616E+03 -0.11578711299E+03  0.10215146315E+04  0.10371117195E+04  0.00000000000E+00 0. -1.
</event>
<event>
 5    1  0.6336319E-005  0.2042584E+03  0.7818608E-02  0.1057255E+00
          4   -1    0    0  502    0 -0.00000000000E+00  0.00000000000E+00  0.83892399598E+03  0.83892399598E+03  0.00000000000E+00 0.  1.
         21   -1    0    0  501  502  0.00000000000E+00 -0.00000000000E+00 -0.48891158386E+03  0.48891158386E+03  0.00000000000E+00 0.  1.
        -13    1    1    2    0    0 -0.50538038877E+02 -0.15793105696E+03 -0.41203319293E+03  0.44414825831E+03  0.10566000000E+00 0.  1.
         13    1    1    2    0    0  0.20061430852E+03  0.77639467326E+02  0.19051084534E+03  0.28734714375E+03  0.10566000000E+00 0. -1.
          4    1    1    2  501    0 -0.15007626964E+03  0.80291589629E+02  0.57153475971E+03  0.59634017777E+03  0.00000000000E+00 0.  1.
</event>
<event>
 5    1  0.6336319E-005  0.9333632E+02  0.7818608E-02  0.1196893E+00
         -4   -1    0    0    0  501 -0.00000000000E+00  0.00000000000E+00  0.13879151397E+03  0.13879151397E+03  0.00000000000E+00 0. -1.
         21   -1    0    0  501  502  0.00000000000E+00 -0.00000000000E+00 -0.32349524743E+03  0.32349524743E+03  0.00000000000E+00 0.  1.
        -13    1    1    2    0    0  0.12857564627E+03 -0.22608928613E+02 -0.10526106582E+03  0.16769843055E+03  0.10566000000E+00 0.  1.
         13    1    1    2    0    0 -0.43161688508E+02 -0.60152150016E+02  0.71158878983E+02  0.10268792397E+03  0.10566000000E+00 0. -1.
         -4    1    1    2    0  502 -0.85413957761E+02  0.82761078630E+02 -0.15060154662E+03  0.19190040688E+03  0.00000000000E+00 0. -1.
</event>
<event>
 5    1  0.6336319E-005  0.1329279E+03  0.7818608E-02  0.1119285E+00
         21   -1    0    0  501  502  0.00000000000E+00  0.00000000000E+00  0.26916121535E+03  0.26916121535E+03  0.00000000000E+00 0.  1.
         -4   -1    0    0    0  501 -0.00000000000E+00 -0.00000000000E+00 -0.17228153525E+03  0.17228153525E+03  0.00000000000E+00 0. -1.
        -13    1    1    2    0    0  0.49475232570E+02 -0.11783245706E+03  0.12314762167E+03  0.17747572922E+03  0.10566000000E+00 0.  1.
         13    1    1    2    0    0 -0.24775459946E+02  0.13221238379E+03 -0.11109197138E+03  0.17445737334E+03  0.10566000000E+00 0. -1.
         -4    1    1    2    0  502 -0.24699772623E+02 -0.14379926723E+02  0.84824029814E+02  0.89509648051E+02  0.00000000000E+00 0. -1.
</event>
<event>
 5    1  0.6336319E-005  0.4701878E+03  0.7818608E-02  0.9703295E-01
         -4   -1    0    0    0  501 -0.00000000000E+00  0.00000000000E+00  0.76502488888E+03  0.76502488888E+03  0.00000000000E+00 0. -1.
         21   -1    0    0  501  502  0.00000000000E+00 -0.00000000000E+00 -0.54775759885E+03  0.54775759885E+03  0.00000000000E+00 0. -1.
        -13    1    1    2    0    0 -0.64901887589E+02 -0.26136996939E+03  0.17623713048E+03  0.32184787281E+03  0.10566000000E+00 0.  1.
         13    1    1    2    0    0 -0.22648927928E+03 -0.23728881832E+03  0.20960842070E+03  0.38928020514E+03  0.10566000000E+00 0. -1.
         -4    1    1    2    0  502  0.29139116686E+03  0.49865878770E+03 -0.16857826114E+03  0.60165440978E+03  0.00000000000E+00 0. -1.
</event>
<event>
 5    1  0.6336319E-005  0.3523070E+03  0.7818608E-02  0.1041824E+00
         21   -1    0    0  501  502  0.00000000000E+00  0.00000000000E+00  0.10791919539E+03  0.10791919539E+03  0.00000000000E+00 0. -1.
         -4   -1    0    0    0  501 -0.00000000000E+00 -0.00000000000E+00 -0.18547898160E+04  0.18547898160E+04  0.00000000000E+00 0. -1.
        -13    1    1    2    0    0  0.23764217814E+02  0.58359978696E+02 -0.32295613707E+03  0.32904604966E+03  0.10566000000E+00 0.  1.
         13    1    1    2    0    0 -0.34622384876E+03  0.77107855887E+02 -0.32736712585E+03  0.48268604822E+03  0.10566000000E+00 0. -1.
         -4    1    1    2    0  502  0.32245963095E+03 -0.13546783458E+03 -0.10965473576E+04  0.11509769135E+04  0.00000000000E+00 0. -1.
</event>
<event>
 5    1  0.6336319E-005  0.2986689E+03  0.7818608E-02  0.1007857E+00
         21   -1    0    0  501  502  0.00000000000E+00  0.00000000000E+00  0.22822548191E+03  0.22822548191E+03  0.00000000000E+00 0.  1.
          4   -1    0    0  502    0 -0.00000000000E+00 -0.00000000000E+00 -0.15004232591E+04  0.15004232591E+04  0.00000000000E+00 0.  1.
        -13    1    1    2    0    0  0.70132504694E+02  0.26269604497E+03 -0.73697243099E+03  0.78552921999E+03  0.10566000000E+00 0.  1.
         13    1    1    2    0    0 -0.44833930206E+02 -0.34262317700E+03 -0.68740947177E+03  0.76937150699E+03  0.10566000000E+00 0. -1.
          4    1    1    2  501    0 -0.25298574489E+02  0.79927132032E+02  0.15218412556E+03  0.17374801403E+03  0.00000000000E+00 0.  1.
</event>
<event>
 5    1  0.6336319E-005  0.3318185E+03  0.7818608E-02  0.9949747E-01
         -4   -1    0    0    0  501 -0.00000000000E+00  0.00000000000E+00  0.69316053819E+03  0.69316053819E+03  0.00000000000E+00 0. -1.
         21   -1    0    0  501  502  0.00000000000E+00 -0.00000000000E+00 -0.57513341010E+03  0.57513341010E+03  0.00000000000E+00 0.  1.
        -13    1    1    2    0    0  0.24007491190E+02 -0.39740938655E+03 -0.25792073870E+03  0.47437716931E+03  0.10566000000E+00 0.  1.
         13    1    1    2    0    0 -0.50823480918E+02  0.31974789082E+03  0.52899674352E+03  0.62020908226E+03  0.10566000000E+00 0. -1.
         -4    1    1    2    0  502  0.26815989728E+02  0.77661495734E+02 -0.15304887674E+03  0.17370769671E+03  0.00000000000E+00 0. -1.
</event>
<event>
 5    1  0.6336319E-005  0.3927228E+03  0.7818608E-02  0.1009580E+00
          4   -1    0    0  502    0 -0.00000000000E+00  0.00000000000E+00  0.17378729407E+04  0.17378729407E+04  0.00000000000E+00 0.  1.
         21   -1    0    0  501  502  0.00000000000E+00 -0.00000000000E+00 -0.14947534343E+03  0.14947534343E+03  0.00000000000E+00 0.  1.
        -13    1    1    2    0    0  0.20262047318E+03  0.30688104179E+03  0.11194499138E+04  0.11783035053E+04  0.10566000000E+00 0.  1.
         13    1    1    2    0    0  0.11363766071E+03 -0.50306542373E+02  0.11984190438E+03  0.17264518338E+03  0.10566000000E+00 0. -1.
          4    1    1    2  501    0 -0.31625813389E+03 -0.25657449942E+03  0.34910577913E+03  0.53639959548E+03  0.00000000000E+00 0.  1.
</event>
<event>
 5    1  0.6336319E-005  0.3382092E+03  0.7818608E-02  0.9970893E-01
         -4   -1    0    0    0  501 -0.00000000000E+00  0.00000000000E+00  0.15304179890E+04  0.15304179890E+04  0.00000000000E+00 0. -1.
         21   -1    0    0  501  502  0.00000000000E+00 -0.00000000000E+00 -0.26222482734E+03  0.26222482734E+03  0.00000000000E+00 0. -1.
        -13    1    1    2    0    0 -0.26930173589E+03  0.11342699131E+03  0.39846103189E+03  0.49412580625E+03  0.10566000000E+00 0.  1.
         13    1    1    2    0    0  0.53342892396E+03  0.45405678595E+02  0.83011551406E+03  0.98777521250E+03  0.10566000000E+00 0. -1.
         -4    1    1    2    0  502 -0.26412718808E+03 -0.15883266991E+03  0.39616615683E+02  0.31074179756E+03  0.00000000000E+00 0. -1.
</event>
<event>
 5    1  0.6336319E-005  0.1076504E+03  0.7818608E-02  0.1224764E+00
         21   -1    0    0  501  502  0.00000000000E+00  0.00000000000E+00  0.41634960326E+03  0.41634960326E+03  0.00000000000E+00 0.  1.
          4   -1    0    0  502    0 -0.00000000000E+00 -0.00000000000E+00 -0.64465606209E+02  0.64465606209E+02  0.00000000000E+00 0.  1.
        -13    1    1    2    0    0  0.45267127574E+02  0.10730489766E+03  0.10721799418E+02  0.11695478634E+03  0.10566000000E+00 0.  1.
         13    1    1    2    0    0 -0.19658931002E+02 -0.41300906027E+01  0.48912995451E+02  0.52877438521E+02  0.10566000000E+00 0. -1.
          4    1    1    2  501    0 -0.25608196572E+02 -0.10317480705E+03  0.29224920219E+03  0.31098298462E+03  0.00000000000E+00 0.  1.
</event>
<event>
 5    1  0.6336319E-005  0.3567051E+02  0.7818608E-02  0.1364417E+00
          4   -1    0    0  502    0 -0.00000000000E+00  0.00000000000E+00  0.13485628297E+03  0.13485628297E+03  0.00000000000E+00 0.  1.
         21   -1    0    0  501  502  0.00000000000E+00 -0.00000000000E+00 -0.65120550321E+02  0.65120550321E+02  0.00000000000E+00 0.  1.
        -13    1    1    2    0    0  0.29383979351E+02 -0.26816300592E+02  0.10185262456E+03  0.10934578416E+03  0.10566000000E+00 0.  1.
         13    1    1    2    0    0 -0.69553975256E+01  0.29503153182E+02  0.18284038832E+02  0.35399588168E+02  0.10566000000E+00 0. -1.
          4    1    1    2  501    0 -0.22428581825E+02 -0.26868525900E+01 -0.50400930747E+02  0.55231460959E+02  0.00000000000E+00 0.  1.
</event>
<event>
 5    1  0.6336319E-005  0.4558587E+03  0.7818608E-02  0.9582148E-01
         21   -1    0    0  501  502  0.00000000000E+00  0.00000000000E+00  0.29961906525E+03  0.29961906525E+03  0.00000000000E+00 0.  1.
          4   -1    0    0  502    0 -0.00000000000E+00 -0.00000000000E+00 -0.30606379937E+04  0.30606379937E+04  0.00000000000E+00 0.  1.
        -13    1    1    2    0    0 -0.36743018513E+03 -0.22105679292E+03 -0.18984787845E+03  0.46894911745E+03  0.10566000000E+00 0.  1.
         13    1    1    2    0    0 -0.24992223849E+03  0.37775067782E+03 -0.19489646632E+04  0.20009047877E+04  0.10566000000E+00 0. -1.
          4    1    1    2  501    0  0.61735242362E+03 -0.15669388490E+03 -0.62220638679E+03  0.89040315379E+03  0.00000000000E+00 0.  1.
</event>
<event>
 5    1  0.6336319E-005  0.4969058E+03  0.7818608E-02  0.9660054E-01
         21   -1    0    0  501  502  0.00000000000E+00  0.00000000000E+00  0.78833207651E+03  0.78833207651E+03  0.00000000000E+00 0. -1.
         -4   -1    0    0    0  501 -0.00000000000E+00 -0.00000000000E+00 -0.14978396438E+04  0.14978396438E+04  0.00000000000E+00 0. -1.
        -13    1    1    2    0    0 -0.22743224937E+03  0.13677933365E+03 -0.11362590318E+04  0.11668412971E+04  0.10566000000E+00 0.  1.
         13    1    1    2    0    0  0.21648313987E+03 -0.54396523760E+03  0.40407873148E+03  0.71136682658E+03  0.10566000000E+00 0. -1.
         -4    1    1    2    0  502  0.10949109499E+02  0.40718590395E+03  0.22672732975E+02  0.40796359666E+03  0.00000000000E+00 0. -1.
</event>
<event>
 5    1  0.6336319E-005  0.4522995E+03  0.7818608E-02  0.9695835E-01
         -4   -1    0    0    0  501 -0.00000000000E+00  0.00000000000E+00  0.13723214302E+04  0.13723214302E+04  0.00000000000E+00 0. -1.
         21   -1    0    0  501  502  0.00000000000E+00 -0.00000000000E+00 -0.39219112419E+03  0.39219112419E+03  0.00000000000E+00 0. -1.
        -13    1    1    2    0    0 -0.41111493475E+01  0.31047726799E+03  0.60748764602E+03  0.68224210272E+03  0.10566000000E+00 0.  1.
         13    1    1    2    0    0 -0.41661993565E+03  0.72720528551E+02  0.44233924784E+02  0.42522593679E+03  0.10566000000E+00 0. -1.
         -4    1    1    2    0  502  0.42073108500E+03 -0.38319779654E+03  0.32840873518E+03  0.65704451486E+03  0.00000000000E+00 0. -1.
</event>
<event>
 5    1  0.6336319E-005  0.5975088E+03  0.7818608E-02  0.9404151E-01
         21   -1    0    0  501  502  0.00000000000E+00  0.00000000000E+00  0.55421651135E+03  0.55421651135E+03  0.00000000000E+00 0.  1.
          4   -1    0    0  502    0 -0.00000000000E+00 -0.00000000000E+00 -0.24662616162E+04  0.24662616162E+04  0.00000000000E+00 0.  1.
        -13    1    1    2    0    0  0.20541486566E+03 -0.21319866189E+03 -0.27204797810E+03  0.40206846434E+03  0.10566000000E+00 0.  1.
         13    1    1    2    0    0  0.63804703093E+03  0.38452706458E+03 -0.15904791365E+04  0.17562997956E+04  0.10566000000E+00 0. -1.
          4    1    1    2  501    0 -0.84346189659E+03 -0.17132840269E+03 -0.49517990277E+02  0.86210986767E+03  0.00000000000E+00 0.  1.
</event>
<event>
 5    1  0.6336319E-005  0.4473077E+02  0.7818608E-02  0.1314869E+00
         21   -1    0    0  501  502  0.00000000000E+00  0.00000000000E+00  0.10588007115E+04  0.10588007115E+04  0.00000000000E+00 0. -1.
         -4   -1    0    0    0  501 -0.00000000000E+00 -0.00000000000E+00 -0.10680873132E+02  0.10680873132E+02  0.00000000000E+00 0. -1.
        -13    1    1    2    0    0  0.36219329222E+02 -0.17934529465E+02  0.56236917139E+02  0.69253802565E+02  0.10566000000E+00 0.  1.
         13    1    1    2    0    0 -0.65048826063E+02  0.11602447800E+02  0.27836962547E+03  0.28610422247E+03  0.10566000000E+00 0. -1.
         -4    1    1    2    0  502  0.28829496841E+02  0.63320816645E+01  0.71351329572E+03  0.71412355956E+03  0.00000000000E+00 0. -1.
</event>
<event>
 5    1  0.6336319E-005  0.1789816E+03  0.7818608E-02  0.1075586E+00
         21   -1    0    0  501  502  0.00000000000E+00  0.00000000000E+00  0.25958218813E+03  0.25958218813E+03  0.00000000000E+00 0.  1.
          4   -1    0    0  502    0 -0.00000000000E+00 -0.00000000000E+00 -0.75624146703E+03  0.75624146703E+03  0.00000000000E+00 0.  1.
        -13    1    1    2    0    0 -0.78658532932E+02 -0.15944506548E+03 -0.63344921216E+03  0.65792690267E+03  0.10566000000E+00 0.  1.
         13    1    1    2    0    0  0.15757856486E+03  0.13125486343E+03  0.92541205029E+01  0.20529123992E+03  0.10566000000E+00 0. -1.
          4    1    1    2  501    0 -0.78920031932E+02  0.28190202050E+02  0.12753581276E+03  0.15260551257E+03  0.00000000000E+00 0.  1.
</event>
<event>
 5    1  0.6336319E-005  0.2956644E+03  0.7818608E-02  0.1023143E+00
          4   -1    0    0  502    0 -0.00000000000E+00  0.00000000000E+00  0.26027149850E+04  0.26027149850E+04  0.00000000000E+00 0.  1.
         21   -1    0    0  501  502  0.00000000000E+00 -0.00000000000E+00 -0.16458230647E+03  0.16458230647E+03  0.00000000000E+00 0.  1.
        -13    1    1    2    0    0  0.23302352880E+03  0.17442863617E+03  0.30673357933E+02  0.29268785445E+03  0.10566000000E+00 0.  1.
         13    1    1    2    0    0 -0.76366182186E+02  0.17327577893E+03  0.89479488374E+03  0.91461149374E+03  0.10566000000E+00 0. -1.
          4    1    1    2  501    0 -0.15665734661E+03 -0.34770441510E+03  0.15126644368E+04  0.15599979433E+04  0.00000000000E+00 0.  1.
</event>
<event>
 5    1  0.6336319E-005  0.1187162E+03  0.7818608E-02  0.1136838E+00
         -4   -1    0    0    0  501 -0.00000000000E+00  0.00000000000E+00  0.71293372460E+03  0.71293372460E+03  0.00000000000E+00 0. -1.
         21   -1    0    0  501  502  0.00000000000E+00 -0.00000000000E+00 -0.10999347320E+03  0.10999347320E+03  0.00000000000E+00 0.  1.
        -13    1    1    2    0    0  0.63983334809E+02  0.12194526086E+03  0.55607168252E+03  0.57287017817E+03  0.10566000000E+00 0.  1.
         13    1    1    2    0    0 -0.70294892480E+01 -0.89993739094E+02  0.12119484421E+03  0.15111746498E+03  0.10566000000E+00 0. -1.
         -4    1    1    2    0  502 -0.56953845561E+02 -0.31951521764E+02 -0.74326275330E+02  0.98939554636E+02  0.00000000000E+00 0. -1.
</event>
<event>
 5    1  0.6336319E-005  0.3992066E+03  0.7818608E-02  0.9975854E-01
         21   -1    0    0  501  502  0.00000000000E+00  0.00000000000E+00  0.29177986948E+03  0.29177986948E+03  0.00000000000E+00 0.  1.
          4   -1    0    0  502    0 -0.00000000000E+00 -0.00000000000E+00 -0.90365525941E+03  0.90365525941E+03  0.00000000000E+00 0.  1.
        -13    1    1    2    0    0 -0.31805980940E+03  0.17120107296E+03 -0.42681613444E+03  0.55914566396E+03  0.10566000000E+00 0.  1.
         13    1    1    2    0    0  0.47766511943E+02  0.16815624245E+03 -0.47237422550E+02  0.18107884137E+03  0.10566000000E+00 0. -1.
          4    1    1    2  501    0  0.27029329745E+03 -0.33935731541E+03 -0.13782183294E+03  0.45521062356E+03  0.00000000000E+00 0.  1.
</event>
<event>
 5    1  0.6336319E-005  0.4551453E+03  0.7818608E-02  0.9582106E-01
          4   -1    0    0  502    0 -0.00000000000E+00  0.00000000000E+00  0.12810295466E+04  0.12810295466E+04  0.00000000000E+00 0.  1.
         21   -1    0    0  501  502  0.00000000000E+00 -0.00000000000E+00 -0.95242156382E+03  0.95242156382E+03  0.00000000000E+00 0.  1.
        -13    1    1    2    0    0 -0.65946674301E+02  0.72270322391E+03 -0.19016474165E+03  0.75020767380E+03  0.10566000000E+00 0.  1.
         13    1    1    2    0    0  0.13236560637E+03 -0.40770117543E+03  0.89242730162E+03  0.99003404085E+03  0.10566000000E+00 0. -1.
          4    1    1    2  501    0 -0.66418932065E+02 -0.31500204848E+03 -0.37365457716E+03  0.49320939581E+03  0.00000000000E+00 0.  1.
</event>
<event>
 5    1  0.6336319E-005  0.2802180E+03  0.7818608E-02  0.1015822E+00
          4   -1    0    0  502    0 -0.00000000000E+00  0.00000000000E+00  0.98350011742E+03  0.98350011742E+03  0.00000000000E+00 0.  1.
         21   -1    0    0  501  502  0.00000000000E+00 -0.00000000000E+00 -0.26764386814E+03  0.26764386814E+03  0.00000000000E+00 0.  1.
        -13    1    1    2    0    0 -0.26294891301E+03  0.10856617588E+03  0.64164207529E+03  0.70187841493E+03  0.10566000000E+00 0.  1.
         13    1    1    2    0    0  0.23944234142E+03 -0.13073889233E+03  0.25030141880E+03  0.37023790224E+03  0.10566000000E+00 0. -1.
          4    1    1    2  501    0  0.23506571589E+02  0.22172716451E+02 -0.17608724482E+03  0.17902766839E+03  0.00000000000E+00 0.  1.
</event>
<event>
 5    1  0.6336319E-005  0.8028082E+03  0.7818608E-02  0.8985873E-01
         21   -1    0    0  501  502  0.00000000000E+00  0.00000000000E+00  0.65431166551E+03  0.65431166551E+03  0.00000000000E+00 0.  1.
         -4   -1    0    0    0  501 -0.00000000000E+00 -0.00000000000E+00 -0.17517474541E+04  0.17517474541E+04  0.00000000000E+00 0. -1.
        -13    1    1    2    0    0 -0.17439679182E+03 -0.75596808197E+03 -0.79596174793E+03  0.11115111773E+04  0.10566000000E+00 0.  1.
         13    1    1    2    0    0  0.27704105966E+03  0.79759203817E+03 -0.56008678286E+03  0.10132137107E+04  0.10566000000E+00 0. -1.
         -4    1    1    2    0  502 -0.10264426784E+03 -0.41623956197E+02  0.25861274219E+03  0.28133423160E+03  0.00000000000E+00 0. -1.
</event>
<event>
 5    1  0.6336319E-005  0.6152026E+03  0.7818608E-02  0.9255997E-01
         21   -1    0    0  501  502  0.00000000000E+00  0.00000000000E+00  0.26762080113E+03  0.26762080113E+03  0.00000000000E+00 0. -1.
          4   -1    0    0  502    0 -0.00000000000E+00 -0.00000000000E+00 -0.18385090289E+04  0.18385090289E+04  0.00000000000E+00 0.  1.
        -13    1    1    2    0    0  0.57040217103E+03 -0.16383188261E+03 -0.52701113141E+03  0.79368776371E+03  0.10566000000E+00 0.  1.
         13    1    1    2    0    0 -0.57326280401E+03  0.26809779156E+03 -0.10276461319E+04  0.12068816230E+04  0.10566000000E+00 0. -1.
          4    1    1    2  501    0  0.28606329824E+01 -0.10426590894E+03 -0.16230964459E+02  0.10556044333E+03  0.00000000000E+00 0.  1.
</event>
<event>
 5    1  0.6336319E-005  0.4618905E+03  0.7818608E-02  0.9939380E-01
          4   -1    0    0  502    0 -0.00000000000E+00  0.00000000000E+00  0.10663392535E+04  0.10663392535E+04  0.00000000000E+00 0.  1.
         21   -1    0    0  501  502  0.00000000000E+00 -0.00000000000E+00 -0.46669119800E+03  0.46669119800E+03  0.00000000000E+00 0.  1.
        -13    1    1    2    0    0 -0.35246862034E+03 -0.41284694375E+03  0.25977491181E+03  0.60179709476E+03  0.10566000000E+00 0.  1.
         13    1    1    2    0    0  0.31055357094E+02  0.12347869508E+03  0.46411206852E+03  0.48126026914E+03  0.10566000000E+00 0. -1.
          4    1    1    2  501    0  0.32141326325E+03  0.28936824867E+03 -0.12423892483E+03  0.44997308761E+03  0.00000000000E+00 0.  1.
</event>
<event>
 5    1  0.6336319E-005  0.3675829E+03  0.7818608E-02  0.1028581E+00
         21   -1    0    0  501  502  0.00000000000E+00  0.00000000000E+00  0.10457083526E+03  0.10457083526E+03  0.00000000000E+00 0. -1.
         -4   -1    0    0    0  501 -0.00000000000E+00 -0.00000000000E+00 -0.19754831985E+04  0.19754831985E+04  0.00000000000E+00 0. -1.
        -13    1    1    2    0    0  0.23344276650E+02 -0.79839631322E+02 -0.24667983583E+03  0.26032724512E+03  0.10566000000E+00 0.  1.
         13    1    1    2    0    0  0.35078422460E+03  0.63530090856E+02 -0.12094946887E+04  0.12609373727E+04  0.10566000000E+00 0. -1.
         -4    1    1    2    0  502 -0.37412850125E+03  0.16309540466E+02 -0.41473783877E+03  0.55878941603E+03  0.00000000000E+00 0. -1.
</event>
<event>
 5    1  0.6336319E-005  0.1229240E+03  0.7818608E-02  0.1131373E+00
         21   -1    0    0  501  502  0.00000000000E+00  0.00000000000E+00  0.36619736860E+02  0.36619736860E+02  0.00000000000E+00 0.  1.
         -4   -1    0    0    0  501 -0.00000000000E+00 -0.00000000000E+00 -0.59844276131E+03  0.59844276131E+03  0.00000000000E+00 0. -1.
        -13    1    1    2    0    0  0.12951615707E+03 -0.25414208127E+01 -0.23285357029E+03  0.26646142333E+03  0.10566000000E+00 0.  1.
         13    1    1    2    0    0 -0.11865780372E+03 -0.10265045584E+02 -0.33091781661E+03  0.35169824859E+03  0.10566000000E+00 0. -1.
         -4    1    1    2    0  502 -0.10858353354E+02  0.12806466397E+02  0.19483624517E+01  0.16902826254E+02  0.00000000000E+00 0. -1.
</event>
<event>
 5    1  0.6336319E-005  0.5020377E+03  0.7818608E-02  0.9567555E-01
         -4   -1    0    0    0  501 -0.00000000000E+00  0.00000000000E+00  0.15352584947E+04  0.15352584947E+04  0.00000000000E+00 0. -1.
         21   -1    0    0  501  502  0.00000000000E+00 -0.00000000000E+00 -0.36094988881E+03  0.36094988881E+03  0.00000000000E+00 0. -1.
        -13    1    1    2    0    0  0.25896269638E+03  0.24612336113E+03  0.56524420065E+03  0.66868483200E+03  0.10566000000E+00 0.  1.
         13    1    1    2    0    0  0.19553884063E+03 -0.50559495438E+03  0.29478158033E+03  0.61705582191E+03  0.10566000000E+00 0. -1.
         -4    1    1    2    0  502 -0.45450153701E+03  0.25947159325E+03  0.31428282490E+03  0.61046772959E+03  0.00000000000E+00 0. -1.
</event>
<event>
 5    1  0.6336319E-005  0.3089974E+03  0.7818608E-02  0.1024243E+00
          4   -1    0    0  502    0 -0.00000000000E+00  0.00000000000E+00  0.48683385044E+03  0.48683385044E+03  0.00000000000E+00 0.  1.
         21   -1    0    0  501  502  0.00000000000E+00 -0.00000000000E+00 -0.45845772554E+03  0.45845772554E+03  0.00000000000E+00 0.  1.
        -13    1    1    2    0    0 -0.21565580145E+03 -0.37468651201E+03  0.16398146229E+03  0.46237142875E+03  0.10566000000E+00 0.  1.
         13    1    1    2    0    0  0.48098866448E+02  0.15288461622E+03  0.24496544175E+02  0.16213358280E+03  0.10566000000E+00 0. -1.
          4    1    1    2  501    0  0.16755693501E+03  0.22180189579E+03 -0.16010188157E+03  0.32078656444E+03  0.00000000000E+00 0.  1.
</event>
<event>
 5    1  0.6336319E-005  0.4868815E+03  0.7818608E-02  0.9829858E-01
          4   -1    0    0  502    0 -0.00000000000E+00  0.00000000000E+00  0.16114258727E+04  0.16114258727E+04  0.00000000000E+00 0.  1.
         21   -1    0    0  501  502  0.00000000000E+00 -0.00000000000E+00 -0.23451912634E+03  0.23451912634E+03  0.00000000000E+00 0.  1.
        -13    1    1    2    0    0 -0.54330616225E+03  0.52367137881E+01  0.47770688238E+03  0.72347279544E+03  0.10566000000E+00 0.  1.
         13    1    1    2    0    0  0.14379824373E+03 -0.63001146043E+02  0.24197751886E+02  0.15884779401E+03  0.10566000000E+00 0. -1.
          4    1    1    2  501    0  0.39950791852E+03  0.57764432255E+02  0.87500211205E+03  0.96362440956E+03  0.00000000000E+00 0.  1.
</event>
<event>
 5    1  0.6336319E-005  0.2345179E+03  0.7818608E-02  0.1038744E+00
          4   -1    0    0  502    0 -0.00000000000E+00  0.00000000000E+00  0.90627678328E+03  0.90627678328E+03  0.00000000000E+00 0.  1.
         21   -1    0    0  501  502  0.00000000000E+00 -0.00000000000E+00 -0.43696866493E+03  0.43696866493E+03  0.00000000000E+00 0.  1.
        -13    1    1    2    0    0  0.84107734577E+02  0.30178270507E+03  0.56517230190E+03  0.64619397560E+03  0.10566000000E+00 0.  1.
         13    1    1    2    0    0 -0.97431992561E+02 -0.15404145218E+03  0.25654060503E+03  0.31469803837E+03  0.10566000000E+00 0. -1.
          4    1    1    2  501    0  0.13324257984E+02 -0.14774125289E+03 -0.35240478858E+03  0.38235343423E+03  0.00000000000E+00 0.  1.
</event>
<event>
 5    1  0.6336319E-005  0.4479757E+03  0.7818608E-02  0.9670838E-01
         21   -1    0    0  501  502  0.00000000000E+00  0.00000000000E+00  0.23567025709E+03  0.23567025709E+03  0.00000000000E+00 0. -1.
         -4   -1    0    0    0  501 -0.00000000000E+00 -0.00000000000E+00 -0.20920158043E+04  0.20920158043E+04  0.00000000000E+00 0. -1.
        -13    1    1    2    0    0  0.33204493243E+03 -0.10666111865E+03 -0.48543749563E+03  0.59772903954E+03  0.10566000000E+00 0.  1.
         13    1    1    2    0    0  0.16799948698E+03  0.26486796643E+03 -0.10915546259E+04  0.11357246056E+04  0.10566000000E+00 0. -1.
         -4    1    1    2    0  502 -0.50004441941E+03 -0.15820684777E+03 -0.27935342566E+03  0.59423241623E+03  0.00000000000E+00 0. -1.
</event>
<event>
 5    1  0.6336319E-005  0.3606924E+03  0.7818608E-02  0.1061125E+00
         21   -1    0    0  501  502  0.00000000000E+00  0.00000000000E+00  0.84515587839E+03  0.84515587839E+03  0.00000000000E+00 0.  1.
          4   -1    0    0  502    0 -0.00000000000E+00 -0.00000000000E+00 -0.27455126581E+03  0.27455126581E+03  0.00000000000E+00 0.  1.
        -13    1    1    2    0    0 -0.21533983847E+03  0.25702835528E+03 -0.36542053599E+02  0.33729831648E+03  0.10566000000E+00 0.  1.
         13    1    1    2    0    0 -0.27210552914E+02  0.18894219975E+02 -0.31450877065E+02  0.45679038634E+02  0.10566000000E+00 0. -1.
          4    1    1    2  501    0  0.24255039138E+03 -0.27592257526E+03  0.63859754324E+03  0.73672978909E+03  0.00000000000E+00 0.  1.
</event>
<event>
 5    1  0.6336319E-005  0.4453537E+02  0.7818608E-02  0.1345999E+00
         21   -1    0    0  501  502  0.00000000000E+00  0.00000000000E+00  0.34484368202E+03  0.34484368202E+03  0.00000000000E+00 0. -1.
         -4   -1    0    0    0  501 -0.00000000000E+00 -0.00000000000E+00 -0.29695129977E+02  0.29695129977E+02  0.00000000000E+00 0. -1.
        -13    1    1    2    0    0  0.23647796080E+02 -0.94357838006E+01 -0.10087096925E+02  0.27386364560E+02  0.10566000000E+00 0.  1.
         13    1    1    2    0    0 -0.21320930637E+02 -0.39433077953E+02  0.26858399073E+03  0.27229932236E+03  0.10566000000E+00 0. -1.
         -4    1    1    2    0  502 -0.23268654430E+01  0.48868861753E+02  0.56651658238E+02  0.74853125071E+02  0.00000000000E+00 0. -1.
</event>
<event>
 5    1  0.8151961E-005  0.4205853E+03  0.7818608E-02  0.9733688E-01
         -4   -1    0    0    0  501 -0.00000000000E+00  0.00000000000E+00  0.97921659460E+03  0.97921659460E+03  0.00000000000E+00 0. -1.
         21   -1    0    0  501  502  0.00000000000E+00 -0.00000000000E+00 -0.71083711377E+03  0.71083711377E+03  0.00000000000E+00 0. -1.
        -13    1    1    2    0    0  0.33733127992E+03  0.29405007372E+02  0.50152843767E+03  0.60513455679E+03  0.10566000000E+00 0.  1.
         13    1    1    2    0    0  0.13591994886E+03 -0.16253203070E+03  0.29510964466E+03  0.36329135282E+03  0.10566000000E+00 0. -1.
         -4    1    1    2    0  502 -0.47325122877E+03  0.13312702333E+03 -0.52825860150E+03  0.72162779875E+03  0.00000000000E+00 0. -1.
</event>
<event>
 5    1  0.6336319E-005  0.4689009E+03  0.7818608E-02  0.9754379E-01
         21   -1    0    0  501  502  0.00000000000E+00  0.00000000000E+00  0.24761144543E+03  0.24761144543E+03  0.00000000000E+00 0.  1.
          4   -1    0    0  502    0 -0.00000000000E+00 -0.00000000000E+00 -0.24745562151E+04  0.24745562151E+04  0.00000000000E+00 0.  1.
        -13    1    1    2    0    0  0.35372607330E+03 -0.36150121075E+03 -0.65931521233E+03  0.83096439195E+03  0.10566000000E+00 0.  1.
         13    1    1    2    0    0 -0.21117582472E+03 -0.84644437071E+02 -0.13599665023E+04  0.13788650435E+04  0.10566000000E+00 0. -1.
          4    1    1    2  501    0 -0.14255024859E+03  0.44614564783E+03 -0.20766305505E+03  0.51233822508E+03  0.00000000000E+00 0.  1.
</event>
<event>
 5    1  0.6336319E-005  0.1495610E+03  0.7818608E-02  0.1101545E+00
         21   -1    0    0  501  502  0.00000000000E+00  0.00000000000E+00  0.95431265211E+02  0.95431265211E+02  0.00000000000E+00 0. -1.
          4   -1    0    0  502    0 -0.00000000000E+00 -0.00000000000E+00 -0.52699970809E+03  0.52699970809E+03  0.00000000000E+00 0.  1.
        -13    1    1    2    0    0  0.13094201783E+03  0.36445198619E+02 -0.20343945945E+03  0.24466648598E+03  0.10566000000E+00 0.  1.
         13    1    1    2    0    0 -0.13265200234E+03 -0.12653984193E+03 -0.22133362873E+03  0.28739775868E+03  0.10566000000E+00 0. -1.
          4    1    1    2  501    0  0.17099845100E+01  0.90094643313E+02 -0.67953546972E+01  0.90366728646E+02  0.00000000000E+00 0.  1.
</event>
<event>
 5    1  0.6336319E-005  0.1010188E+04  0.7818608E-02  0.8765077E-01
          4   -1    0    0  502    0 -0.00000000000E+00  0.00000000000E+00  0.15417862659E+04  0.15417862659E+04  0.00000000000E+00 0.  1.
         21   -1    0    0  501  502  0.00000000000E+00 -0.00000000000E+00 -0.87584132693E+03  0.87584132693E+03  0.00000000000E+00 0. -1.
        -13    1    1    2    0    0 -0.80727036318E+03 -0.74578335504E+03  0.34183949340E+03  0.11509702439E+04  0.10566000000E+00 0.  1.
         13    1    1    2    0    0  0.54524037962E+03  0.77401274094E+03  0.33114994946E+03  0.10030169963E+04  0.10566000000E+00 0. -1.
          4    1    1    2  501    0  0.26202998356E+03 -0.28229385904E+02 -0.70445038615E+01  0.26364035265E+03  0.00000000000E+00 0.  1.
</event>
<event>
 5    1  0.6336319E-005  0.3243380E+03  0.7818608E-02  0.1017304E+00
         21   -1    0    0  501  502  0.00000000000E+00  0.00000000000E+00  0.75209448592E+03  0.75209448592E+03  0.00000000000E+00 0.  1.
          4   -1    0    0  502    0 -0.00000000000E+00 -0.00000000000E+00 -0.50429615631E+03  0.50429615631E+03  0.00000000000E+00 0.  1.
        -13    1    1    2    0    0  0.27717867548E+03  0.36272159195E+03 -0.28518963281E+03  0.53826397728E+03  0.10566000000E+00 0.  1.
         13    1    1    2    0    0 -0.38958957323E+02 -0.16795640905E+03  0.16786237987E+03  0.24063446436E+03  0.10566000000E+00 0. -1.
          4    1    1    2  501    0 -0.23821971816E+03 -0.19476518290E+03  0.36512558255E+03  0.47749220059E+03  0.00000000000E+00 0.  1.
</event>
<event>
 5    1  0.6336319E-005  0.6607228E+03  0.7818608E-02  0.9181989E-01
         21   -1    0    0  501  502  0.00000000000E+00  0.00000000000E+00  0.57759039196E+03  0.57759039196E+03  0.00000000000E+00 0. -1.
         -4   -1    0    0    0  501 -0.00000000000E+00 -0.00000000000E+00 -0.18919837119E+04  0.18919837119E+04  0.00000000000E+00 0. -1.
        -13    1    1    2    0    0  0.62181891855E+03 -0.24566505431E+03 -0.23244905132E+03  0.70784366847E+03  0.10566000000E+00 0.  1.
         13    1    1    2    0    0 -0.61922253147E+03  0.22335566031E+03 -0.13451425224E+04  0.14975756112E+04  0.10566000000E+00 0. -1.
         -4    1    1    2    0  502 -0.25963870793E+01  0.22309394002E+02  0.26319825385E+03  0.26415482414E+03  0.00000000000E+00 0. -1.
</event>
<event>
 5    1  0.6336319E-005  0.4225761E+03  0.7818608E-02  0.9854791E-01
         21   -1    0    0  501  502  0.00000000000E+00  0.00000000000E+00  0.25052893439E+03  0.25052893439E+03  0.00000000000E+00 0. -1.
         -4   -1    0    0    0  501 -0.00000000000E+00 -0.00000000000E+00 -0.15524157656E+04  0.15524157656E+04  0.00000000000E+00 0. -1.
        -13    1    1    2    0    0  0.13810340365E+03 -0.17213973529E+03 -0.29363771394E+03  0.36732513769E+03  0.10566000000E+00 0.  1.
         13    1    1    2    0    0  0.39009083200E+03  0.51381200093E+02 -0.15088682563E+03  0.42139972739E+03  0.10566000000E+00 0. -1.
         -4    1    1    2    0  502 -0.52819423565E+03  0.12075853519E+03 -0.85736229162E+03  0.10142198349E+04  0.00000000000E+00 0. -1.
</event>
<event>
 5    1  0.6336319E-005  0.5057861E+03  0.7818608E-02  0.9515290E-01
         21   -1    0    0  501  502  0.00000000000E+00  0.00000000000E+00  0.24839411047E+03  0.24839411047E+03  0.00000000000E+00 0.  1.
         -4   -1    0    0    0  501 -0.00000000000E+00 -0.00000000000E+00 -0.24003325666E+04  0.24003325666E+04  0.00000000000E+00 0. -1.
        -13    1    1    2    0    0  0.39546353683E+03  0.14656004477E+03 -0.39879505180E+03  0.58043842067E+03  0.10566000000E+00 0.  1.
         13    1    1    2    0    0  0.28885913543E+03 -0.16822707403E+03 -0.98062079455E+03  0.10360294892E+04  0.10566000000E+00 0. -1.
         -4    1    1    2    0  502 -0.68432267226E+03  0.21667029262E+02 -0.77252260982E+03  0.10322587673E+04  0.00000000000E+00 0. -1.
</event>
<event>
 5    1  0.6336319E-005  0.2860117E+03  0.7818608E-02  0.1043936E+00
         21   -1    0    0  501  502  0.00000000000E+00  0.00000000000E+00  0.19327880078E+03  0.19327880078E+03  0.00000000000E+00 0.  1.
          4   -1    0    0  502    0 -0.00000000000E+00 -0.00000000000E+00 -0.16197168692E+04  0.16197168692E+04  0.00000000000E+00 0.  1.
        -13    1    1    2    0    0  0.27390250344E+03  0.78999860534E+02  0.36733772983E+02  0.28742466943E+03  0.10566000000E+00 0.  1.
         13    1    1    2    0    0  0.38362637298E+02 -0.10363565222E+03 -0.26470750931E+03  0.28684859595E+03  0.10566000000E+00 0. -1.
          4    1    1    2  501    0 -0.31226514073E+03  0.24635791685E+02 -0.11984643321E+04  0.12387224046E+04  0.00000000000E+00 0.  1.
</event>
<event>
 5    1  0.6336319E-005  0.2111523E+03  0.7818608E-02  0.1052748E+00
         21   -1    0    0  501  502  0.00000000000E+00  0.00000000000E+00  0.87148562849E+03  0.87148562849E+03  0.00000000000E+00 0. -1.
         -4   -1    0    0    0  501 -0.00000000000E+00 -0.00000000000E+00 -0.14145781671E+03  0.14145781671E+03  0.00000000000E+00 0. -1.
        -13    1    1    2    0    0  0.93343807455E+02  0.15689491685E+03  0.51977123943E+02  0.18981758059E+03  0.10566000000E+00 0.  1.
         13    1    1    2    0    0 -0.10861855210E+03 -0.26721595865E+03  0.25285464073E+03  0.38358550406E+03  0.10566000000E+00 0. -1.
         -4    1    1    2    0  502  0.15274744644E+02  0.11032104181E+03  0.42519604711E+03  0.43954036056E+03  0.00000000000E+00 0. -1.
</event>
<event>
 5    1  0.6336319E-005  0.5079954E+03  0.7818608E-02  0.9460618E-01
         21   -1    0    0  501  502  0.00000000000E+00  0.00000000000E+00  0.45941107725E+03  0.45941107725E+03  0.00000000000E+00 0.  1.
         -4   -1    0    0    0  501 -0.00000000000E+00 -0.00000000000E+00 -0.18499605337E+04  0.18499605337E+04  0.00000000000E+00 0. -1.
        -13    1    1    2    0    0 -0.32935540833E+03 -0.47871539048E+03 -0.12330531722E+03  0.59400978317E+03  0.10566000000E+00 0.  1.
         13    1    1    2    0    0  0.50687005983E+03  0.11561927425E+03 -0.11971480143E+04  0.13051622326E+04  0.10566000000E+00 0. -1.
         -4    1    1    2    0  502 -0.17751465150E+03  0.36309611624E+03 -0.70096124897E+02  0.41019959514E+03  0.00000000000E+00 0. -1.
</event>
<event>
 5    1  0.6336319E-005  0.2825057E+03  0.7818608E-02  0.1025728E+00
          4   -1    0    0  502    0 -0.00000000000E+00  0.00000000000E+00  0.51156920915E+03  0.51156920915E+03  0.00000000000E+00 0.  1.
         21   -1    0    0  501  502  0.00000000000E+00 -0.00000000000E+00 -0.74734518314E+03  0.74734518314E+03  0.00000000000E+00 0.  1.
        -13    1    1    2    0    0 -0.16786276227E+03  0.16389671992E+03  0.33368762336E+03  0.40790621827E+03  0.10566000000E+00 0.  1.
         13    1    1    2    0    0  0.15373587142E+03  0.12827632496E+03  0.11506176273E+02  0.20055407491E+03  0.10566000000E+00 0. -1.
          4    1    1    2  501    0  0.14126890849E+02 -0.29217304488E+03 -0.58096977362E+03  0.65045409911E+03  0.00000000000E+00 0.  1.
</event>
<event>
 5    1  0.6336319E-005  0.2244171E+03  0.7818608E-02  0.1066309E+00
         21   -1    0    0  501  502  0.00000000000E+00  0.00000000000E+00  0.14606983468E+03  0.14606983468E+03  0.00000000000E+00 0.  1.
          4   -1    0    0  502    0 -0.00000000000E+00 -0.00000000000E+00 -0.16531073441E+04  0.16531073441E+04  0.00000000000E+00 0.  1.
        -13    1    1    2    0    0  0.24666592121E+03  0.17389584103E+03 -0.12138786064E+04  0.12508337710E+04  0.10566000000E+00 0.  1.
         13    1    1    2    0    0 -0.11829696267E+03  0.37579483285E+01 -0.30670159020E+03  0.32874636142E+03  0.10566000000E+00 0. -1.
          4    1    1    2  501    0 -0.12836895854E+03 -0.17765378936E+03  0.13542687270E+02  0.21959704636E+03  0.00000000000E+00 0.  1.
</event>
<event>
 5    1  0.6336319E-005  0.2631490E+03  0.7818608E-02  0.1035500E+00
         21   -1    0    0  501  502  0.00000000000E+00  0.00000000000E+00  0.17891351397E+03  0.17891351397E+03  0.00000000000E+00 0.  1.
          4   -1    0    0  502    0 -0.00000000000E+00 -0.00000000000E+00 -0.22118855684E+04  0.22118855684E+04  0.00000000000E+00 0.  1.
        -13    1    1    2    0    0 -0.10073649083E+03 -0.22802591003E+03  0.17332993686E+02  0.24988817512E+03  0.10566000000E+00 0.  1.
         13    1    1    2    0    0 -0.92272821969E+02 -0.15830942490E+03 -0.67170744205E+03  0.69625214295E+03  0.10566000000E+00 0. -1.
          4    1    1    2  501    0  0.19300931280E+03  0.38633533493E+03 -0.13785976061E+04  0.14446587643E+04  0.00000000000E+00 0.  1.
</event>
<event>
 5    1  0.6336319E-005  0.3870175E+03  0.7818608E-02  0.9767306E-01
         21   -1    0    0  501  502  0.00000000000E+00  0.00000000000E+00  0.50856933263E+03  0.50856933263E+03  0.00000000000E+00 0.  1.
          4   -1    0    0  502    0 -0.00000000000E+00 -0.00000000000E+00 -0.12054496088E+04  0.12054496088E+04  0.00000000000E+00 0.  1.
        -13    1    1    2    0    0  0.29599434165E+03  0.24252849547E+03 -0.83357000102E+03  0.91720863449E+03  0.10566000000E+00 0.  1.
         13    1    1    2    0    0 -0.30579453008E+03 -0.25729804447E+03 -0.20877746097E+03  0.45088869767E+03  0.10566000000E+00 0. -1.
          4    1    1    2  501    0  0.98001884274E+01  0.14769549008E+02  0.34546718583E+03  0.34592160926E+03  0.00000000000E+00 0.  1.
</event>
<event>
 5    1  0.6336319E-005  0.3138242E+03  0.7818608E-02  0.1030729E+00
         21   -1    0    0  501  502  0.00000000000E+00  0.00000000000E+00  0.12708989778E+04  0.12708989778E+04  0.00000000000E+00 0. -1.
         -4   -1    0    0    0  501 -0.00000000000E+00 -0.00000000000E+00 -0.32501356569E+03  0.32501356569E+03  0.00000000000E+00 0. -1.
        -13    1    1    2    0    0 -0.10773401200E+03 -0.63553936104E+02 -0.90815636988E+02  0.15457429030E+03  0.10566000000E+00 0.  1.
         13    1    1    2    0    0  0.40420574505E+03  0.11352781358E+03  0.65824393164E+02  0.42497495301E+03  0.10566000000E+00 0. -1.
         -4    1    1    2    0  502 -0.29647173304E+03 -0.49973877478E+02  0.97087665590E+03  0.10163633001E+04  0.00000000000E+00 0. -1.
</event>
<event>
 5    1  0.6336319E-005  0.6417170E+02  0.7818608E-02  0.1242903E+00
          4   -1    0    0  502    0 -0.00000000000E+00  0.00000000000E+00  0.44830604531E+02  0.44830604531E+02  0.00000000000E+00 0.  1.
         21   -1    0    0  501  502  0.00000000000E+00 -0.00000000000E+00 -0.46541427244E+03  0.46541427244E+03  0.00000000000E+00 0.  1.
        -13    1    1    2    0    0 -0.74203166290E+02 -0.50836824453E+02 -0.76021310713E+02  0.11776987499E+03  0.10566000000E+00 0.  1.
         13    1    1    2    0    0  0.56459916491E+02  0.70433667703E+01 -0.14056114027E+02  0.58608162325E+02  0.10566000000E+00 0. -1.
          4    1    1    2  501    0  0.17743249799E+02  0.43793457682E+02 -0.33050624317E+03  0.33386683965E+03  0.00000000000E+00 0.  1.
</event>
<event>
 5    1  0.6336319E-005  0.2369253E+03  0.7818608E-02  0.1037400E+00
          4   -1    0    0  502    0 -0.00000000000E+00  0.00000000000E+00  0.57265058805E+02  0.57265058805E+02  0.00000000000E+00 0.  1.
         21   -1    0    0  501  502  0.00000000000E+00 -0.00000000000E+00 -0.16049309574E+04  0.16049309574E+04  0.00000000000E+00 0. -1.
        -13    1    1    2    0    0 -0.23697061416E+03 -0.44201106512E+02 -0.28792163988E+03  0.37550990888E+03  0.10566000000E+00 0.  1.
         13    1    1    2    0    0  0.22182365848E+03  0.37961797005E+02 -0.94160698595E+03  0.96812734733E+03  0.10566000000E+00 0. -1.
          4    1    1    2  501    0  0.15146955677E+02  0.62393095074E+01 -0.31813727272E+03  0.31855875995E+03  0.00000000000E+00 0.  1.
</event>
<event>
 5    1  0.6336319E-005  0.1020339E+03  0.7818608E-02  0.1161234E+00
         -4   -1    0    0    0  501 -0.00000000000E+00  0.00000000000E+00  0.58697513796E+02  0.58697513796E+02  0.00000000000E+00 0. -1.
         21   -1    0    0  501  502  0.00000000000E+00 -0.00000000000E+00 -0.58644824739E+03  0.58644824739E+03  0.00000000000E+00 0. -1.
        -13    1    1    2    0    0 -0.40756974553E+02  0.71331580332E+02 -0.59072362276E+02  0.10118735334E+03  0.10566000000E+00 0.  1.
         13    1    1    2    0    0  0.10184831535E+03 -0.96604225155E+02 -0.10758195175E+03  0.17685967082E+03  0.10566000000E+00 0. -1.
         -4    1    1    2    0  502 -0.61091340797E+02  0.25272644823E+02 -0.36109641957E+03  0.36709873702E+03  0.00000000000E+00 0. -1.
</event>
<event>
 5    1  0.6336319E-005  0.4279619E+03  0.7818608E-02  0.9844247E-01
         21   -1    0    0  501  502  0.00000000000E+00  0.00000000000E+00  0.10321238837E+04  0.10321238837E+04  0.00000000000E+00 0.  1.
          4   -1    0    0  502    0 -0.00000000000E+00 -0.00000000000E+00 -0.41445177451E+03  0.41445177451E+03  0.00000000000E+00 0.  1.
        -13    1    1    2    0    0 -0.23571903566E+03 -0.36205351427E+03  0.42258052097E+01  0.43204638589E+03  0.10566000000E+00 0.  1.
         13    1    1    2    0    0  0.20627972953E+03 -0.76971280872E+02 -0.42925898905E+02  0.22431796374E+03  0.10566000000E+00 0. -1.
          4    1    1    2  501    0  0.29439306128E+02  0.43902479514E+03  0.65637220288E+03  0.79021130858E+03  0.00000000000E+00 0.  1.
</event>
<event>
 5    1  0.6336319E-005  0.4390599E+03  0.7818608E-02  0.9622584E-01
         -4   -1    0    0    0  501 -0.00000000000E+00  0.00000000000E+00  0.20069962706E+04  0.20069962706E+04  0.00000000000E+00 0. -1.
         21   -1    0    0  501  502  0.00000000000E+00 -0.00000000000E+00 -0.31786976200E+03  0.31786976200E+03  0.00000000000E+00 0. -1.
        -13    1    1    2    0    0 -0.39241562944E+03 -0.27622167322E+02  0.92487859025E+03  0.10050638926E+04  0.10566000000E+00 0.  1.
         13    1    1    2    0    0  0.62199245551E+03  0.32074479874E+03  0.44478615058E+03  0.82920840055E+03  0.10566000000E+00 0. -1.
         -4    1    1    2    0  502 -0.22957682607E+03 -0.29312263142E+03  0.31946176780E+03  0.49059373946E+03  0.00000000000E+00 0. -1.
</event>
<event>
 5    1  0.6336319E-005  0.4844847E+03  0.7818608E-02  0.9939403E-01
         21   -1    0    0  501  502  0.00000000000E+00  0.00000000000E+00  0.26344431995E+03  0.26344431995E+03  0.00000000000E+00 0.  1.
         -4   -1    0    0    0  501 -0.00000000000E+00 -0.00000000000E+00 -0.15384448973E+04  0.15384448973E+04  0.00000000000E+00 0. -1.
        -13    1    1    2    0    0 -0.24641162847E+02  0.10753267207E+03  0.44758534507E+02  0.11905376955E+03  0.10566000000E+00 0.  1.
         13    1    1    2    0    0 -0.42699985186E+03  0.12138015407E+03 -0.97200603921E+03  0.10685774500E+04  0.10566000000E+00 0. -1.
         -4    1    1    2    0  502  0.45164101471E+03 -0.22891282614E+03 -0.34775307259E+03  0.61425799762E+03  0.00000000000E+00 0. -1.
</event>
<event>
 5    1  0.6336319E-005  0.1065963E+03  0.7818608E-02  0.1154080E+00
         21   -1    0    0  501  502  0.00000000000E+00  0.00000000000E+00  0.93311784955E+03  0.93311784955E+03  0.00000000000E+00 0. -1.
         -4   -1    0    0    0  501 -0.00000000000E+00 -0.00000000000E+00 -0.40897272237E+03  0.40897272237E+03  0.00000000000E+00 0. -1.
        -13    1    1    2    0    0 -0.78428115778E+02  0.12327028658E+03 -0.85603506791E+02  0.16933547897E+03  0.10566000000E+00 0.  1.
         13    1    1    2    0    0  0.57739035628E+02 -0.79789004867E+02 -0.27221177916E+03  0.28948116590E+03  0.10566000000E+00 0. -1.
         -4    1    1    2    0  502  0.20689080150E+02 -0.43481281713E+02  0.88196041313E+03  0.88327392706E+03  0.00000000000E+00 0. -1.
</event>
<event>
 5    1  0.6336319E-005  0.4983485E+03  0.7818608E-02  0.9711193E-01
         21   -1    0    0  501  502  0.00000000000E+00  0.00000000000E+00  0.96613285365E+03  0.96613285365E+03  0.00000000000E+00 0.  1.
          4   -1    0    0  502    0 -0.00000000000E+00 -0.00000000000E+00 -0.44797750437E+03  0.44797750437E+03  0.00000000000E+00 0.  1.
        -13    1    1    2    0    0  0.13082011106E+03 -0.60133814867E+03  0.43555634525E+03  0.75394350688E+03  0.10566000000E+00 0.  1.
         13    1    1    2    0    0 -0.15319890693E+02  0.21952272127E+03 -0.73209565897E+02  0.23191501872E+03  0.10566000000E+00 0. -1.
          4    1    1    2  501    0 -0.11550022037E+03  0.38181542740E+03  0.15580856992E+03  0.42825183242E+03  0.00000000000E+00 0.  1.
</event>
<event>
 5    1  0.6336319E-005  0.3235071E+03  0.7818608E-02  0.1014006E+00
         -4   -1    0    0    0  501 -0.00000000000E+00  0.00000000000E+00  0.11168905134E+04  0.11168905134E+04  0.00000000000E+00 0. -1.
         21   -1    0    0  501  502  0.00000000000E+00 -0.00000000000E+00 -0.44655045037E+03  0.44655045037E+03  0.00000000000E+00 0. -1.
        -13    1    1    2    0    0  0.18728466919E+03  0.46409047231E+02  0.50100492722E+03  0.53687549324E+03  0.10566000000E+00 0.  1.
         13    1    1    2    0    0 -0.17660172626E+03 -0.36410857616E+03  0.44808818345E+03  0.60377666091E+03  0.10566000000E+00 0. -1.
         -4    1    1    2    0  502 -0.10682942927E+02  0.31769952893E+03 -0.27875304766E+03  0.42278880961E+03  0.00000000000E+00 0. -1.
</event>
<event>
 5    1  0.6336319E-005  0.4198961E+03  0.7818608E-02  0.9690378E-01
          4   -1    0    0  502    0 -0.00000000000E+00  0.00000000000E+00  0.27499271982E+04  0.27499271982E+04  0.00000000000E+00 0.  1.
         21   -1    0    0  501  502  0.00000000000E+00 -0.00000000000E+00 -0.20887956045E+03  0.20887956045E+03  0.00000000000E+00 0.  1.
        -13    1    1    2    0    0 -0.35889788022E+03  0.35229484411E+03  0.10345593975E+04  0.11503184358E+04  0.10566000000E+00 0.  1.
         13    1    1    2    0    0  0.38675077971E+03  0.82897369678E+02  0.12302619914E+04  0.12922819809E+04  0.10566000000E+00 0. -1.
          4    1    1    2  501    0 -0.27852899499E+02 -0.43519221379E+03  0.27622624894E+03  0.51620634203E+03  0.00000000000E+00 0.  1.
</event>
<event>
 5    1  0.6336319E-005  0.5006223E+03  0.7818608E-02  0.9562046E-01
          4   -1    0    0  502    0 -0.00000000000E+00  0.00000000000E+00  0.38625586940E+04  0.38625586940E+04  0.00000000000E+00 0.  1.
         21   -1    0    0  501  502  0.00000000000E+00 -0.00000000000E+00 -0.16368156095E+03  0.16368156095E+03  0.00000000000E+00 0.  1.
        -13    1    1    2    0    0  0.30446340132E+03  0.39125777812E+03  0.96515401537E+03  0.10850358963E+04  0.10566000000E+00 0.  1.
         13    1    1    2    0    0  0.24762132024E+03 -0.27153606293E+03  0.18928273308E+04  0.19281710160E+04  0.10566000000E+00 0. -1.
          4    1    1    2  501    0 -0.55208472156E+03 -0.11972171519E+03  0.84089578688E+03  0.10130333426E+04  0.00000000000E+00 0.  1.
</event>
<event>
 5    1  0.6336319E-005  0.3980606E+03  0.7818608E-02  0.9858867E-01
         -4   -1    0    0    0  501 -0.00000000000E+00  0.00000000000E+00  0.81441639290E+03  0.81441639290E+03  0.00000000000E+00 0. -1.
         21   -1    0    0  501  502  0.00000000000E+00 -0.00000000000E+00 -0.62816189486E+03  0.62816189486E+03  0.00000000000E+00 0. -1.
        -13    1    1    2    0    0 -0.26015962835E+03  0.11693282246E+02  0.29903651327E+03  0.39653828630E+03  0.10566000000E+00 0.  1.
         13    1    1    2    0    0  0.31975353584E+03 -0.29540261668E+03 -0.43306237811E+03  0.61404239603E+03  0.10566000000E+00 0. -1.
         -4    1    1    2    0  502 -0.59593907499E+02  0.28370933443E+03  0.32028036288E+03  0.43199760543E+03  0.00000000000E+00 0. -1.
</event>
<event>
 5    1  0.6336319E-005  0.7635044E+02  0.7818608E-02  0.1210987E+00
         -4   -1    0    0    0  501 -0.00000000000E+00  0.00000000000E+00  0.46496652513E+03  0.46496652513E+03  0.00000000000E+00 0. -1.
         21   -1    0    0  501  502  0.00000000000E+00 -0.00000000000E+00 -0.33426574212E+02  0.33426574212E+02  0.00000000000E+00 0.  1.
        -13    1    1    2    0    0  0.48223894162E+02 -0.48786031900E+02  0.66669058801E+02  0.95657699335E+02  0.10566000000E+00 0.  1.
         13    1    1    2    0    0 -0.59074641598E+02  0.51773840277E+02  0.37763493399E+03  0.38571815922E+03  0.10566000000E+00 0. -1.
         -4    1    1    2    0  502  0.10850747436E+02 -0.29878083763E+01 -0.12764041878E+02  0.17017240783E+02  0.00000000000E+00 0. -1.
</event>
<event>
 5    1  0.6336319E-005  0.2571327E+03  0.7818608E-02  0.1026761E+00
         21   -1    0    0  501  502  0.00000000000E+00  0.00000000000E+00  0.33415983164E+03  0.33415983164E+03  0.00000000000E+00 0.  1.
         -4   -1    0    0    0  501 -0.00000000000E+00 -0.00000000000E+00 -0.16528800885E+04  0.16528800885E+04  0.00000000000E+00 0. -1.
        -13    1    1    2    0    0  0.13607819666E+03  0.26759337350E+03 -0.16579860057E+03  0.34294704586E+03  0.10566000000E+00 0.  1.
         13    1    1    2    0    0 -0.29664817016E+02 -0.14127574658E+03  0.21898221356E+03  0.26228240307E+03  0.10566000000E+00 0. -1.
         -4    1    1    2    0  502 -0.10641337965E+03 -0.12631762693E+03 -0.13719038698E+04  0.13818104712E+04  0.00000000000E+00 0. -1.
</event>
<event>
 5    1  0.6336319E-005  0.4947832E+03  0.7818608E-02  0.9642580E-01
         21   -1    0    0  501  502  0.00000000000E+00  0.00000000000E+00  0.20175010322E+03  0.20175010322E+03  0.00000000000E+00 0. -1.
         -4   -1    0    0    0  501 -0.00000000000E+00 -0.00000000000E+00 -0.21754546351E+04  0.21754546351E+04  0.00000000000E+00 0. -1.
        -13    1    1    2    0    0 -0.18877923136E+03 -0.21467361589E+03 -0.34411163572E+03  0.44736471537E+03  0.10566000000E+00 0.  1.
         13    1    1    2    0    0  0.38575933431E+03  0.52269873140E+03 -0.85977194557E+03  0.10776047686E+04  0.10566000000E+00 0. -1.
         -4    1    1    2    0  502 -0.19698010295E+03 -0.30802511551E+03 -0.76982095061E+03  0.85223525434E+03  0.00000000000E+00 0. -1.
</event>
<event>
 5    1  0.6336319E-005  0.5362133E+03  0.7818608E-02  0.9727509E-01
         -4   -1    0    0    0  501 -0.00000000000E+00  0.00000000000E+00  0.14261309624E+04  0.14261309624E+04  0.00000000000E+00 0. -1.
         21   -1    0    0  501  502  0.00000000000E+00 -0.00000000000E+00 -0.49937174087E+03  0.49937174087E+03  0.00000000000E+00 0. -1.
        -13    1    1    2    0    0  0.15521002062E+03 -0.61448811481E+02  0.80424791732E+03  0.82138957299E+03  0.10566000000E+00 0.  1.
         13    1    1    2    0    0 -0.34824792104E+03  0.50476829929E+03  0.85486195348E+02  0.61917328046E+03  0.10566000000E+00 0. -1.
         -4    1    1    2    0  502  0.19303790042E+03 -0.44331948781E+03  0.37025108871E+02  0.48493984984E+03  0.00000000000E+00 0. -1.
</event>
<event>
 5    1  0.6336319E-005  0.4735208E+03  0.7818608E-02  0.9689558E-01
          4   -1    0    0  502    0 -0.00000000000E+00  0.00000000000E+00  0.88494110966E+03  0.88494110966E+03  0.00000000000E+00 0.  1.
         21   -1    0    0  501  502  0.00000000000E+00 -0.00000000000E+00 -0.75196763174E+03  0.75196763174E+03  0.00000000000E+00 0.  1.
        -13    1    1    2    0    0  0.53168482791E+03 -0.14252107806E+03 -0.25437757339E+02  0.55104274297E+03  0.10566000000E+00 0.  1.
         13    1    1    2    0    0 -0.20711219555E+03 -0.18332126107E+03  0.45938495093E+03  0.53622447782E+03  0.10566000000E+00 0. -1.
          4    1    1    2  501    0 -0.32457263236E+03  0.32584233913E+03 -0.30097371567E+03  0.54964152061E+03  0.00000000000E+00 0.  1.
</event>
<event>
 5    1  0.6336319E-005  0.6077817E+03  0.7818608E-02  0.9268700E-01
         -4   -1    0    0    0  501 -0.00000000000E+00  0.00000000000E+00  0.56172264840E+03  0.56172264840E+03  0.00000000000E+00 0. -1.
         21   -1    0    0  501  502  0.00000000000E+00 -0.00000000000E+00 -0.17160294194E+04  0.17160294194E+04  0.00000000000E+00 0.  1.
        -13    1    1    2    0    0 -0.58086173243E+03  0.27639966971E+03 -0.25450707616E+03  0.69178825705E+03  0.10566000000E+00 0.  1.
         13    1    1    2    0    0  0.42185484808E+03 -0.42837199915E+03  0.57274236411E+02  0.60394075192E+03  0.10566000000E+00 0. -1.
         -4    1    1    2    0  502  0.15900688435E+03  0.15197232944E+03 -0.95707393126E+03  0.98202305884E+03  0.00000000000E+00 0. -1.
</event>
<event>
 5    1  0.6336319E-005  0.3957575E+03  0.7818608E-02  0.1027769E+00
         21   -1    0    0  501  502  0.00000000000E+00  0.00000000000E+00  0.10224575640E+04  0.10224575640E+04  0.00000000000E+00 0.  1.
          4   -1    0    0  502    0 -0.00000000000E+00 -0.00000000000E+00 -0.31074479162E+03  0.31074479162E+03  0.00000000000E+00 0.  1.
        -13    1    1    2    0    0 -0.91207108645E+02 -0.38151975602E+03  0.73144742833E+03  0.82999482678E+03  0.10566000000E+00 0.  1.
         13    1    1    2    0    0  0.61031785035E+02 -0.30773321956E+02 -0.55808092474E+02  0.88240752934E+02  0.10566000000E+00 0. -1.
          4    1    1    2  501    0  0.30175323610E+02  0.41229307797E+03  0.36073436533E+02  0.41496677593E+03  0.00000000000E+00 0.  1.
</event>
<event>
 5    1  0.6336319E-005  0.4902198E+03  0.7818608E-02  0.9770420E-01
         -4   -1    0    0    0  501 -0.00000000000E+00  0.00000000000E+00  0.33579947779E+04  0.33579947779E+04  0.00000000000E+00 0. -1.
         21   -1    0    0  501  502  0.00000000000E+00 -0.00000000000E+00 -0.11245742466E+03  0.11245742466E+03  0.00000000000E+00 0. -1.
        -13    1    1    2    0    0 -0.45213591381E+02  0.18290481660E+03  0.65788603766E+03  0.68433361052E+03  0.10566000000E+00 0.  1.
         13    1    1    2    0    0 -0.19313668435E+03 -0.55250265313E+03  0.16423004623E+04  0.17434769228E+04  0.10566000000E+00 0. -1.
         -4    1    1    2    0  502  0.23835027573E+03  0.36959783654E+03  0.94535085331E+03  0.10426416693E+04  0.00000000000E+00 0. -1.
</event>
<event>
 5    1  0.6336319E-005  0.1096363E+03  0.7818608E-02  0.1222073E+00
         21   -1    0    0  501  502  0.00000000000E+00  0.00000000000E+00  0.28733327242E+03  0.28733327242E+03  0.00000000000E+00 0.  1.
          4   -1    0    0  502    0 -0.00000000000E+00 -0.00000000000E+00 -0.11314453414E+04  0.11314453414E+04  0.00000000000E+00 0.  1.
        -13    1    1    2    0    0  0.42693259167E+02  0.15878323145E+02  0.20823232806E+03  0.21315616139E+03  0.10566000000E+00 0.  1.
         13    1    1    2    0    0  0.24012695129E+03  0.87600597556E+02 -0.68175008433E+03  0.72809203132E+03  0.10566000000E+00 0. -1.
          4    1    1    2  501    0 -0.28282021046E+03 -0.10347892070E+03 -0.37059431275E+03  0.47753042114E+03  0.00000000000E+00 0.  1.
</event>
<event>
 5    1  0.6336319E-005  0.3609106E+03  0.7818608E-02  0.1016560E+00
         -4   -1    0    0    0  501 -0.00000000000E+00  0.00000000000E+00  0.16097691810E+04  0.16097691810E+04  0.00000000000E+00 0. -1.
         21   -1    0    0  501  502  0.00000000000E+00 -0.00000000000E+00 -0.23413172215E+03  0.23413172215E+03  0.00000000000E+00 0. -1.
        -13    1    1    2    0    0 -0.11513326543E+03  0.56200040588E+02  0.46477127717E+03  0.48210627938E+03  0.10566000000E+00 0.  1.
         13    1    1    2    0    0  0.37845638173E+03 -0.87539724780E+01 -0.33708644765E+02  0.38005545490E+03  0.10566000000E+00 0. -1.
         -4    1    1    2    0  502 -0.26332311630E+03 -0.47446068110E+02  0.94457482646E+03  0.98173916889E+03  0.00000000000E+00 0. -1.
</event>
<event>
 5    1  0.6336319E-005  0.4610461E+03  0.7818608E-02  0.9968551E-01
         -4   -1    0    0    0  501 -0.00000000000E+00  0.00000000000E+00  0.51111859379E+03  0.51111859379E+03  0.00000000000E+00 0. -1.
         21   -1    0    0  501  502  0.00000000000E+00 -0.00000000000E+00 -0.61282958553E+03  0.61282958553E+03  0.00000000000E+00 0. -1.
        -13    1    1    2    0    0 -0.24857721654E+02 -0.11355725532E+03  0.64236336627E+01  0.11642349761E+03  0.10566000000E+00 0.  1.
         13    1    1    2    0    0 -0.12831151093E+03  0.47596133895E+03 -0.29231398292E+03  0.57310602491E+03  0.10566000000E+00 0. -1.
         -4    1    1    2    0  502  0.15316923258E+03 -0.36240408363E+03  0.18417935752E+03  0.43441865680E+03  0.00000000000E+00 0. -1.
</event>
<event>
 5    1  0.6336319E-005  0.4379542E+03  0.7818608E-02  0.1010766E+00
         21   -1    0    0  501  502  0.00000000000E+00  0.00000000000E+00  0.47968230935E+03  0.47968230935E+03  0.00000000000E+00 0. -1.
         -4   -1    0    0    0  501 -0.00000000000E+00 -0.00000000000E+00 -0.62103629095E+03  0.62103629095E+03  0.00000000000E+00 0. -1.
        -13    1    1    2    0    0 -0.22212737550E+02 -0.83352043908E+02 -0.76725791226E+02  0.11544620884E+03  0.10566000000E+00 0.  1.
         13    1    1    2    0    0  0.32946032994E+03  0.31844202619E+03  0.21676511377E+03  0.50688909908E+03  0.10566000000E+00 0. -1.
         -4    1    1    2    0  502 -0.30724759239E+03 -0.23508998229E+03 -0.28139330414E+03  0.47838329237E+03  0.00000000000E+00 0. -1.
</event>
<event>
 5    1  0.6336319E-005  0.2438981E+02  0.7818608E-02  0.1456606E+00
         21   -1    0    0  501  502  0.00000000000E+00  0.00000000000E+00  0.36185688669E+02  0.36185688669E+02  0.00000000000E+00 0. -1.
          4   -1    0    0  502    0 -0.00000000000E+00 -0.00000000000E+00 -0.32035141946E+02  0.32035141946E+02  0.00000000000E+00 0.  1.
        -13    1    1    2    0    0 -0.19534320142E+02  0.12277332486E+02 -0.83068439182E+01  0.24522181311E+02  0.10566000000E+00 0.  1.
         13    1    1    2    0    0  0.16699666221E+02 -0.24218317585E+02  0.10685790208E+02  0.31298610751E+02  0.10566000000E+00 0. -1.
          4    1    1    2  501    0  0.28346539209E+01  0.11940985100E+02  0.17716004329E+01  0.12400038552E+02  0.00000000000E+00 0.  1.
</event>
<event>
 5    1  0.6336319E-005  0.9356090E+02  0.7818608E-02  0.1175672E+00
         21   -1    0    0  501  502  0.00000000000E+00  0.00000000000E+00  0.45653316396E+03  0.45653316396E+03  0.00000000000E+00 0. -1.
         -4   -1    0    0    0  501 -0.00000000000E+00 -0.00000000000E+00 -0.17275358771E+03  0.17275358771E+03  0.00000000000E+00 0. -1.
        -13    1    1    2    0    0  0.49638161785E+02  0.54294545403E+02 -0.27725867247E+02  0.78616662640E+02  0.10566000000E+00 0.  1.
         13    1    1    2    0    0 -0.96086703167E+02 -0.68055291262E+02 -0.88778966469E+02  0.14746488818E+03  0.10566000000E+00 0. -1.
         -4    1    1    2    0  502  0.46448541382E+02  0.13760745858E+02  0.40028440997E+03  0.40320520085E+03  0.00000000000E+00 0. -1.
</event>
<event>
 5    1  0.6336319E-005  0.2350077E+03  0.7818608E-02  0.1038469E+00
         21   -1    0    0  501  502  0.00000000000E+00  0.00000000000E+00  0.24340339368E+03  0.24340339368E+03  0.00000000000E+00 0. -1.
         -4   -1    0    0    0  501 -0.00000000000E+00 -0.00000000000E+00 -0.17259444613E+04  0.17259444613E+04  0.00000000000E+00 0. -1.
        -13    1    1    2    0    0  0.49681712456E+01 -0.21423432502E+03 -0.56217635405E+03  0.60163385291E+03  0.10566000000E+00 0.  1.
         13    1    1    2    0    0  0.17286934198E+03  0.22078196136E+03 -0.10878065928E+04  0.11233662263E+04  0.10566000000E+00 0. -1.
         -4    1    1    2    0  502 -0.17783751323E+03 -0.65476363473E+01  0.16744187919E+03  0.24434777584E+03  0.00000000000E+00 0. -1.
</event>
<event>
 5    1  0.6336319E-005  0.4351693E+03  0.7818608E-02  0.9737415E-01
         21   -1    0    0  501  502  0.00000000000E+00  0.00000000000E+00  0.61580627729E+03  0.61580627729E+03  0.00000000000E+00 0.  1.
          4   -1    0    0  502    0 -0.00000000000E+00 -0.00000000000E+00 -0.99217843020E+03  0.99217843020E+03  0.00000000000E+00 0.  1.
        -13    1    1    2    0    0 -0.58874275652E+03  0.18681339218E+03  0.33593825162E+02  0.61858373168E+03  0.10566000000E+00 0.  1.
         13    1    1    2    0    0  0.30006640415E+03  0.32108827944E+02 -0.52817149882E+03  0.60830581706E+03  0.10566000000E+00 0. -1.
          4    1    1    2  501    0  0.28867635237E+03 -0.21892222012E+03  0.11820552075E+03  0.38109515874E+03  0.00000000000E+00 0.  1.
</event>
<event>
 5    1  0.6336319E-005  0.9918961E+02  0.7818608E-02  0.1165903E+00
         21   -1    0    0  501  502  0.00000000000E+00  0.00000000000E+00  0.25819001093E+03  0.25819001093E+03  0.00000000000E+00 0.  1.
          4   -1    0    0  502    0 -0.00000000000E+00 -0.00000000000E+00 -0.22128506115E+03  0.22128506115E+03  0.00000000000E+00 0.  1.
        -13    1    1    2    0    0  0.78421065629E+02  0.62484217599E+02 -0.17613222187E+03  0.20267390490E+03  0.10566000000E+00 0.  1.
         13    1    1    2    0    0 -0.41163495798E+02 -0.93165459587E+02  0.64355329484E+02  0.12048176561E+03  0.10566000000E+00 0. -1.
          4    1    1    2  501    0 -0.37257569830E+02  0.30681241987E+02  0.14868184216E+03  0.15631940158E+03  0.00000000000E+00 0.  1.
</event>
<event>
 5    1  0.6336319E-005  0.6105093E+02  0.7818608E-02  0.1261579E+00
         21   -1    0    0  501  502  0.00000000000E+00  0.00000000000E+00  0.64326584058E+02  0.64326584058E+02  0.00000000000E+00 0.  1.
          4   -1    0    0  502    0 -0.00000000000E+00 -0.00000000000E+00 -0.48856870553E+03  0.48856870553E+03  0.00000000000E+00 0.  1.
        -13    1    1    2    0    0  0.77523902073E+02 -0.14607532213E+02 -0.41140926926E+03  0.41890444422E+03  0.10566000000E+00 0.  1.
         13    1    1    2    0    0 -0.38629763263E+02 -0.32418997687E+02 -0.42670186182E+02  0.66060623473E+02  0.10566000000E+00 0. -1.
          4    1    1    2  501    0 -0.38894138811E+02  0.47026529900E+02  0.29837333970E+02  0.67930221895E+02  0.00000000000E+00 0.  1.
</event>
<event>
 5    1  0.6336319E-005  0.8645039E+02  0.7818608E-02  0.1189157E+00
         21   -1    0    0  501  502  0.00000000000E+00  0.00000000000E+00  0.47928982754E+03  0.47928982754E+03  0.00000000000E+00 0. -1.
          4   -1    0    0  502    0 -0.00000000000E+00 -0.00000000000E+00 -0.28259437780E+02  0.28259437780E+02  0.00000000000E+00 0.  1.
        -13    1    1    2    0    0  0.34661711323E+02  0.83168660348E+02  0.74564016173E+02  0.11695411052E+03  0.10566000000E+00 0.  1.
         13    1    1    2    0    0 -0.43726440834E+02 -0.61252316231E+02  0.32943681142E+03  0.33792376619E+03  0.10566000000E+00 0. -1.
          4    1    1    2  501    0  0.90647295116E+01 -0.21916344116E+02  0.47029562165E+02  0.52671388609E+02  0.00000000000E+00 0.  1.
</event>
<event>
 5    1  0.6336319E-005  0.6592956E+02  0.7818608E-02  0.1237830E+00
         21   -1    0    0  501  502  0.00000000000E+00  0.00000000000E+00  0.92972758541E+02  0.92972758541E+02  0.00000000000E+00 0.  1.
         -4   -1    0    0    0  501 -0.00000000000E+00 -0.00000000000E+00 -0.91091792769E+02  0.91091792769E+02  0.00000000000E+00 0. -1.
        -13    1    1    2    0    0 -0.29883476494E+02  0.36953411661E+02  0.20339224633E+02  0.51694023092E+02  0.10566000000E+00 0.  1.
         13    1    1    2    0    0  0.63995950757E+02 -0.45789644961E+02 -0.42766860255E+02  0.89561089761E+02  0.10566000000E+00 0. -1.
         -4    1    1    2    0  502 -0.34112474264E+02  0.88362333005E+01  0.24308601393E+02  0.42809438457E+02  0.00000000000E+00 0. -1.
</event>
<event>
 5    1  0.6336319E-005  0.3731391E+03  0.7818608E-02  0.1046222E+00
         -4   -1    0    0    0  501 -0.00000000000E+00  0.00000000000E+00  0.11009541543E+04  0.11009541543E+04  0.00000000000E+00 0. -1.
         21   -1    0    0  501  502  0.00000000000E+00 -0.00000000000E+00 -0.30020378749E+03  0.30020378749E+03  0.00000000000E+00 0. -1.
        -13    1    1    2    0    0  0.19151523440E+02 -0.42336943524E+02  0.27489141145E+03  0.27879113488E+03  0.10566000000E+00 0.  1.
         13    1    1    2    0    0  0.33493391625E+03  0.16487071386E+03 -0.10573174531E+03  0.38799780112E+03  0.10566000000E+00 0. -1.
         -4    1    1    2    0  502 -0.35408543969E+03 -0.12253377034E+03  0.63159070065E+03  0.73436900576E+03  0.00000000000E+00 0. -1.
</event>
<event>
 5    1  0.6336319E-005  0.3437855E+02  0.7818608E-02  0.1372848E+00
         -4   -1    0    0    0  501 -0.00000000000E+00  0.00000000000E+00  0.47073446571E+02  0.47073446571E+02  0.00000000000E+00 0. -1.
         21   -1    0    0  501  502  0.00000000000E+00 -0.00000000000E+00 -0.71297951052E+02  0.71297951052E+02  0.00000000000E+00 0. -1.
        -13    1    1    2    0    0  0.97154058363E+01  0.30303280532E+02 -0.13200064002E+02  0.34451861710E+02  0.10566000000E+00 0.  1.
         13    1    1    2    0    0 -0.35338674741E+02 -0.17573764429E+02  0.17809466385E+02  0.43299507914E+02  0.10566000000E+00 0. -1.
         -4    1    1    2    0  502  0.25623268904E+02 -0.12729516103E+02 -0.28833906865E+02  0.40620027999E+02  0.00000000000E+00 0. -1.
</event>
<event>
 5    1  0.6336319E-005  0.2795101E+03  0.7818608E-02  0.1016141E+00
         -4   -1    0    0    0  501 -0.00000000000E+00  0.00000000000E+00  0.89530534051E+03  0.89530534051E+03  0.00000000000E+00 0. -1.
         21   -1    0    0  501  502  0.00000000000E+00 -0.00000000000E+00 -0.16999969972E+03  0.16999969972E+03  0.00000000000E+00 0. -1.
        -13    1    1    2    0    0  0.17315456546E+03  0.18398106181E+03  0.39510285867E+03  0.46897528158E+03  0.10566000000E+00 0.  1.
         13    1    1    2    0    0 -0.22534030072E+03 -0.22941886793E+03  0.38957547232E+03  0.50515376658E+03  0.10566000000E+00 0. -1.
         -4    1    1    2    0  502  0.52185735259E+02  0.45437806114E+02 -0.59372690197E+02  0.91175992072E+02  0.00000000000E+00 0. -1.
</event>
<event>
 5    1  0.6336319E-005  0.1165836E+03  0.7818608E-02  0.1164612E+00
         -4   -1    0    0    0  501 -0.00000000000E+00  0.00000000000E+00  0.13552874312E+03  0.13552874312E+03  0.00000000000E+00 0. -1.
         21   -1    0    0  501  502  0.00000000000E+00 -0.00000000000E+00 -0.30279965872E+03  0.30279965872E+03  0.00000000000E+00 0. -1.
        -13    1    1    2    0    0  0.47025019803E+02  0.41958016183E+02 -0.91410289260E+02  0.11103008491E+03  0.10566000000E+00 0.  1.
         13    1    1    2    0    0 -0.14787524959E+03 -0.76977775813E+02  0.38240963359E+02  0.17104107651E+03  0.10566000000E+00 0. -1.
         -4    1    1    2    0  502  0.10085022979E+03  0.35019759630E+02 -0.11410158970E+03  0.15625724042E+03  0.00000000000E+00 0. -1.
</event>
<event>
 5    1  0.1591965E-004  0.3820902E+03  0.7818608E-02  0.1049472E+00
         21   -1    0    0  501  502  0.00000000000E+00  0.00000000000E+00  0.16935589953E+04  0.16935589953E+04  0.00000000000E+00 0.  1.
          4   -1    0    0  502    0 -0.00000000000E+00 -0.00000000000E+00 -0.17300867192E+03  0.17300867192E+03  0.00000000000E+00 0.  1.
        -13    1    1    2    0    0  0.13921276897E+03 -0.32115774684E+03  0.13912352400E+03  0.37666677515E+03  0.10566000000E+00 0.  1.
         13    1    1    2    0    0  0.14292073045E+02 -0.36582072616E+02 -0.13611068885E+02  0.41566618205E+02  0.10566000000E+00 0. -1.
          4    1    1    2  501    0 -0.15350484202E+03  0.35773981946E+03  0.13950378682E+04  0.14483342738E+04  0.00000000000E+00 0.  1.
</event>
<event>
 5    1  0.6336319E-005  0.4945137E+03  0.7818608E-02  0.9809122E-01
          4   -1    0    0  502    0 -0.00000000000E+00  0.00000000000E+00  0.37526661945E+04  0.37526661945E+04  0.00000000000E+00 0.  1.
         21   -1    0    0  501  502  0.00000000000E+00 -0.00000000000E+00 -0.90662515363E+02  0.90662515363E+02  0.00000000000E+00 0.  1.
        -13    1    1    2    0    0 -0.21188049963E+02  0.53839545353E+03  0.14208368100E+04  0.15195709426E+04  0.10566000000E+00 0.  1.
         13    1    1    2    0    0  0.12662195347E+03 -0.99087283939E+02  0.52040959354E+03  0.54468115916E+03  0.10566000000E+00 0. -1.
          4    1    1    2  501    0 -0.10543390351E+03 -0.43930816959E+03  0.17207572757E+04  0.17790766082E+04  0.00000000000E+00 0.  1.
</event>
<event>
 5    1  0.6336319E-005  0.4661927E+03  0.7818608E-02  0.9617768E-01
         -4   -1    0    0    0  501 -0.00000000000E+00  0.00000000000E+00  0.17699848682E+04  0.17699848682E+04  0.00000000000E+00 0. -1.
         21   -1    0    0  501  502  0.00000000000E+00 -0.00000000000E+00 -0.37905235763E+03  0.37905235763E+03  0.00000000000E+00 0. -1.
        -13    1    1    2    0    0  0.35826581329E+03  0.10410290008E+03  0.89615576936E+03  0.97071467532E+03  0.10566000000E+00 0.  1.
         13    1    1    2    0    0 -0.55622932841E+03  0.27579698231E+03  0.40311529191E+03  0.74024117082E+03  0.10566000000E+00 0. -1.
         -4    1    1    2    0  502  0.19796351513E+03 -0.37989988239E+03  0.91661449343E+02  0.43808137972E+03  0.00000000000E+00 0. -1.
</event>
<event>
 5    1  0.6336319E-005  0.4926500E+03  0.7818608E-02  0.9695784E-01
         21   -1    0    0  501  502  0.00000000000E+00  0.00000000000E+00  0.54465390712E+03  0.54465390712E+03  0.00000000000E+00 0.  1.
          4   -1    0    0  502    0 -0.00000000000E+00 -0.00000000000E+00 -0.75424376486E+03  0.75424376486E+03  0.00000000000E+00 0.  1.
        -13    1    1    2    0    0 -0.26936300608E+03  0.28539885587E+03 -0.12612437694E+03  0.41220905570E+03  0.10566000000E+00 0.  1.
         13    1    1    2    0    0 -0.21963434660E+02  0.23932428912E+03 -0.14928128449E+03  0.28291946007E+03  0.10566000000E+00 0. -1.
          4    1    1    2  501    0  0.29132644074E+03 -0.52472314499E+03  0.65815803700E+02  0.60376915620E+03  0.00000000000E+00 0.  1.
</event>
<event>
 5    1  0.6336319E-005  0.3064712E+03  0.7818608E-02  0.1004669E+00
         21   -1    0    0  501  502  0.00000000000E+00  0.00000000000E+00  0.10250881563E+03  0.10250881563E+03  0.00000000000E+00 0.  1.
         -4   -1    0    0    0  501 -0.00000000000E+00 -0.00000000000E+00 -0.20516471414E+04  0.20516471414E+04  0.00000000000E+00 0. -1.
        -13    1    1    2    0    0 -0.80989893827E+02 -0.29225238392E+03 -0.12806621899E+04  0.13160799651E+04  0.10566000000E+00 0.  1.
         13    1    1    2    0    0  0.11076709301E+03  0.29299160507E+03 -0.71626734559E+03  0.78176233669E+03  0.10566000000E+00 0. -1.
         -4    1    1    2    0  502 -0.29777199181E+02 -0.73922114932E+00  0.47791209708E+02  0.56313655220E+02  0.00000000000E+00 0. -1.
</event>
<event>
 5    1  0.6336319E-005  0.1739953E+03  0.7818608E-02  0.1079590E+00
         21   -1    0    0  501  502  0.00000000000E+00  0.00000000000E+00  0.54947733134E+03  0.54947733134E+03  0.00000000000E+00 0.  1.
          4   -1    0    0  502    0 -0.00000000000E+00 -0.00000000000E+00 -0.22792727797E+03  0.22792727797E+03  0.00000000000E+00 0.  1.
        -13    1    1    2    0    0  0.30231946655E+03  0.16081063459E+02  0.34980025636E+03  0.46261851559E+03  0.10566000000E+00 0.  1.
         13    1    1    2    0    0 -0.15240917974E+03 -0.33322811730E+02 -0.46490133245E+02  0.16278916274E+03  0.10566000000E+00 0. -1.
          4    1    1    2  501    0 -0.14991028680E+03  0.17241748271E+02  0.18239930255E+02  0.15199693098E+03  0.00000000000E+00 0.  1.
</event>
<event>
 5    1  0.1325928E-004  0.1329783E+04  0.7818608E-02  0.8514757E-01
          4   -1    0    0  502    0 -0.00000000000E+00  0.00000000000E+00  0.18183445252E+04  0.18183445252E+04  0.00000000000E+00 0.  1.
         21   -1    0    0  501  502  0.00000000000E+00 -0.00000000000E+00 -0.12206539913E+04  0.12206539913E+04  0.00000000000E+00 0. -1.
        -13    1    1    2    0    0  0.13490213340E+04 -0.51867365045E+02  0.23439222217E+03  0.13702147672E+04  0.10566000000E+00 0.  1.
         13    1    1    2    0    0 -0.13068909088E+04 -0.16385658194E+03  0.93006577093E+02  0.13204026134E+04  0.10566000000E+00 0. -1.
          4    1    1    2  501    0 -0.42130425199E+02  0.21572394699E+03  0.27029173467E+03  0.34838113592E+03  0.00000000000E+00 0.  1.
</event>
<event>
 5    1  0.6336319E-005  0.4973651E+03  0.7818608E-02  0.9653712E-01
          4   -1    0    0  502    0 -0.00000000000E+00  0.00000000000E+00  0.16409914987E+04  0.16409914987E+04  0.00000000000E+00 0.  1.
         21   -1    0    0  501  502  0.00000000000E+00 -0.00000000000E+00 -0.34204770938E+03  0.34204770938E+03  0.00000000000E+00 0.  1.
        -13    1    1    2    0    0  0.55524306892E+03 -0.25848182187E+03  0.24024615821E+03  0.65789508702E+03  0.10566000000E+00 0.  1.
         13    1    1    2    0    0 -0.14254717913E+03  0.23003888169E+03  0.78189145635E+03  0.82740065630E+03  0.10566000000E+00 0. -1.
          4    1    1    2  501    0 -0.41269588980E+03  0.28442940184E+02  0.27680617472E+03  0.49774346472E+03  0.00000000000E+00 0.  1.
</event>
<event>
 5    1  0.6336319E-005  0.2598017E+03  0.7818608E-02  0.1025435E+00
         21   -1    0    0  501  502  0.00000000000E+00  0.00000000000E+00  0.67823336686E+02  0.67823336686E+02  0.00000000000E+00 0. -1.
         -4   -1    0    0    0  501 -0.00000000000E+00 -0.00000000000E+00 -0.19971370873E+04  0.19971370873E+04  0.00000000000E+00 0. -1.
        -13    1    1    2    0    0  0.25439423170E+03  0.65066262122E+02 -0.10911320300E+04  0.11222830132E+04  0.10566000000E+00 0.  1.
         13    1    1    2    0    0 -0.25919694211E+03 -0.11220711665E+02 -0.84881813115E+03  0.88758165264E+03  0.10566000000E+00 0. -1.
         -4    1    1    2    0  502  0.48027104130E+01 -0.53845550457E+02  0.10636410603E+02  0.55095758111E+02  0.00000000000E+00 0. -1.
</event>
<event>
 5    1  0.6336319E-005  0.4683765E+03  0.7818608E-02  0.9550115E-01
          4   -1    0    0  502    0 -0.00000000000E+00  0.00000000000E+00  0.11040033938E+04  0.11040033938E+04  0.00000000000E+00 0.  1.
         21   -1    0    0  501  502  0.00000000000E+00 -0.00000000000E+00 -0.65857101736E+03  0.65857101736E+03  0.00000000000E+00 0.  1.
        -13    1    1    2    0    0  0.19180031579E+03 -0.63038445116E+03  0.62320014270E+02  0.66185777380E+03  0.10566000000E+00 0.  1.
         13    1    1    2    0    0 -0.36935958111E+03  0.24752216087E+03  0.49373194015E+03  0.66442829573E+03  0.10566000000E+00 0. -1.
          4    1    1    2  501    0  0.17755926532E+03  0.38286229029E+03 -0.11061957797E+03  0.43628834165E+03  0.00000000000E+00 0.  1.
</event>
<event>
 5    1  0.6336319E-005  0.3722357E+03  0.7818608E-02  0.9812843E-01
          4   -1    0    0  502    0 -0.00000000000E+00  0.00000000000E+00  0.32743953166E+04  0.32743953166E+04  0.00000000000E+00 0.  1.
         21   -1    0    0  501  502  0.00000000000E+00 -0.00000000000E+00 -0.49682761983E+02  0.49682761983E+02  0.00000000000E+00 0.  1.
        -13    1    1    2    0    0 -0.24721502423E+03 -0.28782602978E+03  0.18436377236E+04  0.18822749955E+04  0.10566000000E+00 0.  1.
         13    1    1    2    0    0  0.22782077131E+03  0.28330700823E+03  0.13729993753E+04  0.14203142119E+04  0.10566000000E+00 0. -1.
          4    1    1    2  501    0  0.19394252913E+02  0.45190215472E+01  0.80754557698E+01  0.21488871252E+02  0.00000000000E+00 0.  1.
</event>
<event>
 5    1  0.6336319E-005  0.3550724E+03  0.7818608E-02  0.1038100E+00
         -4   -1    0    0    0  501 -0.00000000000E+00  0.00000000000E+00  0.73715450024E+03  0.73715450024E+03  0.00000000000E+00 0. -1.
         21   -1    0    0  501  502  0.00000000000E+00 -0.00000000000E+00 -0.29649960641E+03  0.29649960641E+03  0.00000000000E+00 0. -1.
        -13    1    1    2    0    0  0.34200932060E+02  0.59816838155E+02  0.13056459681E+03  0.14763090119E+03  0.10566000000E+00 0.  1.
         13    1    1    2    0    0 -0.61093014503E+02 -0.36570515427E+03 -0.90135201078E+02  0.38157172578E+03  0.10566000000E+00 0. -1.
         -4    1    1    2    0  502  0.26892082443E+02  0.30588831611E+03  0.40022549810E+03  0.50445147969E+03  0.00000000000E+00 0. -1.
</event>
<event>
 5    1  0.6336319E-005  0.4706305E+03  0.7818608E-02  0.9544776E-01
         21   -1    0    0  501  502  0.00000000000E+00  0.00000000000E+00  0.70885220284E+03  0.70885220284E+03  0.00000000000E+00 0. -1.
         -4   -1    0    0    0  501 -0.00000000000E+00 -0.00000000000E+00 -0.15768826621E+04  0.15768826621E+04  0.00000000000E+00 0. -1.
        -13    1    1    2    0    0 -0.44715591876E+03 -0.59270663344E+02 -0.10946952597E+04  0.11839844382E+04  0.10566000000E+00 0.  1.
         13    1    1    2    0    0  0.67163763162E+03  0.27815636868E+03  0.28861586810E+03  0.78215548590E+03  0.10566000000E+00 0. -1.
         -4    1    1    2    0  502 -0.22448171286E+03 -0.21888570533E+03 -0.61951067653E+02  0.31959494081E+03  0.00000000000E+00 0. -1.
</event>
<event>
 5    1  0.6336319E-005  0.1158066E+03  0.7818608E-02  0.1140764E+00
         21   -1    0    0  501  502  0.00000000000E+00  0.00000000000E+00  0.99093746734E+02  0.99093746734E+02  0.00000000000E+00 0.  1.
          4   -1    0    0  502    0 -0.00000000000E+00 -0.00000000000E+00 -0.28488769170E+03  0.28488769170E+03  0.00000000000E+00 0.  1.
        -13    1    1    2    0    0  0.38739354417E+02  0.12183731470E+03 -0.20166863906E+03  0.23877880973E+03  0.10566000000E+00 0.  1.
         13    1    1    2    0    0 -0.16189071047E+02 -0.90458713901E+02 -0.18203051830E+02  0.93681520067E+02  0.10566000000E+00 0. -1.
          4    1    1    2  501    0 -0.22550283370E+02 -0.31378600796E+02  0.34077745922E+02  0.51521108636E+02  0.00000000000E+00 0.  1.
</event>
<event>
 5    1  0.6336319E-005  0.4195468E+03  0.7818608E-02  0.9859286E-01
         21   -1    0    0  501  502  0.00000000000E+00  0.00000000000E+00  0.58492073262E+03  0.58492073262E+03  0.00000000000E+00 0. -1.
         -4   -1    0    0    0  501 -0.00000000000E+00 -0.00000000000E+00 -0.75743108733E+03  0.75743108733E+03  0.00000000000E+00 0. -1.
        -13    1    1    2    0    0  0.68322347339E+02 -0.21134226184E+03 -0.16678631002E+03  0.27776101087E+03  0.10566000000E+00 0.  1.
         13    1    1    2    0    0 -0.46575522932E+03  0.25065465951E+03 -0.26180688000E+03  0.59016823496E+03  0.10566000000E+00 0. -1.
         -4    1    1    2    0  502  0.39743288198E+03 -0.39312397670E+02  0.25608283532E+03  0.47442257412E+03  0.00000000000E+00 0. -1.
</event>
<event>
 5    1  0.1175625E-004  0.3576258E+03  0.7818608E-02  0.1008926E+00
         -4   -1    0    0    0  501 -0.00000000000E+00  0.00000000000E+00  0.16311181329E+04  0.16311181329E+04  0.00000000000E+00 0. -1.
         21   -1    0    0  501  502  0.00000000000E+00 -0.00000000000E+00 -0.41654073651E+03  0.41654073651E+03  0.00000000000E+00 0. -1.
        -13    1    1    2    0    0 -0.52632356052E+02 -0.15962157972E+03  0.10067432390E+04  0.10206768216E+04  0.10566000000E+00 0.  1.
         13    1    1    2    0    0 -0.11579803799E+03 -0.18457908400E+03  0.49979693685E+03  0.54522987180E+03  0.10566000000E+00 0. -1.
         -4    1    1    2    0  502  0.16843039405E+03  0.34420066373E+03 -0.29196277946E+03  0.48175217606E+03  0.00000000000E+00 0. -1.
</event>
<event>
 5    1  0.6336319E-005  0.3878675E+03  0.7818608E-02  0.9843275E-01
         21   -1    0    0  501  502  0.00000000000E+00  0.00000000000E+00  0.48424480278E+03  0.48424480278E+03  0.00000000000E+00 0.  1.
          4   -1    0    0  502    0 -0.00000000000E+00 -0.00000000000E+00 -0.11186632375E+04  0.11186632375E+04  0.00000000000E+00 0.  1.
        -13    1    1    2    0    0  0.16596723990E+03  0.30297224699E+03 -0.45311119380E+03  0.56977809039E+03  0.10566000000E+00 0.  1.
         13    1    1    2    0    0 -0.28028718621E+03  0.97394973182E+02 -0.44895878229E+03  0.53815489119E+03  0.10566000000E+00 0. -1.
          4    1    1    2  501    0  0.11431994631E+03 -0.40036722017E+03  0.26765154139E+03  0.49497505868E+03  0.00000000000E+00 0.  1.
</event>
<event>
 5    1  0.6336319E-005  0.4426798E+03  0.7818608E-02  0.9635859E-01
          4   -1    0    0  502    0 -0.00000000000E+00  0.00000000000E+00  0.19039081446E+04  0.19039081446E+04  0.00000000000E+00 0.  1.
         21   -1    0    0  501  502  0.00000000000E+00 -0.00000000000E+00 -0.48495418894E+03  0.48495418894E+03  0.00000000000E+00 0.  1.
        -13    1    1    2    0    0 -0.33175019237E+03 -0.14180936418E+03 -0.22831565774E+02  0.36150985805E+03  0.10566000000E+00 0.  1.
         13    1    1    2    0    0 -0.16467056807E+03 -0.37409828791E+03  0.12062950580E+04  0.12736615340E+04  0.10566000000E+00 0. -1.
          4    1    1    2  501    0  0.49642076043E+03  0.51590765210E+03  0.23549046334E+03  0.75369094144E+03  0.00000000000E+00 0.  1.
</event>
<event>
 5    1  0.6336319E-005  0.5626683E+02  0.7818608E-02  0.1336346E+00
         21   -1    0    0  501  502  0.00000000000E+00  0.00000000000E+00  0.90316359781E+02  0.90316359781E+02  0.00000000000E+00 0. -1.
         -4   -1    0    0    0  501 -0.00000000000E+00 -0.00000000000E+00 -0.10390934318E+03  0.10390934318E+03  0.00000000000E+00 0. -1.
        -13    1    1    2    0    0 -0.15051953334E+02  0.21003723293E+00 -0.66199847273E+01  0.16445083662E+02  0.10566000000E+00 0.  1.
         13    1    1    2    0    0  0.64707792864E+02 -0.23138126104E+02 -0.67414552001E+02  0.96266319772E+02  0.10566000000E+00 0. -1.
         -4    1    1    2    0  502 -0.49655839530E+02  0.22928088871E+02  0.60441553328E+02  0.81514299527E+02  0.00000000000E+00 0. -1.
</event>
<event>
 5    1  0.6336319E-005  0.3465056E+02  0.7818608E-02  0.1371038E+00
          4   -1    0    0  502    0 -0.00000000000E+00  0.00000000000E+00  0.17206343365E+02  0.17206343365E+02  0.00000000000E+00 0.  1.
         21   -1    0    0  501  502  0.00000000000E+00 -0.00000000000E+00 -0.34154849428E+03  0.34154849428E+03  0.00000000000E+00 0. -1.
        -13    1    1    2    0    0  0.31366949378E+02  0.14487838361E+02 -0.60360297945E+01  0.35074603254E+02  0.10566000000E+00 0.  1.
         13    1    1    2    0    0 -0.24164039860E+02 -0.31824191057E+02 -0.21868108787E+03  0.22230184281E+03  0.10566000000E+00 0. -1.
          4    1    1    2  501    0 -0.72029095183E+01  0.17336352696E+02 -0.99625033245E+02  0.10137839158E+03  0.00000000000E+00 0.  1.
</event>
<event>
 5    1  0.6336319E-005  0.4956993E+03  0.7818608E-02  0.9678935E-01
         21   -1    0    0  501  502  0.00000000000E+00  0.00000000000E+00  0.45711034307E+03  0.45711034307E+03  0.00000000000E+00 0.  1.
          4   -1    0    0  502    0 -0.00000000000E+00 -0.00000000000E+00 -0.96304867005E+03  0.96304867005E+03  0.00000000000E+00 0.  1.
        -13    1    1    2    0    0  0.21931802351E+01  0.48528007754E+03 -0.25412213150E+03  0.54779524695E+03  0.10566000000E+00 0.  1.
         13    1    1    2    0    0 -0.24943742001E+03 -0.19743846901E+02 -0.23759892773E+03  0.34505377496E+03  0.10566000000E+00 0. -1.
          4    1    1    2  501    0  0.24724423977E+03 -0.46553623064E+03 -0.14217267746E+02  0.52730999122E+03  0.00000000000E+00 0.  1.
</event>
<event>
 5    1  0.6336319E-005  0.5120109E+03  0.7818608E-02  0.9573592E-01
         -4   -1    0    0    0  501 -0.00000000000E+00  0.00000000000E+00  0.11763490227E+04  0.11763490227E+04  0.00000000000E+00 0. -1.
         21   -1    0    0  501  502  0.00000000000E+00 -0.00000000000E+00 -0.94326925941E+03  0.94326925941E+03  0.00000000000E+00 0. -1.
        -13    1    1    2    0    0  0.55578285980E+03  0.33757193753E+03  0.57984517202E+03  0.87124613912E+03  0.10566000000E+00 0.  1.
         13    1    1    2    0    0 -0.25341817342E+03  0.75623832121E+02  0.31523298508E+03  0.41147488459E+03  0.10566000000E+00 0. -1.
         -4    1    1    2    0  502 -0.30236468638E+03 -0.41319576965E+03 -0.66199839384E+03  0.83689725837E+03  0.00000000000E+00 0. -1.
</event>
<event>
 5    1  0.6336319E-005  0.1687553E+03  0.7818608E-02  0.1096895E+00
         -4   -1    0    0    0  501 -0.00000000000E+00  0.00000000000E+00  0.13560461064E+04  0.13560461064E+04  0.00000000000E+00 0. -1.
         21   -1    0    0  501  502  0.00000000000E+00 -0.00000000000E+00 -0.23084628952E+03  0.23084628952E+03  0.00000000000E+00 0. -1.
        -13    1    1    2    0    0 -0.94764678023E+02  0.70503826695E+02  0.92467497308E+02  0.15000460993E+03  0.10566000000E+00 0.  1.
         13    1    1    2    0    0  0.19444074254E+03 -0.20245900278E+03  0.11815365256E+04  0.12144239056E+04  0.10566000000E+00 0. -1.
         -4    1    1    2    0  502 -0.99676064517E+02  0.13195517608E+03 -0.14880420601E+03  0.22246388035E+03  0.00000000000E+00 0. -1.
</event>
<event>
 5    1  0.6336319E-005  0.5042172E+03  0.7818608E-02  0.9915059E-01
         21   -1    0    0  501  502  0.00000000000E+00  0.00000000000E+00  0.37276911231E+03  0.37276911231E+03  0.00000000000E+00 0.  1.
          4   -1    0    0  502    0 -0.00000000000E+00 -0.00000000000E+00 -0.10774642068E+04  0.10774642068E+04  0.00000000000E+00 0.  1.
        -13    1    1    2    0    0  0.56544380079E+02  0.53767645739E+03 -0.21230438676E+03  0.58083250904E+03  0.10566000000E+00 0.  1.
         13    1    1    2    0    0  0.72895108152E+02 -0.77127171028E+02 -0.35667663296E+03  0.37212972062E+03  0.10566000000E+00 0. -1.
          4    1    1    2  501    0 -0.12943948823E+03 -0.46054928637E+03 -0.13571407472E+03  0.49727108941E+03  0.00000000000E+00 0.  1.
</event>
<event>
 5    1  0.6336319E-005  0.5074198E+03  0.7818608E-02  0.9668884E-01
         21   -1    0    0  501  502  0.00000000000E+00  0.00000000000E+00  0.10469174349E+04  0.10469174349E+04  0.00000000000E+00 0. -1.
         -4   -1    0    0    0  501 -0.00000000000E+00 -0.00000000000E+00 -0.52015047059E+03  0.52015047059E+03  0.00000000000E+00 0. -1.
        -13    1    1    2    0    0 -0.99692694879E+02  0.22010874110E+03 -0.18467306340E+03  0.30412274303E+03  0.10566000000E+00 0.  1.
         13    1    1    2    0    0  0.51613096649E+03  0.90202907136E+02  0.34487523801E+03  0.62726922448E+03  0.10566000000E+00 0. -1.
         -4    1    1    2    0  502 -0.41643827161E+03 -0.31031164823E+03  0.36656478973E+03  0.63567593800E+03  0.00000000000E+00 0. -1.
</event>
<event>
 5    1  0.6336319E-005  0.4359292E+02  0.7818608E-02  0.1320328E+00
          4   -1    0    0  502    0 -0.00000000000E+00  0.00000000000E+00  0.25402872499E+03  0.25402872499E+03  0.00000000000E+00 0.  1.
         21   -1    0    0  501  502  0.00000000000E+00 -0.00000000000E+00 -0.24323035007E+02  0.24323035007E+02  0.00000000000E+00 0.  1.
        -13    1    1    2    0    0 -0.28146345344E+02  0.44072412854E+02  0.10692981630E+03  0.11903189114E+03  0.10566000000E+00 0.  1.
         13    1    1    2    0    0  0.33187198607E+02 -0.23089307486E+02  0.13032931154E+03  0.13645602545E+03  0.10566000000E+00 0. -1.
          4    1    1    2  501    0 -0.50408532629E+01 -0.20983105368E+02 -0.75534378424E+01  0.22863843416E+02  0.00000000000E+00 0.  1.
</event>
<event>
 5    1  0.6336319E-005  0.2886161E+03  0.7818608E-02  0.1012118E+00
         -4   -1    0    0    0  501 -0.00000000000E+00  0.00000000000E+00  0.12819549172E+03  0.12819549172E+03  0.00000000000E+00 0. -1.
         21   -1    0    0  501  502  0.00000000000E+00 -0.00000000000E+00 -0.13466511613E+04  0.13466511613E+04  0.00000000000E+00 0.  1.
        -13    1    1    2    0    0  0.29844607020E+03 -0.86615061424E+02 -0.16251120186E+03  0.35068807733E+03  0.10566000000E+00 0.  1.
         13    1    1    2    0    0 -0.20828795014E+03  0.13944486057E+03 -0.50958341165E+03  0.56789435981E+03  0.10566000000E+00 0. -1.
         -4    1    1    2    0  502 -0.90158120060E+02 -0.52829799143E+02 -0.54636105610E+03  0.55626421592E+03  0.00000000000E+00 0. -1.
</event>
<event>
 5    1  0.6336319E-005  0.3170524E+02  0.7818608E-02  0.1391717E+00
         -4   -1    0    0    0  501 -0.00000000000E+00  0.00000000000E+00  0.42597654511E+02  0.42597654511E+02  0.00000000000E+00 0. -1.
         21   -1    0    0  501  502  0.00000000000E+00 -0.00000000000E+00 -0.69642629007E+02  0.69642629007E+02  0.00000000000E+00 0. -1.
        -13    1    1    2    0    0  0.24338853904E+02  0.27120652431E+01 -0.27733591473E+02  0.36998626559E+02  0.10566000000E+00 0.  1.
         13    1    1    2    0    0 -0.31476676617E+02 -0.11615090069E+02  0.29233418962E+02  0.44500510518E+02  0.10566000000E+00 0. -1.
         -4    1    1    2    0  502  0.71378227130E+01  0.89030248255E+01 -0.28544801985E+02  0.30741146441E+02  0.00000000000E+00 0. -1.
</event>
<event>
 5    1  0.6336319E-005  0.1173379E+02  0.7818608E-02  0.1684472E+00
         -4   -1    0    0    0  501 -0.00000000000E+00  0.00000000000E+00  0.21608056036E+02  0.21608056036E+02  0.00000000000E+00 0. -1.
         21   -1    0    0  501  502  0.00000000000E+00 -0.00000000000E+00 -0.22778404953E+02  0.22778404953E+02  0.00000000000E+00 0.  1.
        -13    1    1    2    0    0  0.64661180397E+01 -0.81839977474E+01 -0.10437952682E+02  0.14756372246E+02  0.10566000000E+00 0.  1.
         13    1    1    2    0    0  0.59806378231E+01  0.10845005154E+02  0.11270215833E+02  0.16745479823E+02  0.10566000000E+00 0. -1.
         -4    1    1    2    0  502 -0.12446755863E+02 -0.26610074063E+01 -0.20026120689E+01  0.12884608920E+02  0.00000000000E+00 0. -1.
</event>
<event>
 5    1  0.6336319E-005  0.5182604E+03  0.7818608E-02  0.9438823E-01
         21   -1    0    0  501  502  0.00000000000E+00  0.00000000000E+00  0.38490569284E+03  0.38490569284E+03  0.00000000000E+00 0. -1.
         -4   -1    0    0    0  501 -0.00000000000E+00 -0.00000000000E+00 -0.16465750741E+04  0.16465750741E+04  0.00000000000E+00 0. -1.
        -13    1    1    2    0    0  0.44029845104E+03  0.56925640265E+02 -0.61264213815E+03  0.75659345431E+03  0.10566000000E+00 0.  1.
         13    1    1    2    0    0 -0.74515631625E+03  0.10358461747E+03 -0.46224190888E+03  0.88298091832E+03  0.10566000000E+00 0. -1.
         -4    1    1    2    0  502  0.30485786521E+03 -0.16051025774E+03 -0.18678533423E+03  0.39190639431E+03  0.00000000000E+00 0. -1.
</event>
<event>
 5    1  0.6336319E-005  0.1482828E+03  0.7818608E-02  0.1102817E+00
         21   -1    0    0  501  502  0.00000000000E+00  0.00000000000E+00  0.96476061265E+03  0.96476061265E+03  0.00000000000E+00 0. -1.
         -4   -1    0    0    0  501 -0.00000000000E+00 -0.00000000000E+00 -0.55017683820E+02  0.55017683820E+02  0.00000000000E+00 0. -1.
        -13    1    1    2    0    0 -0.83498763953E+02 -0.12125400839E+03  0.16418875965E+03  0.22052786240E+03  0.10566000000E+00 0.  1.
         13    1    1    2    0    0  0.11655673099E+03  0.98163784641E+02  0.19624245636E+03  0.24846068702E+03  0.10566000000E+00 0. -1.
         -4    1    1    2    0  502 -0.33057967033E+02  0.23090223753E+02  0.54931171282E+03  0.55078974705E+03  0.00000000000E+00 0. -1.
</event>
<event>
 5    1  0.6336319E-005  0.1615420E+02  0.7818608E-02  0.1571688E+00
          4   -1    0    0  502    0 -0.00000000000E+00  0.00000000000E+00  0.10168365492E+03  0.10168365492E+03  0.00000000000E+00 0.  1.
         21   -1    0    0  501  502  0.00000000000E+00 -0.00000000000E+00 -0.11061469361E+02  0.11061469361E+02  0.00000000000E+00 0.  1.
        -13    1    1    2    0    0  0.17061004009E+02  0.38920930825E+01  0.79692109730E+02  0.81590868139E+02  0.10566000000E+00 0.  1.
         13    1    1    2    0    0 -0.12993257929E+02  0.59570754210E+01  0.14057861658E+02  0.20048594405E+02  0.10566000000E+00 0. -1.
          4    1    1    2  501    0 -0.40677460803E+01 -0.98491685035E+01 -0.31277858314E+01  0.11105661736E+02  0.00000000000E+00 0.  1.
</event>
<event>
 5    1  0.6336319E-005  0.4014819E+02  0.7818608E-02  0.1338071E+00
         21   -1    0    0  501  502  0.00000000000E+00  0.00000000000E+00  0.14604227505E+03  0.14604227505E+03  0.00000000000E+00 0.  1.
         -4   -1    0    0    0  501 -0.00000000000E+00 -0.00000000000E+00 -0.37827514036E+02  0.37827514036E+02  0.00000000000E+00 0. -1.
        -13    1    1    2    0    0 -0.24257511818E+02 -0.19496632083E+02  0.10686869412E+03  0.11130801628E+03  0.10566000000E+00 0.  1.
         13    1    1    2    0    0  0.37174163358E+02  0.17932906827E+02 -0.21298795466E+02  0.46445208805E+02  0.10566000000E+00 0. -1.
         -4    1    1    2    0  502 -0.12916651539E+02  0.15637252561E+01  0.22644862359E+02  0.26116563996E+02  0.00000000000E+00 0. -1.
</event>
<event>
 5    1  0.6336319E-005  0.2390189E+02  0.7818608E-02  0.1469866E+00
         -4   -1    0    0    0  501 -0.00000000000E+00  0.00000000000E+00  0.13670374144E+03  0.13670374144E+03  0.00000000000E+00 0. -1.
         21   -1    0    0  501  502  0.00000000000E+00 -0.00000000000E+00 -0.82973447558E+02  0.82973447558E+02  0.00000000000E+00 0.  1.
        -13    1    1    2    0    0  0.39144042186E+02  0.20099392140E+02 -0.52288535603E+02  0.68339913100E+02  0.10566000000E+00 0.  1.
         13    1    1    2    0    0 -0.20010817267E+02 -0.57738871219E+01  0.12122973118E+03  0.12300581070E+03  0.10566000000E+00 0. -1.
         -4    1    1    2    0  502 -0.19133224919E+02 -0.14325505018E+02 -0.15210901694E+02  0.28331465197E+02  0.00000000000E+00 0. -1.
</event>
<event>
 5    1  0.6336319E-005  0.5165733E+03  0.7818608E-02  0.9446014E-01
         21   -1    0    0  501  502  0.00000000000E+00  0.00000000000E+00  0.10500043242E+04  0.10500043242E+04  0.00000000000E+00 0.  1.
         -4   -1    0    0    0  501 -0.00000000000E+00 -0.00000000000E+00 -0.85261976581E+03  0.85261976581E+03  0.00000000000E+00 0. -1.
        -13    1    1    2    0    0  0.25676064808E+03 -0.46461788053E+03 -0.31419392057E+03  0.61685787358E+03  0.10566000000E+00 0.  1.
         13    1    1    2    0    0 -0.63226225800E+03  0.10483076405E+03  0.16825013475E+03  0.66261087448E+03  0.10566000000E+00 0. -1.
         -4    1    1    2    0  502  0.37550160992E+03  0.35978711648E+03  0.34332834416E+03  0.62315534190E+03  0.00000000000E+00 0. -1.
</event>
<event>
 5    1  0.6336319E-005  0.4443127E+03  0.7818608E-02  0.9793107E-01
         21   -1    0    0  501  502  0.00000000000E+00  0.00000000000E+00  0.39094458190E+03  0.39094458190E+03  0.00000000000E+00 0.  1.
          4   -1    0    0  502    0 -0.00000000000E+00 -0.00000000000E+00 -0.11038071915E+04  0.11038071915E+04  0.00000000000E+00 0.  1.
        -13    1    1    2    0    0  0.11351300314E+03  0.46866948841E+03 -0.45759221042E+03  0.66477585203E+03  0.10566000000E+00 0.  1.
         13    1    1    2    0    0  0.18803179814E+03 -0.13949660325E+03 -0.30087938658E+03  0.38123965673E+03  0.10566000000E+00 0. -1.
          4    1    1    2  501    0 -0.30154480128E+03 -0.32917288515E+03  0.45608987369E+02  0.44873626467E+03  0.00000000000E+00 0.  1.
</event>
<event>
 5    1  0.6336319E-005  0.4296013E+03  0.7818608E-02  0.9687088E-01
         21   -1    0    0  501  502  0.00000000000E+00  0.00000000000E+00  0.50074461744E+03  0.50074461744E+03  0.00000000000E+00 0. -1.
         -4   -1    0    0    0  501 -0.00000000000E+00 -0.00000000000E+00 -0.13717191645E+04  0.13717191645E+04  0.00000000000E+00 0. -1.
        -13    1    1    2    0    0  0.32522191535E+03 -0.32627389262E+03 -0.53583723104E+03  0.70664382581E+03  0.10566000000E+00 0.  1.
         13    1    1    2    0    0 -0.35879433558E+03 -0.20693406108E+03  0.15357780451E+03  0.44174793048E+03  0.10566000000E+00 0. -1.
         -4    1    1    2    0  502  0.33572420236E+02  0.53320795370E+03 -0.48871512052E+03  0.72407202564E+03  0.00000000000E+00 0. -1.
</event>
<event>
 5    1  0.6336319E-005  0.6414975E+03  0.7818608E-02  0.9212459E-01
          4   -1    0    0  502    0 -0.00000000000E+00  0.00000000000E+00  0.27056885286E+04  0.27056885286E+04  0.00000000000E+00 0.  1.
         21   -1    0    0  501  502  0.00000000000E+00 -0.00000000000E+00 -0.33776259850E+03  0.33776259850E+03  0.00000000000E+00 0.  1.
        -13    1    1    2    0    0  0.65511775878E+03 -0.12581359095E+03  0.11672933909E+04  0.13444635396E+04  0.10566000000E+00 0.  1.
         13    1    1    2    0    0 -0.52022221005E+03  0.39052862068E+03  0.12390357451E+04  0.13994117837E+04  0.10566000000E+00 0. -1.
          4    1    1    2  501    0 -0.13489554873E+03 -0.26471502973E+03 -0.38403205975E+02  0.29957580386E+03  0.00000000000E+00 0.  1.
</event>
<event>
 5    1  0.6336319E-005  0.6825293E+02  0.7818608E-02  0.1231388E+00
         -4   -1    0    0    0  501 -0.00000000000E+00  0.00000000000E+00  0.10197995654E+02  0.10197995654E+02  0.00000000000E+00 0. -1.
         21   -1    0    0  501  502  0.00000000000E+00 -0.00000000000E+00 -0.71337718282E+03  0.71337718282E+03  0.00000000000E+00 0. -1.
        -13    1    1    2    0    0  0.44296890277E+02 -0.39283201372E+02 -0.24999125075E+03  0.25690663871E+03  0.10566000000E+00 0.  1.
         13    1    1    2    0    0 -0.50744546881E+02  0.57690100079E+02 -0.22717936160E+03  0.23981999538E+03  0.10566000000E+00 0. -1.
         -4    1    1    2    0  502  0.64476566042E+01 -0.18406898707E+02 -0.22600857482E+03  0.22684854438E+03  0.00000000000E+00 0. -1.
</event>
<event>
 5    1  0.6336319E-005  0.4372786E+03  0.7818608E-02  0.9811777E-01
         21   -1    0    0  501  502  0.00000000000E+00  0.00000000000E+00  0.10983080334E+03  0.10983080334E+03  0.00000000000E+00 0. -1.
         -4   -1    0    0    0  501 -0.00000000000E+00 -0.00000000000E+00 -0.35517476310E+04  0.35517476310E+04  0.00000000000E+00 0. -1.
        -13    1    1    2    0    0 -0.24743731677E+02 -0.22911678561E+03 -0.66845073758E+03  0.70705951195E+03  0.10566000000E+00 0.  1.
         13    1    1    2    0    0  0.14570927703E+03  0.47503797334E+03 -0.67462924237E+03  0.83786448507E+03  0.10566000000E+00 0. -1.
         -4    1    1    2    0  502 -0.12096554535E+03 -0.24592118773E+03 -0.20988368477E+04  0.21166544373E+04  0.00000000000E+00 0. -1.
</event>
<event>
 5    1  0.6336319E-005  0.4478606E+03  0.7818608E-02  0.9957291E-01
         -4   -1    0    0    0  501 -0.00000000000E+00  0.00000000000E+00  0.60055133517E+03  0.60055133517E+03  0.00000000000E+00 0. -1.
         21   -1    0    0  501  502  0.00000000000E+00 -0.00000000000E+00 -0.70518669792E+03  0.70518669792E+03  0.00000000000E+00 0. -1.
        -13    1    1    2    0    0 -0.13003333079E+03 -0.20395708353E+02  0.21878841561E+03  0.25532926586E+03  0.10566000000E+00 0.  1.
         13    1    1    2    0    0  0.36861615268E+03  0.36740021973E+03 -0.16674933313E+01  0.52044556024E+03  0.10566000000E+00 0. -1.
         -4    1    1    2    0  502 -0.23858282189E+03 -0.34700451138E+03 -0.32175628502E+03  0.52996320700E+03  0.00000000000E+00 0. -1.
</event>
<event>
 5    1  0.6336319E-005  0.2691180E+03  0.7818608E-02  0.1020936E+00
         -4   -1    0    0    0  501 -0.00000000000E+00  0.00000000000E+00  0.57249262058E+03  0.57249262058E+03  0.00000000000E+00 0. -1.
         21   -1    0    0  501  502  0.00000000000E+00 -0.00000000000E+00 -0.23055669826E+03  0.23055669826E+03  0.00000000000E+00 0.  1.
        -13    1    1    2    0    0 -0.24400542612E+02  0.23715197547E+03  0.11849516757E+03  0.26622840166E+03  0.10566000000E+00 0.  1.
         13    1    1    2    0    0  0.95945364148E+02 -0.28171743672E+03  0.30027228132E+03  0.42276906361E+03  0.10566000000E+00 0. -1.
         -4    1    1    2    0  502 -0.71544821537E+02  0.44565461253E+02 -0.76831526573E+02  0.11405185356E+03  0.00000000000E+00 0. -1.
</event>
<event>
 5    1  0.6336319E-005  0.7201949E+03  0.7818608E-02  0.9094186E-01
          4   -1    0    0  502    0 -0.00000000000E+00  0.00000000000E+00  0.33332104402E+04  0.33332104402E+04  0.00000000000E+00 0.  1.
         21   -1    0    0  501  502  0.00000000000E+00 -0.00000000000E+00 -0.34632185004E+03  0.34632185004E+03  0.00000000000E+00 0. -1.
        -13    1    1    2    0    0 -0.55164856435E+02  0.70274008268E+03  0.12760461126E+04  0.14577998758E+04  0.10566000000E+00 0.  1.
         13    1    1    2    0    0  0.26033351517E+03 -0.69788935263E+03  0.18360072956E+04  0.19813495119E+04  0.10566000000E+00 0. -1.
          4    1    1    2  501    0 -0.20516865874E+03 -0.48507300453E+01 -0.12516481812E+03  0.24038290248E+03  0.00000000000E+00 0.  1.
</event>
<event>
 5    1  0.6336319E-005  0.4402369E+03  0.7818608E-02  0.9619560E-01
         -4   -1    0    0    0  501 -0.00000000000E+00  0.00000000000E+00  0.48136508640E+03  0.48136508640E+03  0.00000000000E+00 0. -1.
         21   -1    0    0  501  502  0.00000000000E+00 -0.00000000000E+00 -0.68383546643E+03  0.68383546643E+03  0.00000000000E+00 0.  1.
        -13    1    1    2    0    0 -0.20794198130E+02  0.42571133142E+03  0.77193891709E+02  0.43315291117E+03  0.10566000000E+00 0.  1.
         13    1    1    2    0    0  0.17583954778E+03 -0.45859224743E+03 -0.29480599407E+03  0.57283241989E+03  0.10566000000E+00 0. -1.
         -4    1    1    2    0  502 -0.15504534965E+03  0.32880916018E+02  0.15141722330E+02  0.15921522177E+03  0.00000000000E+00 0. -1.
</event>
<event>
 5    1  0.6336319E-005  0.4834329E+03  0.7818608E-02  0.9695356E-01
          4   -1    0    0  502    0 -0.00000000000E+00  0.00000000000E+00  0.22655504363E+04  0.22655504363E+04  0.00000000000E+00 0.  1.
         21   -1    0    0  501  502  0.00000000000E+00 -0.00000000000E+00 -0.24986155297E+03  0.24986155297E+03  0.00000000000E+00 0.  1.
        -13    1    1    2    0    0  0.39955599768E+03 -0.24852340282E+03  0.89273189091E+03  0.10091477182E+04  0.10566000000E+00 0.  1.
         13    1    1    2    0    0 -0.16033499901E+03 -0.19792706003E+03  0.92999985457E+03  0.96425213179E+03  0.10566000000E+00 0. -1.
          4    1    1    2  501    0 -0.23922099866E+03  0.44645046286E+03  0.19295713781E+03  0.54201213918E+03  0.00000000000E+00 0.  1.
</event>
<event>
 5    1  0.6336319E-005  0.3763871E+02  0.7818608E-02  0.1352321E+00
         21   -1    0    0  501  502  0.00000000000E+00  0.00000000000E+00  0.63574089644E+02  0.63574089644E+02  0.00000000000E+00 0.  1.
         -4   -1    0    0    0  501 -0.00000000000E+00 -0.00000000000E+00 -0.55995593572E+02  0.55995593572E+02  0.00000000000E+00 0. -1.
        -13    1    1    2    0    0 -0.23490704957E+02 -0.38704673934E+02  0.22407178900E+02  0.50516906417E+02  0.10566000000E+00 0.  1.
         13    1    1    2    0    0  0.21851017865E+02  0.28621817098E+02 -0.32587345339E+02  0.48565642547E+02  0.10566000000E+00 0. -1.
         -4    1    1    2    0  502  0.16396870916E+01  0.10082856836E+02  0.17758662510E+02  0.20487134253E+02  0.00000000000E+00 0. -1.
</event>
<event>
 5    1  0.6336319E-005  0.2354218E+03  0.7818608E-02  0.1038237E+00
         21   -1    0    0  501  502  0.00000000000E+00  0.00000000000E+00  0.73970477409E+03  0.73970477409E+03  0.00000000000E+00 0.  1.
         -4   -1    0    0    0  501 -0.00000000000E+00 -0.00000000000E+00 -0.24009964187E+03  0.24009964187E+03  0.00000000000E+00 0. -1.
        -13    1    1    2    0    0 -0.27063972860E+03 -0.10304506741E+03  0.47196361791E+03  0.55372720396E+03  0.10566000000E+00 0.  1.
         13    1    1    2    0    0  0.17977786938E+03  0.14257810922E+03 -0.11161885277E+03  0.25516147634E+03  0.10566000000E+00 0. -1.
         -4    1    1    2    0  502  0.90861859219E+02 -0.39533041816E+02  0.13926036708E+03  0.17091573566E+03  0.00000000000E+00 0. -1.
</event>
<event>
 5    1  0.6336319E-005  0.2974451E+03  0.7818608E-02  0.1026829E+00
         21   -1    0    0  501  502  0.00000000000E+00  0.00000000000E+00  0.25987814464E+03  0.25987814464E+03  0.00000000000E+00 0. -1.
         -4   -1    0    0    0  501 -0.00000000000E+00 -0.00000000000E+00 -0.10933812788E+04  0.10933812788E+04  0.00000000000E+00 0. -1.
        -13    1    1    2    0    0  0.68695642125E+02  0.15086141900E+03 -0.20400817405E+03  0.26286423346E+03  0.10566000000E+00 0.  1.
         13    1    1    2    0    0 -0.30648062836E+03 -0.11347989760E+02  0.90218998352E+02  0.31968520650E+03  0.10566000000E+00 0. -1.
         -4    1    1    2    0  502  0.23778498623E+03 -0.13951342924E+03 -0.71971395847E+03  0.77070998348E+03  0.00000000000E+00 0. -1.
</event>
<event>
 5    1  0.6336319E-005  0.1191063E+03  0.7818608E-02  0.1190276E+00
         21   -1    0    0  501  502  0.00000000000E+00  0.00000000000E+00  0.20128329261E+02  0.20128329261E+02  0.00000000000E+00 0. -1.
         -4   -1    0    0    0  501 -0.00000000000E+00 -0.00000000000E+00 -0.92934479915E+03  0.92934479915E+03  0.00000000000E+00 0. -1.
        -13    1    1    2    0    0  0.41733932312E+01  0.31940305067E+02 -0.11707291470E+03  0.12142355133E+03  0.10566000000E+00 0.  1.
         13    1    1    2    0    0 -0.11216825308E+03  0.28602386150E+02 -0.43095532748E+03  0.44623123931E+03  0.10566000000E+00 0. -1.
         -4    1    1    2    0  502  0.10799485985E+03 -0.60542691217E+02 -0.36118822771E+03  0.38181833776E+03  0.00000000000E+00 0. -1.
</event>
<event>
 5    1  0.6336319E-005  0.8954678E+02  0.7818608E-02  0.1183115E+00
         -4   -1    0    0    0  501 -0.00000000000E+00  0.00000000000E+00  0.62072297725E+03  0.62072297725E+03  0.00000000000E+00 0. -1.
         21   -1    0    0  501  502  0.00000000000E+00 -0.00000000000E+00 -0.53302718073E+02  0.53302718073E+02  0.00000000000E+00 0. -1.
        -13    1    1    2    0    0 -0.87661673215E+02 -0.13879202874E+02  0.41041553958E+03  0.41990252144E+03  0.10566000000E+00 0.  1.
         13    1    1    2    0    0  0.92432689237E+02 -0.35081394046E+01  0.19291279930E+03  0.21394267545E+03  0.10566000000E+00 0. -1.
         -4    1    1    2    0  502 -0.47710160212E+01  0.17387342279E+02 -0.35908079706E+02  0.40180498423E+02  0.00000000000E+00 0. -1.
</event>
<event>
 5    1  0.6336319E-005  0.3009135E+03  0.7818608E-02  0.1006929E+00
         -4   -1    0    0    0  501 -0.00000000000E+00  0.00000000000E+00  0.14843405022E+04  0.14843405022E+04  0.00000000000E+00 0. -1.
         21   -1    0    0  501  502  0.00000000000E+00 -0.00000000000E+00 -0.32262736683E+03  0.32262736683E+03  0.00000000000E+00 0. -1.
        -13    1    1    2    0    0  0.28286322517E+03 -0.12350458657E+02  0.45495084409E+03  0.53585858180E+03  0.10566000000E+00 0.  1.
         13    1    1    2    0    0 -0.39033318289E+03  0.26017651444E+03 -0.46000838431E+02  0.47134690052E+03  0.10566000000E+00 0. -1.
         -4    1    1    2    0  502  0.10746995771E+03 -0.24782605579E+03  0.75276312969E+03  0.79976238669E+03  0.00000000000E+00 0. -1.
</event>
<event>
 5    1  0.6336319E-005  0.8433289E+02  0.7818608E-02  0.1193453E+00
          4   -1    0    0  502    0 -0.00000000000E+00  0.00000000000E+00  0.54556340034E+03  0.54556340034E+03  0.00000000000E+00 0.  1.
         21   -1    0    0  501  502  0.00000000000E+00 -0.00000000000E+00 -0.33552488882E+02  0.33552488882E+02  0.00000000000E+00 0. -1.
        -13    1    1    2    0    0 -0.86540074674E+02  0.21845177282E+02  0.46417282231E+03  0.47267622791E+03  0.10566000000E+00 0.  1.
         13    1    1    2    0    0  0.64151989966E+02 -0.95171925908E+00  0.36292515023E+02  0.73712559288E+02  0.10566000000E+00 0. -1.
          4    1    1    2  501    0  0.22388084708E+02 -0.20893458023E+02  0.11545574126E+02  0.32727102025E+02  0.00000000000E+00 0.  1.
</event>
<event>
 5    1  0.6336319E-005  0.4940721E+03  0.7818608E-02  0.9697222E-01
         21   -1    0    0  501  502  0.00000000000E+00  0.00000000000E+00  0.40256523148E+03  0.40256523148E+03  0.00000000000E+00 0. -1.
         -4   -1    0    0    0  501 -0.00000000000E+00 -0.00000000000E+00 -0.15709437172E+04  0.15709437172E+04  0.00000000000E+00 0. -1.
        -13    1    1    2    0    0  0.21275721868E+03  0.10457730767E+03 -0.88192087185E+03  0.91322860377E+03  0.10566000000E+00 0.  1.
         13    1    1    2    0    0 -0.56376702509E+03 -0.20601932014E+03 -0.69763961055E+01  0.60027152199E+03  0.10566000000E+00 0. -1.
         -4    1    1    2    0  502  0.35100980641E+03  0.10144201248E+03 -0.27948121781E+03  0.46000882295E+03  0.00000000000E+00 0. -1.
</event>
<event>
 5    1  0.6336319E-005  0.6475617E+02  0.7818608E-02  0.1241197E+00
         -4   -1    0    0    0  501 -0.00000000000E+00  0.00000000000E+00  0.10096712748E+03  0.10096712748E+03  0.00000000000E+00 0. -1.
         21   -1    0    0  501  502  0.00000000000E+00 -0.00000000000E+00 -0.23655373450E+03  0.23655373450E+03  0.00000000000E+00 0. -1.
        -13    1    1    2    0    0  0.15543633744E+01 -0.37465196381E+02 -0.65100278658E+02  0.75127321467E+02  0.10566000000E+00 0.  1.
         13    1    1    2    0    0  0.64530343847E+01  0.69549124257E+02  0.81220948233E+02  0.10712411462E+03  0.10566000000E+00 0. -1.
         -4    1    1    2    0  502 -0.80073977591E+01 -0.32083927877E+02 -0.15170727659E+03  0.15526942590E+03  0.00000000000E+00 0. -1.
</event>
<event>
 5    1  0.6336319E-005  0.4223553E+03  0.7818608E-02  0.9803906E-01
         21   -1    0    0  501  502  0.00000000000E+00  0.00000000000E+00  0.34308489329E+03  0.34308489329E+03  0.00000000000E+00 0.  1.
          4   -1    0    0  502    0 -0.00000000000E+00 -0.00000000000E+00 -0.10795734531E+04  0.10795734531E+04  0.00000000000E+00 0.  1.
        -13    1    1    2    0    0 -0.45600082035E+03  0.45428369263E+00 -0.24982029431E+03  0.51994917554E+03  0.10566000000E+00 0.  1.
         13    1    1    2    0    0  0.99527201962E+02 -0.24312074876E+03 -0.37392599257E+03  0.45698361184E+03  0.10566000000E+00 0. -1.
          4    1    1    2  501    0  0.35647361839E+03  0.24266646507E+03 -0.11274227298E+03  0.44572555905E+03  0.00000000000E+00 0.  1.
</event>
<event>
 5    1  0.6336319E-005  0.1989618E+03  0.7818608E-02  0.1099049E+00
         -4   -1    0    0    0  501 -0.00000000000E+00  0.00000000000E+00  0.81184072780E+03  0.81184072780E+03  0.00000000000E+00 0. -1.
         21   -1    0    0  501  502  0.00000000000E+00 -0.00000000000E+00 -0.77777540628E+02  0.77777540628E+02  0.00000000000E+00 0. -1.
        -13    1    1    2    0    0 -0.12469180256E+02  0.66817493239E+02  0.51584993257E+02  0.85329247930E+02  0.10566000000E+00 0.  1.
         13    1    1    2    0    0  0.14156068913E+01 -0.22163915248E+03  0.20388746480E+03  0.30115781132E+03  0.10566000000E+00 0. -1.
         -4    1    1    2    0  502  0.11053573365E+02  0.15482165924E+03  0.47859072912E+03  0.50313120918E+03  0.00000000000E+00 0. -1.
</event>
<event>
 5    1  0.6336319E-005  0.1118217E+03  0.7818608E-02  0.1146352E+00
         -4   -1    0    0    0  501 -0.00000000000E+00  0.00000000000E+00  0.92573848492E+02  0.92573848492E+02  0.00000000000E+00 0. -1.
         21   -1    0    0  501  502  0.00000000000E+00 -0.00000000000E+00 -0.28798228918E+03  0.28798228918E+03  0.00000000000E+00 0.  1.
        -13    1    1    2    0    0 -0.10430932079E+03 -0.16139233608E+02 -0.52553206909E+02  0.11790996559E+03  0.10566000000E+00 0.  1.
         13    1    1    2    0    0  0.11458741013E+03  0.17817756635E+02  0.34061619294E+01  0.11601448235E+03  0.10566000000E+00 0. -1.
         -4    1    1    2    0  502 -0.10278089335E+02 -0.16785230270E+01 -0.14626139571E+03  0.14663168973E+03  0.00000000000E+00 0. -1.
</event>
<event>
 5    1  0.6336319E-005  0.4934237E+03  0.7818608E-02  0.9720737E-01
         21   -1    0    0  501  502  0.00000000000E+00  0.00000000000E+00  0.34637474400E+03  0.34637474400E+03  0.00000000000E+00 0. -1.
         -4   -1    0    0    0  501 -0.00000000000E+00 -0.00000000000E+00 -0.18564020214E+04  0.18564020214E+04  0.00000000000E+00 0. -1.
        -13    1    1    2    0    0  0.33519525923E+02  0.21674664994E+03 -0.10677446265E+04  0.10900372780E+04  0.10566000000E+00 0.  1.
         13    1    1    2    0    0 -0.49738971865E+03 -0.19345434779E+03 -0.11883487633E+03  0.54675666972E+03  0.10566000000E+00 0. -1.
         -4    1    1    2    0  502  0.46387019272E+03 -0.23292302153E+02 -0.32344777464E+03  0.56598281772E+03  0.00000000000E+00 0. -1.
</event>
<event>
 5    1  0.6336319E-005  0.4912835E+03  0.7818608E-02  0.9849759E-01
         21   -1    0    0  501  502  0.00000000000E+00  0.00000000000E+00  0.10477037018E+04  0.10477037018E+04  0.00000000000E+00 0.  1.
          4   -1    0    0  502    0 -0.00000000000E+00 -0.00000000000E+00 -0.31336122340E+03  0.31336122340E+03  0.00000000000E+00 0.  1.
        -13    1    1    2    0    0  0.41102114882E+03  0.17709598726E+03  0.16709877063E+03  0.47772731112E+03  0.10566000000E+00 0.  1.
         13    1    1    2    0    0  0.11964643908E+02  0.14235011445E+03  0.82017358473E+02  0.16472269438E+03  0.10566000000E+00 0. -1.
          4    1    1    2  501    0 -0.42298579273E+03 -0.31944610171E+03  0.48522634926E+03  0.71861491966E+03  0.00000000000E+00 0.  1.
</event>
<event>
 5    1  0.6336319E-005  0.2792288E+03  0.7818608E-02  0.1016268E+00
          4   -1    0    0  502    0 -0.00000000000E+00  0.00000000000E+00  0.19451064122E+04  0.19451064122E+04  0.00000000000E+00 0.  1.
         21   -1    0    0  501  502  0.00000000000E+00 -0.00000000000E+00 -0.62303233913E+02  0.62303233913E+02  0.00000000000E+00 0. -1.
        -13    1    1    2    0    0 -0.23329580567E+03  0.18364338757E+03  0.14507076720E+04  0.14807783722E+04  0.10566000000E+00 0.  1.
         13    1    1    2    0    0  0.18354528932E+03 -0.15246262386E+03  0.37669005369E+03  0.44590260441E+03  0.10566000000E+00 0. -1.
          4    1    1    2  501    0  0.49750516350E+02 -0.31180763711E+02  0.55405452519E+02  0.80728669452E+02  0.00000000000E+00 0.  1.
</event>
<event>
 5    1  0.6336319E-005  0.2325060E+03  0.7818608E-02  0.1039880E+00
         21   -1    0    0  501  502  0.00000000000E+00  0.00000000000E+00  0.12905719530E+04  0.12905719530E+04  0.00000000000E+00 0. -1.
         -4   -1    0    0    0  501 -0.00000000000E+00 -0.00000000000E+00 -0.52969278362E+03  0.52969278362E+03  0.00000000000E+00 0. -1.
        -13    1    1    2    0    0  0.17467124364E+03  0.15271436394E+03 -0.27794542617E+03  0.36205716593E+03  0.10566000000E+00 0.  1.
         13    1    1    2    0    0 -0.16711142848E+03 -0.18406425805E+03  0.12348094062E+04  0.12595872980E+04  0.10566000000E+00 0. -1.
         -4    1    1    2    0  502 -0.75598151540E+01  0.31349894107E+02 -0.19598481069E+03  0.19862027259E+03  0.00000000000E+00 0. -1.
</event>
<event>
 5    1  0.6336319E-005  0.2660011E+02  0.7818608E-02  0.1434485E+00
         21   -1    0    0  501  502  0.00000000000E+00  0.00000000000E+00  0.10259971916E+03  0.10259971916E+03  0.00000000000E+00 0.  1.
         -4   -1    0    0    0  501 -0.00000000000E+00 -0.00000000000E+00 -0.17161542379E+03  0.17161542379E+03  0.00000000000E+00 0. -1.
        -13    1    1    2    0    0  0.17217188188E+02  0.46279884836E+02  0.46810683484E+02  0.68040506772E+02  0.10566000000E+00 0.  1.
         13    1    1    2    0    0 -0.16835237019E+02 -0.20099200401E+02 -0.15601847417E+03  0.15820612665E+03  0.10566000000E+00 0. -1.
         -4    1    1    2    0  502 -0.38195116933E+00 -0.26180684435E+02  0.40192086058E+02  0.47968509523E+02  0.00000000000E+00 0. -1.
</event>
<event>
 5    1  0.6336319E-005  0.4907331E+03  0.7818608E-02  0.9767537E-01
         21   -1    0    0  501  502  0.00000000000E+00  0.00000000000E+00  0.35347068602E+03  0.35347068602E+03  0.00000000000E+00 0. -1.
          4   -1    0    0  502    0 -0.00000000000E+00 -0.00000000000E+00 -0.10757580290E+04  0.10757580290E+04  0.00000000000E+00 0.  1.
        -13    1    1    2    0    0 -0.90706098347E+02 -0.55212586382E+03 -0.13888481972E+03  0.57650634870E+03  0.10566000000E+00 0.  1.
         13    1    1    2    0    0  0.73010291481E+02  0.17507483313E+03 -0.44609545579E+02  0.19486334334E+03  0.10566000000E+00 0. -1.
          4    1    1    2  501    0  0.17695806867E+02  0.37705103069E+03 -0.53879297773E+03  0.65785902303E+03  0.00000000000E+00 0.  1.
</event>
<event>
 5    1  0.6336319E-005  0.3405455E+02  0.7818608E-02  0.1375029E+00
          4   -1    0    0  502    0 -0.00000000000E+00  0.00000000000E+00  0.10415522289E+03  0.10415522289E+03  0.00000000000E+00 0.  1.
         21   -1    0    0  501  502  0.00000000000E+00 -0.00000000000E+00 -0.11376673539E+03  0.11376673539E+03  0.00000000000E+00 0.  1.
        -13    1    1    2    0    0 -0.36183634733E+02 -0.20367829139E+02  0.47910169267E+02  0.63399521840E+02  0.10566000000E+00 0.  1.
         13    1    1    2    0    0  0.23882612600E+02  0.17707249516E+02  0.43516655500E+02  0.52703285856E+02  0.10566000000E+00 0. -1.
          4    1    1    2  501    0  0.12301022132E+02  0.26605796223E+01 -0.10103833726E+03  0.10181915058E+03  0.00000000000E+00 0.  1.
</event>
<event>
 5    1  0.6336319E-005  0.2787317E+03  0.7818608E-02  0.1016492E+00
          4   -1    0    0  502    0 -0.00000000000E+00  0.00000000000E+00  0.22596308442E+03  0.22596308442E+03  0.00000000000E+00 0.  1.
         21   -1    0    0  501  502  0.00000000000E+00 -0.00000000000E+00 -0.62063742526E+03  0.62063742526E+03  0.00000000000E+00 0.  1.
        -13    1    1    2    0    0 -0.27419817707E+03  0.11349617417E+03 -0.15549967591E+03  0.33503161378E+03  0.10566000000E+00 0.  1.
         13    1    1    2    0    0  0.27685059234E+03  0.40343178955E+02 -0.22120918064E+03  0.35666137348E+03  0.10566000000E+00 0. -1.
          4    1    1    2  501    0 -0.26524152650E+01 -0.15383935313E+03 -0.17965484286E+02  0.15490752242E+03  0.00000000000E+00 0.  1.
</event>
<event>
 5    1  0.6336319E-005  0.4876470E+03  0.7818608E-02  0.9682516E-01
         21   -1    0    0  501  502  0.00000000000E+00  0.00000000000E+00  0.55494732134E+03  0.55494732134E+03  0.00000000000E+00 0. -1.
         -4   -1    0    0    0  501 -0.00000000000E+00 -0.00000000000E+00 -0.14478180485E+04  0.14478180485E+04  0.00000000000E+00 0. -1.
        -13    1    1    2    0    0  0.18512680939E+03  0.18191667452E+03 -0.94601051206E+03  0.98096967951E+03  0.10566000000E+00 0.  1.
         13    1    1    2    0    0  0.16296430353E+03  0.30147019221E+03 -0.17392853601E+03  0.38430819379E+03  0.10566000000E+00 0. -1.
         -4    1    1    2    0  502 -0.34809111291E+03 -0.48338686673E+03  0.22706832094E+03  0.63748749650E+03  0.00000000000E+00 0. -1.
</event>
<event>
 5    1  0.6336319E-005  0.6015168E+03  0.7818608E-02  0.9279573E-01
         21   -1    0    0  501  502  0.00000000000E+00  0.00000000000E+00  0.10719960370E+04  0.10719960370E+04  0.00000000000E+00 0.  1.
          4   -1    0    0  502    0 -0.00000000000E+00 -0.00000000000E+00 -0.83579252113E+03  0.83579252113E+03  0.00000000000E+00 0.  1.
        -13    1    1    2    0    0 -0.30471317925E+03 -0.56989506344E+03  0.15658965972E+02  0.64643307413E+03  0.10566000000E+00 0.  1.
         13    1    1    2    0    0 -0.24968416693E+03  0.63405626577E+03  0.82365289990E+02  0.68640628169E+03  0.10566000000E+00 0. -1.
          4    1    1    2  501    0  0.55439734618E+03 -0.64161202332E+02  0.13817925988E+03  0.57494920228E+03  0.00000000000E+00 0.  1.
</event>
<event>
 5    1  0.6336319E-005  0.4812330E+03  0.7818608E-02  0.9750523E-01
         21   -1    0    0  501  502  0.00000000000E+00  0.00000000000E+00  0.22790308578E+03  0.22790308578E+03  0.00000000000E+00 0.  1.
          4   -1    0    0  502    0 -0.00000000000E+00 -0.00000000000E+00 -0.17190287311E+04  0.17190287311E+04  0.00000000000E+00 0.  1.
        -13    1    1    2    0    0  0.49743888579E+03 -0.30612882081E+03 -0.73428606534E+03  0.93826240304E+03  0.10566000000E+00 0.  1.
         13    1    1    2    0    0 -0.80083015250E+02  0.19767153003E+03 -0.38108682760E+03  0.43670871808E+03  0.10566000000E+00 0. -1.
          4    1    1    2  501    0 -0.41735587054E+03  0.10845729078E+03 -0.37575275242E+03  0.57196069581E+03  0.00000000000E+00 0.  1.
</event>
<event>
 5    1  0.6336319E-005  0.1899652E+03  0.7818608E-02  0.1067242E+00
          4   -1    0    0  502    0 -0.00000000000E+00  0.00000000000E+00  0.31542599812E+03  0.31542599812E+03  0.00000000000E+00 0.  1.
         21   -1    0    0  501  502  0.00000000000E+00 -0.00000000000E+00 -0.43740686453E+03  0.43740686453E+03  0.00000000000E+00 0. -1.
        -13    1    1    2    0    0  0.15452140404E+03  0.10862821902E+03  0.25265982214E+03  0.31545831921E+03  0.10566000000E+00 0.  1.
         13    1    1    2    0    0 -0.16282120790E+03 -0.12225010147E+03 -0.36698104091E+03  0.41967955467E+03  0.10566000000E+00 0. -1.
          4    1    1    2  501    0  0.82998038679E+01  0.13621882451E+02 -0.76596476445E+01  0.17694988776E+02  0.00000000000E+00 0.  1.
</event>
<event>
 5    1  0.6336319E-005  0.4519833E+03  0.7818608E-02  0.9866534E-01
          4   -1    0    0  502    0 -0.00000000000E+00  0.00000000000E+00  0.92795870840E+03  0.92795870840E+03  0.00000000000E+00 0.  1.
         21   -1    0    0  501  502  0.00000000000E+00 -0.00000000000E+00 -0.36675068378E+03  0.36675068378E+03  0.00000000000E+00 0.  1.
        -13    1    1    2    0    0 -0.40541634072E+03 -0.27912282256E+03  0.45339132664E+03  0.66920524925E+03  0.10566000000E+00 0.  1.
         13    1    1    2    0    0 -0.23929936604E+02  0.17169429343E+03  0.23090682048E+02  0.17488499943E+03  0.10566000000E+00 0. -1.
          4    1    1    2  501    0  0.42934627732E+03  0.10742852913E+03  0.84726015926E+02  0.45061914350E+03  0.00000000000E+00 0.  1.
</event>
<event>
 5    1  0.6336319E-005  0.4806768E+03  0.7818608E-02  0.9592887E-01
         21   -1    0    0  501  502  0.00000000000E+00  0.00000000000E+00  0.33557802153E+03  0.33557802153E+03  0.00000000000E+00 0.  1.
          4   -1    0    0  502    0 -0.00000000000E+00 -0.00000000000E+00 -0.15934206174E+04  0.15934206174E+04  0.00000000000E+00 0.  1.
        -13    1    1    2    0    0 -0.94655434961E+02  0.40969440271E+03 -0.75378770449E+03  0.86313676181E+03  0.10566000000E+00 0.  1.
         13    1    1    2    0    0 -0.35861770419E+03 -0.98220531307E+02 -0.30519716935E+03  0.48103976330E+03  0.10566000000E+00 0. -1.
          4    1    1    2  501    0  0.45327313915E+03 -0.31147387141E+03 -0.19885772207E+03  0.58482211387E+03  0.00000000000E+00 0.  1.
</event>
<event>
 5    1  0.6336319E-005  0.4915360E+03  0.7818608E-02  0.9548687E-01
          4   -1    0    0  502    0 -0.00000000000E+00  0.00000000000E+00  0.10577508865E+04  0.10577508865E+04  0.00000000000E+00 0.  1.
         21   -1    0    0  501  502  0.00000000000E+00 -0.00000000000E+00 -0.73862580440E+03  0.73862580440E+03  0.00000000000E+00 0. -1.
        -13    1    1    2    0    0  0.11970325895E+03  0.33234047471E+02  0.61581052107E+03  0.62821650817E+03  0.10566000000E+00 0.  1.
         13    1    1    2    0    0  0.20671371682E+02  0.53956342510E+03 -0.15131337477E+03  0.56075996992E+03  0.10566000000E+00 0. -1.
          4    1    1    2  501    0 -0.14037463063E+03 -0.57279747257E+03 -0.14537206417E+03  0.60740021283E+03  0.00000000000E+00 0.  1.
</event>
<event>
 5    1  0.6336319E-005  0.6012777E+03  0.7818608E-02  0.9279991E-01
         21   -1    0    0  501  502  0.00000000000E+00  0.00000000000E+00  0.13289777308E+04  0.13289777308E+04  0.00000000000E+00 0. -1.
         -4   -1    0    0    0  501 -0.00000000000E+00 -0.00000000000E+00 -0.10953169540E+04  0.10953169540E+04  0.00000000000E+00 0. -1.
        -13    1    1    2    0    0  0.60719780578E+03 -0.15769870818E+03 -0.67342941879E+03  0.92036147853E+03  0.10566000000E+00 0.  1.
         13    1    1    2    0    0 -0.55643989988E+03 -0.35355313118E+03  0.35114477024E+03  0.74694567377E+03  0.10566000000E+00 0. -1.
         -4    1    1    2    0  502 -0.50757905909E+02  0.51125183937E+03  0.55594542535E+03  0.75698753241E+03  0.00000000000E+00 0. -1.
</event>
<event>
 5    1  0.6336319E-005  0.4757455E+02  0.7818608E-02  0.1301992E+00
         21   -1    0    0  501  502  0.00000000000E+00  0.00000000000E+00  0.36331696059E+03  0.36331696059E+03  0.00000000000E+00 0. -1.
         -4   -1    0    0    0  501 -0.00000000000E+00 -0.00000000000E+00 -0.57585326826E+02  0.57585326826E+02  0.00000000000E+00 0. -1.
        -13    1    1    2    0    0  0.62656523907E+02  0.27888667409E+02  0.19345334811E+03  0.20525064389E+03  0.10566000000E+00 0.  1.
         13    1    1    2    0    0 -0.42429962688E+02 -0.18919702491E+02 -0.40285741971E+02  0.61491536379E+02  0.10566000000E+00 0. -1.
         -4    1    1    2    0  502 -0.20226561219E+02 -0.89689649180E+01  0.15256402763E+03  0.15416010715E+03  0.00000000000E+00 0. -1.
</event>
<event>
 5    1  0.6336319E-005  0.5538631E+03  0.7818608E-02  0.9367134E-01
         21   -1    0    0  501  502  0.00000000000E+00  0.00000000000E+00  0.17481634134E+04  0.17481634134E+04  0.00000000000E+00 0.  1.
         -4   -1    0    0    0  501 -0.00000000000E+00 -0.00000000000E+00 -0.33831475907E+03  0.33831475907E+03  0.00000000000E+00 0. -1.
        -13    1    1    2    0    0 -0.16575052362E+03 -0.53242635931E+03  0.11394058653E+04  0.12685412099E+04  0.10566000000E+00 0.  1.
         13    1    1    2    0    0  0.10998042009E+03  0.54249019607E+03  0.12316856909E+02  0.55366327471E+03  0.10566000000E+00 0. -1.
         -4    1    1    2    0  502  0.55770103528E+02 -0.10063836757E+02  0.25812593209E+03  0.26427368783E+03  0.00000000000E+00 0. -1.
</event>
<event>
 5    1  0.6336319E-005  0.4937620E+03  0.7818608E-02  0.9752147E-01
          4   -1    0    0  502    0 -0.00000000000E+00  0.00000000000E+00  0.37012434076E+03  0.37012434076E+03  0.00000000000E+00 0.  1.
         21   -1    0    0  501  502  0.00000000000E+00 -0.00000000000E+00 -0.10028641981E+04  0.10028641981E+04  0.00000000000E+00 0.  1.
        -13    1    1    2    0    0  0.54101266304E+03 -0.39954021796E+02 -0.45578107823E+03  0.70853893884E+03  0.10566000000E+00 0.  1.
         13    1    1    2    0    0 -0.11405739502E+03  0.15982344507E+03 -0.68081341755E+02  0.20781651333E+03  0.10566000000E+00 0. -1.
          4    1    1    2  501    0 -0.42695526802E+03 -0.11986942327E+03 -0.10887743739E+03  0.45663308673E+03  0.00000000000E+00 0.  1.
</event>
<event>
 5    1  0.6336319E-005  0.1298135E+03  0.7818608E-02  0.1122921E+00
          4   -1    0    0  502    0 -0.00000000000E+00  0.00000000000E+00  0.30535211820E+02  0.30535211820E+02  0.00000000000E+00 0.  1.
         21   -1    0    0  501  502  0.00000000000E+00 -0.00000000000E+00 -0.12932505976E+04  0.12932505976E+04  0.00000000000E+00 0. -1.
        -13    1    1    2    0    0 -0.12353939052E+03 -0.66429018046E+01 -0.18117677080E+03  0.21938810951E+03  0.10566000000E+00 0.  1.
         13    1    1    2    0    0  0.14426230039E+03 -0.52566063460E+01 -0.45386916842E+03  0.47627353111E+03  0.10566000000E+00 0. -1.
          4    1    1    2  501    0 -0.20722909874E+02  0.11899508151E+02 -0.62766944659E+03  0.62812416883E+03  0.00000000000E+00 0.  1.
</event>
<event>
 5    1  0.6336319E-005  0.4511803E+03  0.7818608E-02  0.1000990E+00
          4   -1    0    0  502    0 -0.00000000000E+00  0.00000000000E+00  0.26918556547E+04  0.26918556547E+04  0.00000000000E+00 0.  1.
         21   -1    0    0  501  502  0.00000000000E+00 -0.00000000000E+00 -0.16952423218E+03  0.16952423218E+03  0.00000000000E+00 0.  1.
        -13    1    1    2    0    0  0.27150322624E+03 -0.27559095162E+03  0.19680850881E+04  0.20057475663E+04  0.10566000000E+00 0.  1.
         13    1    1    2    0    0  0.63106261656E+01 -0.10810347805E+03 -0.21141074541E+02  0.11033196348E+03  0.10566000000E+00 0. -1.
          4    1    1    2  501    0 -0.27781385241E+03  0.38369442967E+03  0.57538740904E+03  0.74530035719E+03  0.00000000000E+00 0.  1.
</event>
<event>
 5    1  0.6336319E-005  0.1107812E+03  0.7818608E-02  0.1147853E+00
          4   -1    0    0  502    0 -0.00000000000E+00  0.00000000000E+00  0.62527298307E+02  0.62527298307E+02  0.00000000000E+00 0.  1.
         21   -1    0    0  501  502  0.00000000000E+00 -0.00000000000E+00 -0.27250674238E+03  0.27250674238E+03  0.00000000000E+00 0. -1.
        -13    1    1    2    0    0  0.10116374648E+03 -0.69444912248E+02 -0.95266366937E+02  0.15534603720E+03  0.10566000000E+00 0.  1.
         13    1    1    2    0    0 -0.67934488409E+02  0.73872995858E+02 -0.10391995549E+03  0.14447035179E+03  0.10566000000E+00 0. -1.
          4    1    1    2  501    0 -0.33229258074E+02 -0.44280836097E+01 -0.10793121644E+02  0.35217651702E+02  0.00000000000E+00 0.  1.
</event>
<event>
 5    1  0.6336319E-005  0.1199662E+03  0.7818608E-02  0.1135189E+00
         21   -1    0    0  501  502  0.00000000000E+00  0.00000000000E+00  0.14662089698E+03  0.14662089698E+03  0.00000000000E+00 0. -1.
         -4   -1    0    0    0  501 -0.00000000000E+00 -0.00000000000E+00 -0.22647523360E+03  0.22647523360E+03  0.00000000000E+00 0. -1.
        -13    1    1    2    0    0 -0.69211248746E+02  0.10382134916E+03 -0.75080900560E+02  0.14562356364E+03  0.10566000000E+00 0.  1.
         13    1    1    2    0    0  0.69751069094E+02 -0.92792294897E+02 -0.86647924011E+02  0.14485681044E+03  0.10566000000E+00 0. -1.
         -4    1    1    2    0  502 -0.53982034815E+00 -0.11029054260E+02  0.81874487957E+02  0.82615756501E+02  0.00000000000E+00 0. -1.
</event>
<event>
 5    1  0.6336319E-005  0.4398965E+03  0.7818608E-02  0.9895667E-01
         21   -1    0    0  501  502  0.00000000000E+00  0.00000000000E+00  0.14705138412E+03  0.14705138412E+03  0.00000000000E+00 0.  1.
          4   -1    0    0  502    0 -0.00000000000E+00 -0.00000000000E+00 -0.25272576223E+04  0.25272576223E+04  0.00000000000E+00 0.  1.
        -13    1    1    2    0    0 -0.61232985502E+02  0.56444101549E+03 -0.14496925128E+04  0.15569044709E+04  0.10566000000E+00 0.  1.
         13    1    1    2    0    0  0.76507883333E+01 -0.17034203829E+03 -0.51379043520E+03  0.54134606957E+03  0.10566000000E+00 0. -1.
          4    1    1    2  501    0  0.53582197169E+02 -0.39409897720E+03 -0.41672329018E+03  0.57605846601E+03  0.00000000000E+00 0.  1.
</event>
<event>
 5    1  0.6336319E-005  0.2962773E+03  0.7818608E-02  0.1008854E+00
         -4   -1    0    0    0  501 -0.00000000000E+00  0.00000000000E+00  0.41877412090E+03  0.41877412090E+03  0.00000000000E+00 0. -1.
         21   -1    0    0  501  502  0.00000000000E+00 -0.00000000000E+00 -0.52664505983E+03  0.52664505983E+03  0.00000000000E+00 0.  1.
        -13    1    1    2    0    0 -0.80309523937E+02 -0.21445383499E+03 -0.23347200387E+03  0.32703096907E+03  0.10566000000E+00 0.  1.
         13    1    1    2    0    0  0.48224069460E+02  0.31006180407E+03  0.28885396542E+03  0.42649795747E+03  0.10566000000E+00 0. -1.
         -4    1    1    2    0  502  0.32085454477E+02 -0.95607969085E+02 -0.16325290048E+03  0.19189025420E+03  0.00000000000E+00 0. -1.
</event>
<event>
 5    1  0.6336319E-005  0.3698844E+03  0.7818608E-02  0.9820292E-01
         21   -1    0    0  501  502  0.00000000000E+00  0.00000000000E+00  0.77929972254E+03  0.77929972254E+03  0.00000000000E+00 0. -1.
         -4   -1    0    0    0  501 -0.00000000000E+00 -0.00000000000E+00 -0.53736984105E+03  0.53736984105E+03  0.00000000000E+00 0. -1.
        -13    1    1    2    0    0 -0.12563766158E+03 -0.34775879106E+03 -0.74419625913E+02  0.37717275969E+03  0.10566000000E+00 0.  1.
         13    1    1    2    0    0 -0.22196515843E+03  0.40199483745E+03 -0.10449584810E+02  0.45932296468E+03  0.10566000000E+00 0. -1.
         -4    1    1    2    0  502  0.34760282000E+03 -0.54236046395E+02  0.32679909222E+03  0.48017383923E+03  0.00000000000E+00 0. -1.
</event>
<event>
 5    1  0.6336319E-005  0.8228984E+02  0.7818608E-02  0.1197731E+00
         21   -1    0    0  501  502  0.00000000000E+00  0.00000000000E+00  0.41032528126E+03  0.41032528126E+03  0.00000000000E+00 0.  1.
          4   -1    0    0  502    0 -0.00000000000E+00 -0.00000000000E+00 -0.29709498046E+02  0.29709498046E+02  0.00000000000E+00 0.  1.
        -13    1    1    2    0    0 -0.25663286208E+02  0.88560789097E+02  0.28268185311E+03  0.29733929923E+03  0.10566000000E+00 0.  1.
         13    1    1    2    0    0  0.19380257040E+02 -0.77381519760E+02  0.52526616928E+02  0.95512044336E+02  0.10566000000E+00 0. -1.
          4    1    1    2  501    0  0.62830291679E+01 -0.11179269337E+02  0.45407313171E+02  0.47183435736E+02  0.00000000000E+00 0.  1.
</event>
<event>
 5    1  0.6336319E-005  0.4844502E+03  0.7818608E-02  0.9667003E-01
          4   -1    0    0  502    0 -0.00000000000E+00  0.00000000000E+00  0.28341625558E+04  0.28341625558E+04  0.00000000000E+00 0.  1.
         21   -1    0    0  501  502  0.00000000000E+00 -0.00000000000E+00 -0.17858854321E+03  0.17858854321E+03  0.00000000000E+00 0.  1.
        -13    1    1    2    0    0  0.50901234092E+03 -0.29507968837E+03  0.49551749604E+03  0.76922245530E+03  0.10566000000E+00 0.  1.
         13    1    1    2    0    0 -0.26607431492E+03  0.85568197096E+02  0.11640213532E+04  0.11971061688E+04  0.10566000000E+00 0. -1.
          4    1    1    2  501    0 -0.24293802600E+03  0.20951149127E+03  0.99603516331E+03  0.10464224749E+04  0.00000000000E+00 0.  1.
</event>
<event>
 5    1  0.6336319E-005  0.3966365E+03  0.7818608E-02  0.1006032E+00
         -4   -1    0    0    0  501 -0.00000000000E+00  0.00000000000E+00  0.17773744215E+04  0.17773744215E+04  0.00000000000E+00 0. -1.
         21   -1    0    0  501  502  0.00000000000E+00 -0.00000000000E+00 -0.22337591280E+03  0.22337591280E+03  0.00000000000E+00 0. -1.
        -13    1    1    2    0    0  0.11437100007E+03  0.72230185322E+02  0.57531367788E+03  0.59100233879E+03  0.10566000000E+00 0.  1.
         13    1    1    2    0    0 -0.18732659921E+03 -0.37447473419E+03  0.39664342166E+02  0.42058988638E+03  0.10566000000E+00 0. -1.
         -4    1    1    2    0  502  0.72955599137E+02  0.30224454887E+03  0.93902048869E+03  0.98915810918E+03  0.00000000000E+00 0. -1.
</event>
<event>
 5    1  0.6336319E-005  0.3226522E+03  0.7818608E-02  0.9983703E-01
         21   -1    0    0  501  502  0.00000000000E+00  0.00000000000E+00  0.15764493291E+03  0.15764493291E+03  0.00000000000E+00 0. -1.
         -4   -1    0    0    0  501 -0.00000000000E+00 -0.00000000000E+00 -0.31179867831E+04  0.31179867831E+04  0.00000000000E+00 0. -1.
        -13    1    1    2    0    0 -0.16533665620E+03  0.23071223793E+03 -0.11143785277E+04  0.11499581996E+04  0.10566000000E+00 0.  1.
         13    1    1    2    0    0  0.31415693367E+03 -0.20188229318E+03 -0.19206990175E+04  0.19566644491E+04  0.10566000000E+00 0. -1.
         -4    1    1    2    0  502 -0.14882027747E+03 -0.28829944750E+02  0.74735695089E+02  0.16900906728E+03  0.00000000000E+00 0. -1.
</event>
<event>
 5    1  0.6336319E-005  0.3271734E+03  0.7818608E-02  0.1007149E+00
         21   -1    0    0  501  502  0.00000000000E+00  0.00000000000E+00  0.16381810457E+03  0.16381810457E+03  0.00000000000E+00 0. -1.
         -4   -1    0    0    0  501 -0.00000000000E+00 -0.00000000000E+00 -0.24128345359E+04  0.24128345359E+04  0.00000000000E+00 0. -1.
        -13    1    1    2    0    0  0.17754563456E+03  0.15004667668E+03 -0.55381967346E+03  0.60062692198E+03  0.10566000000E+00 0.  1.
         13    1    1    2    0    0 -0.25208134653E+03  0.18128115389E+03 -0.15906767603E+04  0.16206975131E+04  0.10566000000E+00 0. -1.
         -4    1    1    2    0  502  0.74535711969E+02 -0.33132783057E+03 -0.10451999757E+03  0.35532820541E+03  0.00000000000E+00 0. -1.
</event>
<event>
 5    1  0.6336319E-005  0.5549775E+02  0.7818608E-02  0.1270891E+00
          4   -1    0    0  502    0 -0.00000000000E+00  0.00000000000E+00  0.93144884512E+02  0.93144884512E+02  0.00000000000E+00 0.  1.
         21   -1    0    0  501  502  0.00000000000E+00 -0.00000000000E+00 -0.22816941913E+03  0.22816941913E+03  0.00000000000E+00 0. -1.
        -13    1    1    2    0    0  0.25731086348E+02 -0.49625406711E+02  0.80265417616E+02  0.97812669041E+02  0.10566000000E+00 0.  1.
         13    1    1    2    0    0 -0.29193803370E+02  0.38412826463E+02 -0.16967574700E+03  0.17640207957E+03  0.10566000000E+00 0. -1.
          4    1    1    2  501    0  0.34627170223E+01  0.11212580248E+02 -0.45614205228E+02  0.47099555026E+02  0.00000000000E+00 0.  1.
</event>
<event>
 5    1  0.6336319E-005  0.4850008E+03  0.7818608E-02  0.9515282E-01
          4   -1    0    0  502    0 -0.00000000000E+00  0.00000000000E+00  0.12391618942E+04  0.12391618942E+04  0.00000000000E+00 0.  1.
         21   -1    0    0  501  502  0.00000000000E+00 -0.00000000000E+00 -0.60982590699E+03  0.60982590699E+03  0.00000000000E+00 0.  1.
        -13    1    1    2    0    0  0.35627478755E+03 -0.77385151618E+02  0.14137006701E+03  0.39103157538E+03  0.10566000000E+00 0.  1.
         13    1    1    2    0    0  0.47490906720E+03  0.57219975748E+02 -0.28473074010E+02  0.47919043692E+03  0.10566000000E+00 0. -1.
          4    1    1    2  501    0 -0.83118385475E+03  0.20165175870E+02  0.51643899416E+03  0.97876578884E+03  0.00000000000E+00 0.  1.
</event>
<event>
 5    1  0.6336319E-005  0.8785719E+02  0.7818608E-02  0.1186378E+00
         21   -1    0    0  501  502  0.00000000000E+00  0.00000000000E+00  0.53916026236E+03  0.53916026236E+03  0.00000000000E+00 0. -1.
          4   -1    0    0  502    0 -0.00000000000E+00 -0.00000000000E+00 -0.34147976628E+02  0.34147976628E+02  0.00000000000E+00 0.  1.
        -13    1    1    2    0    0  0.60348676193E+02 -0.67061914952E+02  0.44637563501E+02  0.10065677520E+03  0.10566000000E+00 0.  1.
         13    1    1    2    0    0 -0.43487925553E+02  0.66778982930E+02  0.26955666063E+03  0.28108973066E+03  0.10566000000E+00 0. -1.
          4    1    1    2  501    0 -0.16860750640E+02  0.28293202158E+00  0.19081806161E+03  0.19156173313E+03  0.00000000000E+00 0.  1.
</event>
<event>
 5    1  0.6336319E-005  0.3471051E+02  0.7818608E-02  0.1370642E+00
          4   -1    0    0  502    0 -0.00000000000E+00  0.00000000000E+00  0.52216385027E+02  0.52216385027E+02  0.00000000000E+00 0.  1.
         21   -1    0    0  501  502  0.00000000000E+00 -0.00000000000E+00 -0.10557870255E+03  0.10557870255E+03  0.00000000000E+00 0.  1.
        -13    1    1    2    0    0 -0.47876767604E+01 -0.31571850786E+02  0.27222686116E+02  0.41961761334E+02  0.10566000000E+00 0.  1.
         13    1    1    2    0    0  0.11108186290E+02  0.46523419496E+02 -0.17884276221E+02  0.51065437081E+02  0.10566000000E+00 0. -1.
          4    1    1    2  501    0 -0.63205095301E+01 -0.14951568711E+02 -0.62700727415E+02  0.64767889158E+02  0.00000000000E+00 0.  1.
</event>
<event>
 5    1  0.6336319E-005  0.4096159E+03  0.7818608E-02  0.1019757E+00
         -4   -1    0    0    0  501 -0.00000000000E+00  0.00000000000E+00  0.75138822011E+03  0.75138822011E+03  0.00000000000E+00 0. -1.
         21   -1    0    0  501  502  0.00000000000E+00 -0.00000000000E+00 -0.38473595686E+03  0.38473595686E+03  0.00000000000E+00 0. -1.
        -13    1    1    2    0    0 -0.74597351954E+02 -0.26623298622E+02  0.15923574009E+02  0.80790694522E+02  0.10566000000E+00 0.  1.
         13    1    1    2    0    0 -0.50867125520E+02  0.41561102048E+03  0.47010258934E+03  0.62953668715E+03  0.10566000000E+00 0. -1.
         -4    1    1    2    0  502  0.12546447747E+03 -0.38898772185E+03 -0.11937390010E+03  0.42579679530E+03  0.00000000000E+00 0. -1.
</event>
<event>
 5    1  0.6336319E-005  0.8366156E+03  0.7818608E-02  0.8945416E-01
         21   -1    0    0  501  502  0.00000000000E+00  0.00000000000E+00  0.36371558899E+03  0.36371558899E+03  0.00000000000E+00 0.  1.
         -4   -1    0    0    0  501 -0.00000000000E+00 -0.00000000000E+00 -0.30736456590E+04  0.30736456590E+04  0.00000000000E+00 0. -1.
        -13    1    1    2    0    0  0.96171535997E+02  0.75790113321E+03 -0.14401451731E+04  0.16302396213E+04  0.10566000000E+00 0.  1.
         13    1    1    2    0    0 -0.30187599141E+03 -0.94940092075E+03 -0.10720679420E+04  0.14634961244E+04  0.10566000000E+00 0. -1.
         -4    1    1    2    0  502  0.20570445541E+03  0.19149978754E+03 -0.19771695484E+03  0.34362550231E+03  0.00000000000E+00 0. -1.
</event>
<event>
 5    1  0.6336319E-005  0.4521467E+03  0.7818608E-02  0.9698783E-01
         -4   -1    0    0    0  501 -0.00000000000E+00  0.00000000000E+00  0.11434147848E+04  0.11434147848E+04  0.00000000000E+00 0. -1.
         21   -1    0    0  501  502  0.00000000000E+00 -0.00000000000E+00 -0.40197381796E+03  0.40197381796E+03  0.00000000000E+00 0. -1.
        -13    1    1    2    0    0  0.17182563965E+03  0.25518632896E+03  0.27193619023E+03  0.41060128549E+03  0.10566000000E+00 0.  1.
         13    1    1    2    0    0  0.52702150557E+02 -0.59629580390E+03  0.40148414844E+03  0.72078827338E+03  0.10566000000E+00 0. -1.
         -4    1    1    2    0  502 -0.22452779021E+03  0.34110947494E+03  0.68020628160E+02  0.41399904387E+03  0.00000000000E+00 0. -1.
</event>
<event>
 5    1  0.6336319E-005  0.4037331E+03  0.7818608E-02  0.9951628E-01
          4   -1    0    0  502    0 -0.00000000000E+00  0.00000000000E+00  0.16054649680E+04  0.16054649680E+04  0.00000000000E+00 0.  1.
         21   -1    0    0  501  502  0.00000000000E+00 -0.00000000000E+00 -0.22459339644E+03  0.22459339644E+03  0.00000000000E+00 0.  1.
        -13    1    1    2    0    0 -0.57399784257E+02 -0.25959408536E+03  0.10004009181E+04  0.10351259983E+04  0.10566000000E+00 0.  1.
         13    1    1    2    0    0  0.30845314437E+02 -0.18045177037E+03  0.29300323574E+03  0.34549266587E+03  0.10566000000E+00 0. -1.
          4    1    1    2  501    0  0.26554469820E+02  0.44004585573E+03  0.87467417796E+02  0.44943970028E+03  0.00000000000E+00 0.  1.
</event>
<event>
 5    1  0.6336319E-005  0.3594719E+03  0.7818608E-02  0.9854000E-01
         -4   -1    0    0    0  501 -0.00000000000E+00  0.00000000000E+00  0.18104612393E+04  0.18104612393E+04  0.00000000000E+00 0. -1.
         21   -1    0    0  501  502  0.00000000000E+00 -0.00000000000E+00 -0.34036693890E+03  0.34036693890E+03  0.00000000000E+00 0. -1.
        -13    1    1    2    0    0  0.36223986923E+03  0.24628423595E+03  0.53399239403E+03  0.69066745673E+03  0.10566000000E+00 0.  1.
         13    1    1    2    0    0 -0.30552888718E+02 -0.37319645942E+03  0.10273723219E+04  0.10934820416E+04  0.10566000000E+00 0. -1.
         -4    1    1    2    0  502 -0.33168698052E+03  0.12691222346E+03 -0.91270415544E+02  0.36667867986E+03  0.00000000000E+00 0. -1.
</event>
<event>
 5    1  0.6336319E-005  0.5926747E+03  0.7818608E-02  0.9411320E-01
         21   -1    0    0  501  502  0.00000000000E+00  0.00000000000E+00  0.35437836754E+03  0.35437836754E+03  0.00000000000E+00 0. -1.
          4   -1    0    0  502    0 -0.00000000000E+00 -0.00000000000E+00 -0.27716683221E+04  0.27716683221E+04  0.00000000000E+00 0.  1.
        -13    1    1    2    0    0  0.20022230681E+03  0.41353977130E+03 -0.53105681351E+03  0.70222892630E+03  0.10566000000E+00 0.  1.
         13    1    1    2    0    0  0.58203590433E+03 -0.45168551706E+03 -0.84857793058E+03  0.11237749400E+04  0.10566000000E+00 0. -1.
          4    1    1    2  501    0 -0.78225821114E+03  0.38145745758E+02 -0.10376552105E+04  0.13000428234E+04  0.00000000000E+00 0.  1.
</event>
<event>
 5    1  0.6336319E-005  0.4820798E+03  0.7818608E-02  0.9641371E-01
         21   -1    0    0  501  502  0.00000000000E+00  0.00000000000E+00  0.34985136214E+03  0.34985136214E+03  0.00000000000E+00 0. -1.
         -4   -1    0    0    0  501 -0.00000000000E+00 -0.00000000000E+00 -0.18698333748E+04  0.18698333748E+04  0.00000000000E+00 0. -1.
        -13    1    1    2    0    0  0.24369137503E+03  0.19224262161E+03 -0.98427960294E+03  0.10320605892E+04  0.10566000000E+00 0.  1.
         13    1    1    2    0    0  0.39757751176E+03 -0.80466576824E+02 -0.16006865800E+03  0.43607881659E+03  0.10566000000E+00 0. -1.
         -4    1    1    2    0  502 -0.64126888679E+03 -0.11177604479E+03 -0.37563375172E+03  0.75154533116E+03  0.00000000000E+00 0. -1.
</event>
<event>
 5    1  0.6336319E-005  0.4049800E+03  0.7818608E-02  0.9784911E-01
         21   -1    0    0  501  502  0.00000000000E+00  0.00000000000E+00  0.48269908974E+03  0.48269908974E+03  0.00000000000E+00 0.  1.
          4   -1    0    0  502    0 -0.00000000000E+00 -0.00000000000E+00 -0.11329323753E+04  0.11329323753E+04  0.00000000000E+00 0.  1.
        -13    1    1    2    0    0 -0.27587210720E+03  0.55438493732E+03 -0.31949211544E+03  0.69679502098E+03  0.10566000000E+00 0.  1.
         13    1    1    2    0    0  0.24903366776E+03 -0.19771415085E+03 -0.44178330371E+03  0.54431714259E+03  0.10566000000E+00 0. -1.
          4    1    1    2  501    0  0.26838439441E+02 -0.35667078647E+03  0.11104213358E+03  0.37451930149E+03  0.00000000000E+00 0.  1.
</event>
<event>
 5    1  0.6336319E-005  0.7651740E+02  0.7818608E-02  0.1210597E+00
         -4   -1    0    0    0  501 -0.00000000000E+00  0.00000000000E+00  0.37612474441E+03  0.37612474441E+03  0.00000000000E+00 0. -1.
         21   -1    0    0  501  502  0.00000000000E+00 -0.00000000000E+00 -0.12621124009E+03  0.12621124009E+03  0.00000000000E+00 0. -1.
        -13    1    1    2    0    0  0.35864738948E+02  0.67116228770E+02 -0.28748933129E+02  0.81347280128E+02  0.10566000000E+00 0.  1.
         13    1    1    2    0    0 -0.77079554131E+02 -0.15960450187E+02  0.32896326898E+03  0.33824966687E+03  0.10566000000E+00 0. -1.
         -4    1    1    2    0  502  0.41214815183E+02 -0.51155778583E+02 -0.50300831536E+02  0.82739037499E+02  0.00000000000E+00 0. -1.
</event>
<event>
 5    1  0.6336319E-005  0.3396883E+03  0.7818608E-02  0.9921515E-01
         21   -1    0    0  501  502  0.00000000000E+00  0.00000000000E+00  0.25827248611E+03  0.25827248611E+03  0.00000000000E+00 0. -1.
         -4   -1    0    0    0  501 -0.00000000000E+00 -0.00000000000E+00 -0.18828951847E+04  0.18828951847E+04  0.00000000000E+00 0. -1.
        -13    1    1    2    0    0  0.33191388171E+03  0.56298587996E+02 -0.40219224993E+03  0.52449496942E+03  0.10566000000E+00 0.  1.
         13    1    1    2    0    0 -0.36306125280E+03  0.18619853014E+03 -0.40850790470E+02  0.41006360989E+03  0.10566000000E+00 0. -1.
         -4    1    1    2    0  502  0.31147371088E+02 -0.24249711814E+03 -0.11815796582E+04  0.12066090915E+04  0.00000000000E+00 0. -1.
</event>
<event>
 5    1  0.6336319E-005  0.4979818E+03  0.7818608E-02  0.1020078E+00
         -4   -1    0    0    0  501 -0.00000000000E+00  0.00000000000E+00  0.26405221763E+03  0.26405221763E+03  0.00000000000E+00 0. -1.
         21   -1    0    0  501  502  0.00000000000E+00 -0.00000000000E+00 -0.12890672394E+04  0.12890672394E+04  0.00000000000E+00 0. -1.
        -13    1    1    2    0    0  0.63062070812E+01  0.43178309215E+02  0.62419743826E+02  0.76160161619E+02  0.10566000000E+00 0.  1.
         13    1    1    2    0    0 -0.48971251012E+03  0.83945073712E+02 -0.48735447996E+03  0.69597379137E+03  0.10566000000E+00 0. -1.
         -4    1    1    2    0  502  0.48340630304E+03 -0.12712338293E+03 -0.60008028560E+03  0.78098550401E+03  0.00000000000E+00 0. -1.
</event>
<event>
 5    1  0.6336319E-005  0.5826704E+03  0.7818608E-02  0.9335425E-01
         -4   -1    0    0    0  501 -0.00000000000E+00  0.00000000000E+00  0.15641343456E+04  0.15641343456E+04  0.00000000000E+00 0. -1.
         21   -1    0    0  501  502  0.00000000000E+00 -0.00000000000E+00 -0.63181439858E+03  0.63181439858E+03  0.00000000000E+00 0.  1.
        -13    1    1    2    0    0 -0.61747824982E+03 -0.29805572158E+03  0.66836661154E+03  0.95751268439E+03  0.10566000000E+00 0.  1.
         13    1    1    2    0    0  0.29968273380E+02  0.45325393849E+03 -0.17713679497E+03  0.48755993012E+03  0.10566000000E+00 0. -1.
         -4    1    1    2    0  502  0.58750997644E+03 -0.15519821691E+03  0.44109013046E+03  0.75087612969E+03  0.00000000000E+00 0. -1.
</event>
<event>
 5    1  0.6336319E-005  0.1843916E+03  0.7818608E-02  0.1071397E+00
         -4   -1    0    0    0  501 -0.00000000000E+00  0.00000000000E+00  0.13130463462E+03  0.13130463462E+03  0.00000000000E+00 0. -1.
         21   -1    0    0  501  502  0.00000000000E+00 -0.00000000000E+00 -0.47678406725E+03  0.47678406725E+03  0.00000000000E+00 0.  1.
        -13    1    1    2    0    0  0.15201201147E+03 -0.83561063679E+02 -0.25468982192E+03  0.30815096876E+03  0.10566000000E+00 0.  1.
         13    1    1    2    0    0 -0.15925196956E+03  0.99439367519E+02  0.19057612990E+02  0.18871296033E+03  0.10566000000E+00 0. -1.
         -4    1    1    2    0  502  0.72399580808E+01 -0.15878303840E+02 -0.10984722369E+03  0.11122477278E+03  0.00000000000E+00 0. -1.
</event>
<event>
 5    1  0.6336319E-005  0.7253930E+02  0.7818608E-02  0.1277332E+00
         -4   -1    0    0    0  501 -0.00000000000E+00  0.00000000000E+00  0.24151528063E+03  0.24151528063E+03  0.00000000000E+00 0. -1.
         21   -1    0    0  501  502  0.00000000000E+00 -0.00000000000E+00 -0.10169695501E+03  0.10169695501E+03  0.00000000000E+00 0. -1.
        -13    1    1    2    0    0  0.14675138056E+02 -0.16151441994E+02 -0.32778480683E+02  0.39378531148E+02  0.10566000000E+00 0.  1.
         13    1    1    2    0    0 -0.29587141209E+02 -0.56047238826E+02  0.21127839394E+03  0.22057937985E+03  0.10566000000E+00 0. -1.
         -4    1    1    2    0  502  0.14912003153E+02  0.72198680821E+02 -0.38681587631E+02  0.83254324644E+02  0.00000000000E+00 0. -1.
</event>
<event>
 5    1  0.6336319E-005  0.4669084E+03  0.7818608E-02  0.9855091E-01
         21   -1    0    0  501  502  0.00000000000E+00  0.00000000000E+00  0.29325166263E+03  0.29325166263E+03  0.00000000000E+00 0. -1.
         -4   -1    0    0    0  501 -0.00000000000E+00 -0.00000000000E+00 -0.12239058823E+04  0.12239058823E+04  0.00000000000E+00 0. -1.
        -13    1    1    2    0    0 -0.19021998099E+02 -0.16233176723E+03 -0.22181831625E+03  0.27553006307E+03  0.10566000000E+00 0.  1.
         13    1    1    2    0    0  0.16548946043E+03  0.55272138486E+03 -0.54488371156E+03  0.79359055003E+03  0.10566000000E+00 0. -1.
         -4    1    1    2    0  502 -0.14646746234E+03 -0.39038961763E+03 -0.16395219185E+03  0.44803693184E+03  0.00000000000E+00 0. -1.
</event>
<event>
 5    1  0.6336319E-005  0.1576010E+03  0.7818608E-02  0.1093848E+00
         21   -1    0    0  501  502  0.00000000000E+00  0.00000000000E+00  0.20661215926E+03  0.20661215926E+03  0.00000000000E+00 0.  1.
         -4   -1    0    0    0  501 -0.00000000000E+00 -0.00000000000E+00 -0.32088103720E+03  0.32088103720E+03  0.00000000000E+00 0. -1.
        -13    1    1    2    0    0  0.46544748782E+02 -0.14320650047E+03  0.11920751323E+03  0.19205456983E+03  0.10566000000E+00 0.  1.
         13    1    1    2    0    0 -0.42798527883E+02  0.15273444188E+03 -0.26136478106E+03  0.30573041011E+03  0.10566000000E+00 0. -1.
         -4    1    1    2    0  502 -0.37462208991E+01 -0.95279414085E+01  0.27888389888E+02  0.29708216524E+02  0.00000000000E+00 0. -1.
</event>
<event>
 5    1  0.6336319E-005  0.1339041E+03  0.7818608E-02  0.1118168E+00
         21   -1    0    0  501  502  0.00000000000E+00  0.00000000000E+00  0.93274499455E+02  0.93274499455E+02  0.00000000000E+00 0. -1.
         -4   -1    0    0    0  501 -0.00000000000E+00 -0.00000000000E+00 -0.48876924501E+03  0.48876924501E+03  0.00000000000E+00 0. -1.
        -13    1    1    2    0    0 -0.33638781641E+02 -0.12062237618E+03 -0.22767332014E+03  0.25983932946E+03  0.10566000000E+00 0.  1.
         13    1    1    2    0    0  0.11796718146E+03  0.11636107527E+03 -0.17046405676E+03  0.23772707366E+03  0.10566000000E+00 0. -1.
         -4    1    1    2    0  502 -0.84328399817E+02  0.42613009042E+01  0.26426313457E+01  0.84477341349E+02  0.00000000000E+00 0. -1.
</event>
<event>
 5    1  0.6336319E-005  0.4926345E+03  0.7818608E-02  0.1008155E+00
         -4   -1    0    0    0  501 -0.00000000000E+00  0.00000000000E+00  0.46391757419E+03  0.46391757419E+03  0.00000000000E+00 0. -1.
         21   -1    0    0  501  502  0.00000000000E+00 -0.00000000000E+00 -0.76466755826E+03  0.76466755826E+03  0.00000000000E+00 0. -1.
        -13    1    1    2    0    0 -0.62954849888E+02 -0.19541819252E+02  0.12741784978E+03  0.14345910717E+03  0.10566000000E+00 0.  1.
         13    1    1    2    0    0 -0.30966867112E+01  0.50012203596E+03 -0.30066868186E+03  0.58355231791E+03  0.10566000000E+00 0. -1.
         -4    1    1    2    0  502  0.66051536599E+02 -0.48058021670E+03 -0.12749915199E+03  0.50157370738E+03  0.00000000000E+00 0. -1.
</event>
<event>
 5    1  0.6336319E-005  0.7591306E+03  0.7818608E-02  0.9041347E-01
         21   -1    0    0  501  502  0.00000000000E+00  0.00000000000E+00  0.70391199774E+03  0.70391199774E+03  0.00000000000E+00 0. -1.
          4   -1    0    0  502    0 -0.00000000000E+00 -0.00000000000E+00 -0.18570777803E+04  0.18570777803E+04  0.00000000000E+00 0.  1.
        -13    1    1    2    0    0  0.53102062004E+03 -0.56279378104E+03 -0.12527236850E+04  0.14724253397E+04  0.10566000000E+00 0.  1.
         13    1    1    2    0    0 -0.69589037765E+03  0.28744740172E+03  0.13758066491E+03  0.76538740320E+03  0.10566000000E+00 0. -1.
          4    1    1    2  501    0  0.16486975761E+03  0.27534637933E+03 -0.38022762481E+02  0.32317703515E+03  0.00000000000E+00 0.  1.
</event>
<event>
 5    1  0.6336319E-005  0.4700832E+03  0.7818608E-02  0.9552628E-01
          4   -1    0    0  502    0 -0.00000000000E+00  0.00000000000E+00  0.11681483888E+04  0.11681483888E+04  0.00000000000E+00 0.  1.
         21   -1    0    0  501  502  0.00000000000E+00 -0.00000000000E+00 -0.54646616593E+03  0.54646616593E+03  0.00000000000E+00 0. -1.
        -13    1    1    2    0    0  0.18932817132E+03  0.43110304989E+03 -0.17539337335E+02  0.47117155644E+03  0.10566000000E+00 0.  1.
         13    1    1    2    0    0 -0.44439823445E+03  0.11535991694E+03  0.33236467103E+03  0.56680154104E+03  0.10566000000E+00 0. -1.
          4    1    1    2  501    0  0.25507006313E+03 -0.54646296683E+03  0.30685688917E+03  0.67664145723E+03  0.00000000000E+00 0.  1.
</event>
<event>
 5    1  0.6336319E-005  0.3259486E+02  0.7818608E-02  0.1388992E+00
         21   -1    0    0  501  502  0.00000000000E+00  0.00000000000E+00  0.16253068294E+03  0.16253068294E+03  0.00000000000E+00 0. -1.
         -4   -1    0    0    0  501 -0.00000000000E+00 -0.00000000000E+00 -0.34832619881E+02  0.34832619881E+02  0.00000000000E+00 0. -1.
        -13    1    1    2    0    0  0.16987521220E+02 -0.25402753256E+02  0.42279550703E+02  0.52167492961E+02  0.10566000000E+00 0.  1.
         13    1    1    2    0    0  0.31302387467E+01  0.49878121224E+02 -0.41896419445E+01  0.50151666324E+02  0.10566000000E+00 0. -1.
         -4    1    1    2    0  502 -0.20117759967E+02 -0.24475367967E+02  0.89608154301E+02  0.95044143536E+02  0.00000000000E+00 0. -1.
</event>
<event>
 5    1  0.6336319E-005  0.2643555E+03  0.7818608E-02  0.1023211E+00
         -4   -1    0    0    0  501 -0.00000000000E+00  0.00000000000E+00  0.96000620360E+03  0.96000620360E+03  0.00000000000E+00 0. -1.
         21   -1    0    0  501  502  0.00000000000E+00 -0.00000000000E+00 -0.13824982288E+03  0.13824982288E+03  0.00000000000E+00 0.  1.
        -13    1    1    2    0    0  0.52222016585E+02 -0.29939419704E+03  0.48126146786E+03  0.56918945514E+03  0.10566000000E+00 0.  1.
         13    1    1    2    0    0  0.78552835944E+01  0.23567731455E+03  0.36818028107E+03  0.43722103403E+03  0.10566000000E+00 0. -1.
         -4    1    1    2    0  502 -0.60077300180E+02  0.63716882492E+02 -0.27685368205E+02  0.91845537311E+02  0.00000000000E+00 0. -1.
</event>
<event>
 5    1  0.6336319E-005  0.7154768E+03  0.7818608E-02  0.9100824E-01
         21   -1    0    0  501  502  0.00000000000E+00  0.00000000000E+00  0.59330059966E+03  0.59330059966E+03  0.00000000000E+00 0. -1.
         -4   -1    0    0    0  501 -0.00000000000E+00 -0.00000000000E+00 -0.19309284671E+04  0.19309284671E+04  0.00000000000E+00 0. -1.
        -13    1    1    2    0    0 -0.53379140345E+03  0.48471749576E+03 -0.97202429073E+03  0.12102543311E+04  0.10566000000E+00 0.  1.
         13    1    1    2    0    0  0.26823945798E+03 -0.70839085890E+03 -0.53529145943E+03  0.92752734380E+03  0.10566000000E+00 0. -1.
         -4    1    1    2    0  502  0.26555194547E+03  0.22367336315E+03  0.16968788271E+03  0.38644739184E+03  0.00000000000E+00 0. -1.
</event>
<event>
 5    1  0.6336319E-005  0.2330506E+03  0.7818608E-02  0.1039571E+00
          4   -1    0    0  502    0 -0.00000000000E+00  0.00000000000E+00  0.65926695154E+02  0.65926695154E+02  0.00000000000E+00 0.  1.
         21   -1    0    0  501  502  0.00000000000E+00 -0.00000000000E+00 -0.12262256240E+04  0.12262256240E+04  0.00000000000E+00 0. -1.
        -13    1    1    2    0    0  0.21799116257E+03 -0.64363609582E+02 -0.27901997067E+03  0.35988189228E+03  0.10566000000E+00 0.  1.
         13    1    1    2    0    0 -0.22112051933E+03  0.11741631147E+03 -0.74797115084E+03  0.78875961352E+03  0.10566000000E+00 0. -1.
          4    1    1    2  501    0  0.31293567607E+01 -0.53052701892E+02 -0.13330780733E+03  0.14351081335E+03  0.00000000000E+00 0.  1.
</event>
<event>
 5    1  0.6336319E-005  0.4549002E+03  0.7818608E-02  0.9969077E-01
          4   -1    0    0  502    0 -0.00000000000E+00  0.00000000000E+00  0.45025987677E+03  0.45025987677E+03  0.00000000000E+00 0.  1.
         21   -1    0    0  501  502  0.00000000000E+00 -0.00000000000E+00 -0.76425167086E+03  0.76425167086E+03  0.00000000000E+00 0.  1.
        -13    1    1    2    0    0 -0.12446010016E+02  0.53519064578E+03 -0.47059158944E+02  0.53739976377E+03  0.10566000000E+00 0.  1.
         13    1    1    2    0    0 -0.34459126915E+02 -0.11579326895E+03  0.67735756874E+02  0.13850507747E+03  0.10566000000E+00 0. -1.
          4    1    1    2  501    0  0.46905136931E+02 -0.41939737682E+03 -0.33466839202E+03  0.53860670639E+03  0.00000000000E+00 0.  1.
</event>
<event>
 5    1  0.6336319E-005  0.5168299E+03  0.7818608E-02  0.9441828E-01
         21   -1    0    0  501  502  0.00000000000E+00  0.00000000000E+00  0.54097661073E+03  0.54097661073E+03  0.00000000000E+00 0. -1.
         -4   -1    0    0    0  501 -0.00000000000E+00 -0.00000000000E+00 -0.15124429838E+04  0.15124429838E+04  0.00000000000E+00 0. -1.
        -13    1    1    2    0    0  0.42481679084E+03 -0.17501423364E+03 -0.78738960614E+03  0.91163681956E+03  0.10566000000E+00 0.  1.
         13    1    1    2    0    0 -0.63796936032E+03  0.34253254797E+03 -0.36989168973E+03  0.81311335275E+03  0.10566000000E+00 0. -1.
         -4    1    1    2    0  502  0.21315256948E+03 -0.16751831433E+03  0.18581492285E+03  0.32866942217E+03  0.00000000000E+00 0. -1.
</event>
<event>
 5    1  0.6336319E-005  0.5209351E+03  0.7818608E-02  0.9540520E-01
         21   -1    0    0  501  502  0.00000000000E+00  0.00000000000E+00  0.47565491527E+03  0.47565491527E+03  0.00000000000E+00 0.  1.
          4   -1    0    0  502    0 -0.00000000000E+00 -0.00000000000E+00 -0.18581092337E+04  0.18581092337E+04  0.00000000000E+00 0.  1.
        -13    1    1    2    0    0 -0.44634156695E+03  0.22013943116E+03 -0.30207872529E+03  0.58218015337E+03  0.10566000000E+00 0.  1.
         13    1    1    2    0    0 -0.11978621495E+03 -0.33140815465E+03 -0.11191549730E+04  0.11733234708E+04  0.10566000000E+00 0. -1.
          4    1    1    2  501    0  0.56612778190E+03  0.11126872350E+03  0.38779379882E+02  0.57826052483E+03  0.00000000000E+00 0.  1.
</event>
<event>
 5    1  0.6336319E-005  0.4258643E+03  0.7818608E-02  0.9806671E-01
         -4   -1    0    0    0  501 -0.00000000000E+00  0.00000000000E+00  0.21191985678E+04  0.21191985678E+04  0.00000000000E+00 0. -1.
         21   -1    0    0  501  502  0.00000000000E+00 -0.00000000000E+00 -0.27294093655E+03  0.27294093655E+03  0.00000000000E+00 0. -1.
        -13    1    1    2    0    0 -0.16852455214E+03 -0.18985109974E+03  0.10833099181E+04  0.11126564404E+04  0.10566000000E+00 0.  1.
         13    1    1    2    0    0 -0.19428239399E+03  0.40100377305E+03  0.45046584973E+02  0.44786033604E+03  0.10566000000E+00 0. -1.
         -4    1    1    2    0  502  0.36280694613E+03 -0.21115267331E+03  0.71790112819E+03  0.83162272784E+03  0.00000000000E+00 0. -1.
</event>
<event>
 5    1  0.6336319E-005  0.4929989E+03  0.7818608E-02  0.9972029E-01
          4   -1    0    0  502    0 -0.00000000000E+00  0.00000000000E+00  0.18058886174E+04  0.18058886174E+04  0.00000000000E+00 0.  1.
         21   -1    0    0  501  502  0.00000000000E+00 -0.00000000000E+00 -0.19351658995E+03  0.19351658995E+03  0.00000000000E+00 0.  1.
        -13    1    1    2    0    0  0.98907127186E+02  0.46734177534E+03  0.46871938601E+03  0.66924496918E+03  0.10566000000E+00 0.  1.
         13    1    1    2    0    0  0.93056300389E+02  0.13231661485E+02  0.47727569692E+03  0.48644285784E+03  0.10566000000E+00 0. -1.
          4    1    1    2  501    0 -0.19196342758E+03 -0.48057343682E+03  0.66637694454E+03  0.84371738036E+03  0.00000000000E+00 0.  1.
</event>
<event>
 5    1  0.6336319E-005  0.3930896E+03  0.7818608E-02  0.9981896E-01
          4   -1    0    0  502    0 -0.00000000000E+00  0.00000000000E+00  0.14596452854E+04  0.14596452854E+04  0.00000000000E+00 0.  1.
         21   -1    0    0  501  502  0.00000000000E+00 -0.00000000000E+00 -0.27344527814E+03  0.27344527814E+03  0.00000000000E+00 0.  1.
        -13    1    1    2    0    0 -0.40200573510E+03  0.35077987196E+03  0.72572898116E+03  0.90074285725E+03  0.10566000000E+00 0.  1.
         13    1    1    2    0    0  0.10672774663E+03 -0.14431369785E+03  0.43566698301E+03  0.47119315205E+03  0.10566000000E+00 0. -1.
          4    1    1    2  501    0  0.29527798847E+03 -0.20646617411E+03  0.24804043118E+02  0.36115455428E+03  0.00000000000E+00 0.  1.
</event>
<event>
 5    1  0.6336319E-005  0.4191651E+03  0.7818608E-02  0.1006821E+00
          4   -1    0    0  502    0 -0.00000000000E+00  0.00000000000E+00  0.13920213749E+04  0.13920213749E+04  0.00000000000E+00 0.  1.
         21   -1    0    0  501  502  0.00000000000E+00 -0.00000000000E+00 -0.27015858575E+03  0.27015858575E+03  0.00000000000E+00 0.  1.
        -13    1    1    2    0    0  0.24834489148E+03  0.43776147061E+03  0.63231628548E+03  0.80816717722E+03  0.10566000000E+00 0.  1.
         13    1    1    2    0    0 -0.70214673892E+02 -0.86898017960E+02  0.44406338335E+03  0.45790137099E+03  0.10566000000E+00 0. -1.
          4    1    1    2  501    0 -0.17813021759E+03 -0.35086345265E+03  0.45483120296E+02  0.39611141243E+03  0.00000000000E+00 0.  1.
</event>
<event>
 5    1  0.6336319E-005  0.1720418E+03  0.7818608E-02  0.1094100E+00
         21   -1    0    0  501  502  0.00000000000E+00  0.00000000000E+00  0.98891517018E+03  0.98891517018E+03  0.00000000000E+00 0.  1.
          4   -1    0    0  502    0 -0.00000000000E+00 -0.00000000000E+00 -0.15261015459E+03  0.15261015459E+03  0.00000000000E+00 0.  1.
        -13    1    1    2    0    0  0.23563740192E+03 -0.83608318881E+02  0.32583526471E+03  0.41071153753E+03  0.10566000000E+00 0.  1.
         13    1    1    2    0    0 -0.79674646814E+02  0.90159544262E+02 -0.63463468113E+02  0.13603093661E+03  0.10566000000E+00 0. -1.
          4    1    1    2  501    0 -0.15596275511E+03 -0.65512253809E+01  0.57393321900E+03  0.59478285063E+03  0.00000000000E+00 0.  1.
</event>
<event>
 5    1  0.6336319E-005  0.3947963E+03  0.7818608E-02  0.9972809E-01
         21   -1    0    0  501  502  0.00000000000E+00  0.00000000000E+00  0.44285956864E+03  0.44285956864E+03  0.00000000000E+00 0. -1.
         -4   -1    0    0    0  501 -0.00000000000E+00 -0.00000000000E+00 -0.13256368668E+04  0.13256368668E+04  0.00000000000E+00 0. -1.
        -13    1    1    2    0    0  0.16864338044E+03 -0.69898242524E+02 -0.70132012912E+03  0.72469047789E+03  0.10566000000E+00 0.  1.
         13    1    1    2    0    0  0.32033127767E+03 -0.16577857866E+03  0.16835636741E+03  0.39804339237E+03  0.10566000000E+00 0. -1.
         -4    1    1    2    0  502 -0.48897465811E+03  0.23567682119E+03 -0.34981353645E+03  0.64576256519E+03  0.00000000000E+00 0. -1.
</event>
<event>
 5    1  0.6336319E-005  0.2063290E+03  0.7818608E-02  0.1087392E+00
          4   -1    0    0  502    0 -0.00000000000E+00  0.00000000000E+00  0.19454544267E+03  0.19454544267E+03  0.00000000000E+00 0.  1.
         21   -1    0    0  501  502  0.00000000000E+00 -0.00000000000E+00 -0.38303212327E+03  0.38303212327E+03  0.00000000000E+00 0.  1.
        -13    1    1    2    0    0 -0.18969303944E+03  0.15449681006E+03 -0.90368050401E+02  0.26080473391E+03  0.10566000000E+00 0.  1.
         13    1    1    2    0    0  0.16697931875E+02 -0.82238327409E+02  0.30641161215E+02  0.89335633140E+02  0.10566000000E+00 0. -1.
          4    1    1    2  501    0  0.17299510757E+03 -0.72258482647E+02 -0.12875979141E+03  0.22743719890E+03  0.00000000000E+00 0.  1.
</event>
<event>
 5    1  0.6336319E-005  0.2120206E+03  0.7818608E-02  0.1052194E+00
         21   -1    0    0  501  502  0.00000000000E+00  0.00000000000E+00  0.58172724350E+03  0.58172724350E+03  0.00000000000E+00 0. -1.
          4   -1    0    0  502    0 -0.00000000000E+00 -0.00000000000E+00 -0.44147843080E+03  0.44147843080E+03  0.00000000000E+00 0.  1.
        -13    1    1    2    0    0  0.20853094134E+03  0.21279917826E+02 -0.32788163815E+03  0.38915853864E+03  0.10566000000E+00 0.  1.
         13    1    1    2    0    0 -0.21273426567E+03 -0.14937818683E+03  0.17288897689E+03  0.31218635458E+03  0.10566000000E+00 0. -1.
          4    1    1    2  501    0  0.42033243338E+01  0.12809826900E+03  0.29524147395E+03  0.32186078108E+03  0.00000000000E+00 0.  1.
</event>
<event>
 5    1  0.6336319E-005  0.3394641E+03  0.7818608E-02  0.9922308E-01
         21   -1    0    0  501  502  0.00000000000E+00  0.00000000000E+00  0.10255656938E+03  0.10255656938E+03  0.00000000000E+00 0. -1.
          4   -1    0    0  502    0 -0.00000000000E+00 -0.00000000000E+00 -0.18004405174E+04  0.18004405174E+04  0.00000000000E+00 0.  1.
        -13    1    1    2    0    0  0.32590399368E+03  0.11504250915E+03 -0.13230923272E+04  0.13674872977E+04  0.10566000000E+00 0.  1.
         13    1    1    2    0    0 -0.29048931120E+03 -0.14395423442E+03 -0.36602517367E+03  0.48895940573E+03  0.10566000000E+00 0. -1.
          4    1    1    2  501    0 -0.35414682484E+02  0.28911725273E+02 -0.87664471848E+01  0.46550383349E+02  0.00000000000E+00 0.  1.
</event>
<event>
 5    1  0.6336319E-005  0.5671637E+03  0.7818608E-02  0.9341784E-01
         -4   -1    0    0    0  501 -0.00000000000E+00  0.00000000000E+00  0.88265827843E+03  0.88265827843E+03  0.00000000000E+00 0. -1.
         21   -1    0    0  501  502  0.00000000000E+00 -0.00000000000E+00 -0.12918830770E+04  0.12918830770E+04  0.00000000000E+00 0. -1.
        -13    1    1    2    0    0 -0.24796865366E+03 -0.54622741746E+03  0.40609624902E+03  0.72440804759E+03  0.10566000000E+00 0.  1.
         13    1    1    2    0    0 -0.26964796644E+03  0.52765434304E+03 -0.70430283088E+03  0.92041926331E+03  0.10566000000E+00 0. -1.
         -4    1    1    2    0  502  0.51761662010E+03  0.18573074420E+02 -0.11101821669E+03  0.52971404449E+03  0.00000000000E+00 0. -1.
</event>
<event>
 5    1  0.6336319E-005  0.3843689E+02  0.7818608E-02  0.1352198E+00
          4   -1    0    0  502    0 -0.00000000000E+00  0.00000000000E+00  0.34025967477E+03  0.34025967477E+03  0.00000000000E+00 0.  1.
         21   -1    0    0  501  502  0.00000000000E+00 -0.00000000000E+00 -0.88608293592E+02  0.88608293592E+02  0.00000000000E+00 0. -1.
        -13    1    1    2    0    0 -0.53145286305E+02  0.46635901430E+02  0.31676676930E+03  0.32456205271E+03  0.10566000000E+00 0.  1.
         13    1    1    2    0    0  0.20703083873E+02 -0.28739688350E+02 -0.55815385122E+02  0.66105640824E+02  0.10566000000E+00 0. -1.
          4    1    1    2  501    0  0.32442202432E+02 -0.17896213080E+02 -0.93000030039E+01  0.38200274831E+02  0.00000000000E+00 0.  1.
</event>
<event>
 5    1  0.6336319E-005  0.2138121E+03  0.7818608E-02  0.1051058E+00
         21   -1    0    0  501  502  0.00000000000E+00  0.00000000000E+00  0.13680655362E+04  0.13680655362E+04  0.00000000000E+00 0.  1.
         -4   -1    0    0    0  501 -0.00000000000E+00 -0.00000000000E+00 -0.82972286383E+02  0.82972286383E+02  0.00000000000E+00 0. -1.
        -13    1    1    2    0    0  0.20772125018E+03 -0.79009069648E+02  0.11164422552E+04  0.11383469907E+04  0.10566000000E+00 0.  1.
         13    1    1    2    0    0 -0.19419092387E+03  0.86707969201E+02  0.87344592442E+02  0.22990753756E+03  0.10566000000E+00 0. -1.
         -4    1    1    2    0  502 -0.13530326311E+02 -0.76988995522E+01  0.81306402117E+02  0.82783294266E+02  0.00000000000E+00 0. -1.
</event>
<event>
 5    1  0.6336319E-005  0.5061613E+03  0.7818608E-02  0.9464569E-01
         21   -1    0    0  501  502  0.00000000000E+00  0.00000000000E+00  0.13397086256E+03  0.13397086256E+03  0.00000000000E+00 0.  1.
         -4   -1    0    0    0  501 -0.00000000000E+00 -0.00000000000E+00 -0.30171837371E+04  0.30171837371E+04  0.00000000000E+00 0. -1.
        -13    1    1    2    0    0 -0.49326606732E+03  0.29523522221E+02 -0.17985629255E+04  0.18652108888E+04  0.10566000000E+00 0.  1.
         13    1    1    2    0    0  0.52936548933E+03  0.26104109134E+02 -0.10971503678E+04  0.12184614013E+04  0.10566000000E+00 0. -1.
         -4    1    1    2    0  502 -0.36099422002E+02 -0.55627631354E+02  0.12500418698E+02  0.67482309582E+02  0.00000000000E+00 0. -1.
</event>
<event>
 5    1  0.8372874E-005  0.3066251E+03  0.7818608E-02  0.1008560E+00
          4   -1    0    0  502    0 -0.00000000000E+00  0.00000000000E+00  0.56635957858E+03  0.56635957858E+03  0.00000000000E+00 0.  1.
         21   -1    0    0  501  502  0.00000000000E+00 -0.00000000000E+00 -0.83461467616E+03  0.83461467616E+03  0.00000000000E+00 0.  1.
        -13    1    1    2    0    0  0.96581919294E+02  0.83426284555E+02  0.31222404005E+03  0.33730086635E+03  0.10566000000E+00 0.  1.
         13    1    1    2    0    0 -0.10366623037E+03  0.24911377675E+03  0.11456818156E+03  0.29313860284E+03  0.10566000000E+00 0. -1.
          4    1    1    2  501    0  0.70843110735E+01 -0.33254006130E+03 -0.69504731919E+03  0.77053478555E+03  0.00000000000E+00 0.  1.
</event>
<event>
 5    1  0.6336319E-005  0.4128011E+03  0.7818608E-02  0.9740047E-01
         21   -1    0    0  501  502  0.00000000000E+00  0.00000000000E+00  0.25491928546E+03  0.25491928546E+03  0.00000000000E+00 0.  1.
          4   -1    0    0  502    0 -0.00000000000E+00 -0.00000000000E+00 -0.19607695908E+04  0.19607695908E+04  0.00000000000E+00 0.  1.
        -13    1    1    2    0    0  0.46200375073E+03 -0.34156016014E+03 -0.87687274833E+03  0.10483399433E+04  0.10566000000E+00 0.  1.
         13    1    1    2    0    0 -0.34915773328E+03 -0.28773622184E+02 -0.65521278531E+03  0.74299586085E+03  0.10566000000E+00 0. -1.
          4    1    1    2  501    0 -0.11284601745E+03  0.37033378232E+03 -0.17376477173E+03  0.42435307219E+03  0.00000000000E+00 0.  1.
</event>
<event>
 5    1  0.6336319E-005  0.1549527E+03  0.7818608E-02  0.1096327E+00
          4   -1    0    0  502    0 -0.00000000000E+00  0.00000000000E+00  0.61981941131E+03  0.61981941131E+03  0.00000000000E+00 0.  1.
         21   -1    0    0  501  502  0.00000000000E+00 -0.00000000000E+00 -0.20243165251E+03  0.20243165251E+03  0.00000000000E+00 0. -1.
        -13    1    1    2    0    0 -0.15227296629E+03  0.55878859926E+01  0.53468369736E+03  0.55597207495E+03  0.10566000000E+00 0.  1.
         13    1    1    2    0    0  0.19037883600E+03 -0.31086939644E+02 -0.89404340619E+02  0.21261149145E+03  0.10566000000E+00 0. -1.
          4    1    1    2  501    0 -0.38105869710E+02  0.25499053652E+02 -0.27891597943E+02  0.53667497419E+02  0.00000000000E+00 0.  1.
</event>
<event>
 5    1  0.6336319E-005  0.1975960E+03  0.7818608E-02  0.1061796E+00
         21   -1    0    0  501  502  0.00000000000E+00  0.00000000000E+00  0.77232958625E+02  0.77232958625E+02  0.00000000000E+00 0.  1.
          4   -1    0    0  502    0 -0.00000000000E+00 -0.00000000000E+00 -0.63337524912E+03  0.63337524912E+03  0.00000000000E+00 0.  1.
        -13    1    1    2    0    0  0.16903744965E+03  0.12607155911E+03 -0.31959766336E+03  0.38289734263E+03  0.10566000000E+00 0.  1.
         13    1    1    2    0    0 -0.13261045856E+03 -0.12816289639E+03 -0.22154933662E+03  0.28826269521E+03  0.10566000000E+00 0. -1.
          4    1    1    2  501    0 -0.36426991089E+02  0.20913372761E+01 -0.14995290516E+02  0.39448169908E+02  0.00000000000E+00 0.  1.
</event>
<event>
 5    1  0.6336319E-005  0.3716167E+03  0.7818608E-02  0.1021360E+00
          4   -1    0    0  502    0 -0.00000000000E+00  0.00000000000E+00  0.10267819139E+04  0.10267819139E+04  0.00000000000E+00 0.  1.
         21   -1    0    0  501  502  0.00000000000E+00 -0.00000000000E+00 -0.26370284815E+03  0.26370284815E+03  0.00000000000E+00 0.  1.
        -13    1    1    2    0    0  0.35652086184E+03  0.26854251387E+03  0.50908709262E+03  0.67704644281E+03  0.10566000000E+00 0.  1.
         13    1    1    2    0    0 -0.92682938886E+02 -0.39765145589E+02  0.24406817706E+03  0.26408460800E+03  0.10566000000E+00 0. -1.
          4    1    1    2  501    0 -0.26383792295E+03 -0.22877736828E+03  0.99237960495E+01  0.34935371123E+03  0.00000000000E+00 0.  1.
</event>
<event>
 5    1  0.6336319E-005  0.2811319E+02  0.7818608E-02  0.1420730E+00
         21   -1    0    0  501  502  0.00000000000E+00  0.00000000000E+00  0.28569934556E+03  0.28569934556E+03  0.00000000000E+00 0.  1.
         -4   -1    0    0    0  501 -0.00000000000E+00 -0.00000000000E+00 -0.99075956155E+01  0.99075956155E+01  0.00000000000E+00 0. -1.
        -13    1    1    2    0    0  0.29769574752E+02  0.11861174209E+02  0.13935313769E+03  0.14299029052E+03  0.10566000000E+00 0.  1.
         13    1    1    2    0    0 -0.27382897627E+02  0.75317388824E+01  0.20457082794E+02  0.35000765328E+02  0.10566000000E+00 0. -1.
         -4    1    1    2    0  502 -0.23866771249E+01 -0.19392913092E+02  0.11598152945E+03  0.11761588532E+03  0.00000000000E+00 0. -1.
</event>
<event>
 5    1  0.6336319E-005  0.2777986E+03  0.7818608E-02  0.1026409E+00
         21   -1    0    0  501  502  0.00000000000E+00  0.00000000000E+00  0.29742876576E+03  0.29742876576E+03  0.00000000000E+00 0.  1.
          4   -1    0    0  502    0 -0.00000000000E+00 -0.00000000000E+00 -0.17505310130E+04  0.17505310130E+04  0.00000000000E+00 0.  1.
        -13    1    1    2    0    0 -0.19364384054E+03 -0.18460574027E+03  0.15712383537E+03  0.31026621977E+03  0.10566000000E+00 0.  1.
         13    1    1    2    0    0  0.12852522291E+02 -0.20575655346E+03 -0.72063189588E+03  0.74954071747E+03  0.10566000000E+00 0. -1.
          4    1    1    2  501    0  0.18079131825E+03  0.39036229373E+03 -0.88959418670E+03  0.98815284148E+03  0.00000000000E+00 0.  1.
</event>
<event>
 5    1  0.6336319E-005  0.1442733E+03  0.7818608E-02  0.1113955E+00
          4   -1    0    0  502    0 -0.00000000000E+00  0.00000000000E+00  0.10499631558E+03  0.10499631558E+03  0.00000000000E+00 0.  1.
         21   -1    0    0  501  502  0.00000000000E+00 -0.00000000000E+00 -0.75586010419E+03  0.75586010419E+03  0.00000000000E+00 0.  1.
        -13    1    1    2    0    0 -0.91755780290E-01 -0.23716263512E+03 -0.28595291267E+03  0.37150397487E+03  0.10566000000E+00 0.  1.
         13    1    1    2    0    0  0.23987475699E+02  0.11717798381E+03 -0.17314578057E+02  0.12085480817E+03  0.10566000000E+00 0. -1.
          4    1    1    2  501    0 -0.23895719919E+02  0.11998465131E+03 -0.34759629788E+03  0.36849763673E+03  0.00000000000E+00 0.  1.
</event>
<event>
 5    1  0.6336319E-005  0.1107679E+03  0.7818608E-02  0.1147873E+00
         21   -1    0    0  501  502  0.00000000000E+00  0.00000000000E+00  0.48372872517E+02  0.48372872517E+02  0.00000000000E+00 0. -1.
         -4   -1    0    0    0  501 -0.00000000000E+00 -0.00000000000E+00 -0.97048706418E+03  0.97048706418E+03  0.00000000000E+00 0. -1.
        -13    1    1    2    0    0  0.12192227186E+02  0.99585493600E+02 -0.57270322415E+03  0.58142490062E+03  0.10566000000E+00 0.  1.
         13    1    1    2    0    0 -0.52778143341E+02 -0.14212270152E+03 -0.34690771321E+03  0.37858865190E+03  0.10566000000E+00 0. -1.
         -4    1    1    2    0  502  0.40585916155E+02  0.42537207924E+02 -0.25032542986E+01  0.58846384173E+02  0.00000000000E+00 0. -1.
</event>
<event>
 5    1  0.6336319E-005  0.1086533E+03  0.7818608E-02  0.1150981E+00
         21   -1    0    0  501  502  0.00000000000E+00  0.00000000000E+00  0.36927069306E+02  0.36927069306E+02  0.00000000000E+00 0. -1.
          4   -1    0    0  502    0 -0.00000000000E+00 -0.00000000000E+00 -0.45649883775E+03  0.45649883775E+03  0.00000000000E+00 0.  1.
        -13    1    1    2    0    0 -0.11174656567E+03 -0.17577997214E+02 -0.24386809592E+03  0.26882697093E+03  0.10566000000E+00 0.  1.
         13    1    1    2    0    0  0.10146835054E+03  0.22142406640E+02 -0.18354382598E+03  0.21088968574E+03  0.10566000000E+00 0. -1.
          4    1    1    2  501    0  0.10278215135E+02 -0.45644094264E+01  0.78401534615E+01  0.13709250383E+02  0.00000000000E+00 0.  1.
</event>
<event>
 5    1  0.6336319E-005  0.4434343E+03  0.7818608E-02  0.9700764E-01
          4   -1    0    0  502    0 -0.00000000000E+00  0.00000000000E+00  0.11976881525E+04  0.11976881525E+04  0.00000000000E+00 0.  1.
         21   -1    0    0  501  502  0.00000000000E+00 -0.00000000000E+00 -0.40505753141E+03  0.40505753141E+03  0.00000000000E+00 0.  1.
        -13    1    1    2    0    0 -0.49868803484E+03  0.65190925180E+02  0.11584267935E+02  0.50306442852E+03  0.10566000000E+00 0.  1.
         13    1    1    2    0    0  0.20980162714E+03 -0.24675895690E+03  0.10173809140E+03  0.33949573777E+03  0.10566000000E+00 0. -1.
          4    1    1    2  501    0  0.28888640770E+03  0.18156803172E+03  0.67930826174E+03  0.76018551760E+03  0.00000000000E+00 0.  1.
</event>
<event>
 5    1  0.6336319E-005  0.1426488E+03  0.7818608E-02  0.1108597E+00
          4   -1    0    0  502    0 -0.00000000000E+00  0.00000000000E+00  0.95429938331E+02  0.95429938331E+02  0.00000000000E+00 0.  1.
         21   -1    0    0  501  502  0.00000000000E+00 -0.00000000000E+00 -0.25836409829E+03  0.25836409829E+03  0.00000000000E+00 0. -1.
        -13    1    1    2    0    0  0.12910544319E+03  0.86772258663E+02 -0.68668634506E+02  0.17003832763E+03  0.10566000000E+00 0.  1.
         13    1    1    2    0    0 -0.10481223727E+03 -0.78438893547E+02 -0.70141385672E+02  0.14851966284E+03  0.10566000000E+00 0. -1.
          4    1    1    2  501    0 -0.24293205917E+02 -0.83333651167E+01 -0.24124139778E+02  0.35236046145E+02  0.00000000000E+00 0.  1.
</event>
<event>
 5    1  0.6336319E-005  0.4560266E+03  0.7818608E-02  0.9582495E-01
          4   -1    0    0  502    0 -0.00000000000E+00  0.00000000000E+00  0.19732822327E+04  0.19732822327E+04  0.00000000000E+00 0.  1.
         21   -1    0    0  501  502  0.00000000000E+00 -0.00000000000E+00 -0.96602944383E+03  0.96602944383E+03  0.00000000000E+00 0.  1.
        -13    1    1    2    0    0  0.19952723723E+03  0.30233686322E+03 -0.24469418641E+03  0.43714294377E+03  0.10566000000E+00 0.  1.
         13    1    1    2    0    0 -0.15971637701E+03  0.42271504391E+03  0.16243961315E+04  0.16860783293E+04  0.10566000000E+00 0. -1.
          4    1    1    2  501    0 -0.39810860220E+02 -0.72505190713E+03 -0.37244915621E+03  0.81609040344E+03  0.00000000000E+00 0.  1.
</event>
<event>
 5    1  0.6336319E-005  0.1650017E+03  0.7818608E-02  0.1098542E+00
          4   -1    0    0  502    0 -0.00000000000E+00  0.00000000000E+00  0.11900535579E+04  0.11900535579E+04  0.00000000000E+00 0.  1.
         21   -1    0    0  501  502  0.00000000000E+00 -0.00000000000E+00 -0.27093915696E+03  0.27093915696E+03  0.00000000000E+00 0.  1.
        -13    1    1    2    0    0  0.94631670281E+02 -0.25048607829E+03  0.10478841419E+04  0.10815542587E+04  0.10566000000E+00 0.  1.
         13    1    1    2    0    0 -0.82123514599E+02  0.88622361332E+02  0.56263406363E+02  0.13328081872E+03  0.10566000000E+00 0. -1.
          4    1    1    2  501    0 -0.12508155683E+02  0.16186371696E+03 -0.18503314738E+03  0.24615763741E+03  0.00000000000E+00 0.  1.
</event>
<event>
 5    1  0.6336319E-005  0.1950959E+03  0.7818608E-02  0.1063551E+00
         21   -1    0    0  501  502  0.00000000000E+00  0.00000000000E+00  0.36506710741E+03  0.36506710741E+03  0.00000000000E+00 0. -1.
          4   -1    0    0  502    0 -0.00000000000E+00 -0.00000000000E+00 -0.16776392472E+03  0.16776392472E+03  0.00000000000E+00 0.  1.
        -13    1    1    2    0    0  0.34734346143E+02  0.18016016121E+03  0.16925693319E+03  0.24962387523E+03  0.10566000000E+00 0.  1.
         13    1    1    2    0    0 -0.37869339753E+02 -0.19581992090E+03 -0.48296102860E+02  0.20521221462E+03  0.10566000000E+00 0. -1.
          4    1    1    2  501    0  0.31349936105E+01  0.15659759687E+02  0.76342352355E+02  0.77994942281E+02  0.00000000000E+00 0.  1.
</event>
<event>
 5    1  0.6336319E-005  0.2045812E+03  0.7818608E-02  0.1057040E+00
          4   -1    0    0  502    0 -0.00000000000E+00  0.00000000000E+00  0.94144929592E+03  0.94144929592E+03  0.00000000000E+00 0.  1.
         21   -1    0    0  501  502  0.00000000000E+00 -0.00000000000E+00 -0.80718844771E+02  0.80718844771E+02  0.00000000000E+00 0. -1.
        -13    1    1    2    0    0 -0.20175098624E+03 -0.27447584548E+01  0.70654099627E+03  0.73478648921E+03  0.10566000000E+00 0.  1.
         13    1    1    2    0    0  0.21556964688E+03 -0.11431476243E+02  0.15761683893E+03  0.26729016140E+03  0.10566000000E+00 0. -1.
          4    1    1    2  501    0 -0.13818660637E+02  0.14176234697E+02 -0.34273840587E+01  0.20091490076E+02  0.00000000000E+00 0.  1.
</event>
<event>
 5    1  0.6336319E-005  0.3403341E+03  0.7818608E-02  0.9919235E-01
         21   -1    0    0  501  502  0.00000000000E+00  0.00000000000E+00  0.12090105425E+03  0.12090105425E+03  0.00000000000E+00 0. -1.
          4   -1    0    0  502    0 -0.00000000000E+00 -0.00000000000E+00 -0.15040358016E+04  0.15040358016E+04  0.00000000000E+00 0.  1.
        -13    1    1    2    0    0  0.34907961215E+03  0.43763326819E+01 -0.80253795417E+03  0.87518164226E+03  0.10566000000E+00 0.  1.
         13    1    1    2    0    0 -0.33019641481E+03 -0.12873855942E+02 -0.62151221117E+03  0.70389832243E+03  0.10566000000E+00 0. -1.
          4    1    1    2  501    0 -0.18883197342E+02  0.84975232604E+01  0.40915417953E+02  0.45856891190E+02  0.00000000000E+00 0.  1.
</event>
<event>
 5    1  0.6336319E-005  0.1030553E+03  0.7818608E-02  0.1159597E+00
         21   -1    0    0  501  502  0.00000000000E+00  0.00000000000E+00  0.18766950964E+03  0.18766950964E+03  0.00000000000E+00 0. -1.
          4   -1    0    0  502    0 -0.00000000000E+00 -0.00000000000E+00 -0.78108580542E+02  0.78108580542E+02  0.00000000000E+00 0.  1.
        -13    1    1    2    0    0  0.67828971243E+02 -0.76992370012E+02  0.78536257620E+01  0.10290911029E+03  0.10566000000E+00 0.  1.
         13    1    1    2    0    0 -0.80878330191E+02  0.66450163140E+02  0.66894018843E+02  0.12422459256E+03  0.10566000000E+00 0. -1.
          4    1    1    2  501    0  0.13049358949E+02  0.10542206873E+02  0.34813284495E+02  0.38644387329E+02  0.00000000000E+00 0.  1.
</event>
<event>
 5    1  0.6336319E-005  0.1098360E+03  0.7818608E-02  0.1149233E+00
         21   -1    0    0  501  502  0.00000000000E+00  0.00000000000E+00  0.17639992399E+03  0.17639992399E+03  0.00000000000E+00 0.  1.
          4   -1    0    0  502    0 -0.00000000000E+00 -0.00000000000E+00 -0.36117129371E+03  0.36117129371E+03  0.00000000000E+00 0.  1.
        -13    1    1    2    0    0  0.11478900264E+02  0.11003387643E+03 -0.31292331117E+03  0.33190394537E+03  0.10566000000E+00 0.  1.
         13    1    1    2    0    0 -0.12363899641E+01 -0.10428826701E+03  0.32420916460E+02  0.10921858030E+03  0.10566000000E+00 0. -1.
          4    1    1    2  501    0 -0.10242510300E+02 -0.57456094280E+01  0.95731025002E+02  0.96448692023E+02  0.00000000000E+00 0.  1.
</event>
<event>
 5    1  0.6336319E-005  0.1193434E+03  0.7818608E-02  0.1136008E+00
          4   -1    0    0  502    0 -0.00000000000E+00  0.00000000000E+00  0.12102360868E+03  0.12102360868E+03  0.00000000000E+00 0.  1.
         21   -1    0    0  501  502  0.00000000000E+00 -0.00000000000E+00 -0.35920963921E+03  0.35920963921E+03  0.00000000000E+00 0.  1.
        -13    1    1    2    0    0  0.69805269645E+01  0.13561016157E+03 -0.35363843349E+01  0.13583578636E+03  0.10566000000E+00 0.  1.
         13    1    1    2    0    0 -0.37583041159E+01 -0.10680236327E+03  0.10981959885E+01  0.10687416361E+03  0.10566000000E+00 0. -1.
          4    1    1    2  501    0 -0.32222228486E+01 -0.28807798301E+02 -0.23574784218E+03  0.23752329792E+03  0.00000000000E+00 0.  1.
</event>
<event>
 5    1  0.6336319E-005  0.3098326E+02  0.7818608E-02  0.1397183E+00
         21   -1    0    0  501  502  0.00000000000E+00  0.00000000000E+00  0.84023948600E+02  0.84023948600E+02  0.00000000000E+00 0.  1.
         -4   -1    0    0    0  501 -0.00000000000E+00 -0.00000000000E+00 -0.18980643761E+02  0.18980643761E+02  0.00000000000E+00 0. -1.
        -13    1    1    2    0    0 -0.15581189963E+01 -0.22293339349E+02  0.43705093058E+02  0.49087340908E+02  0.10566000000E+00 0.  1.
         13    1    1    2    0    0  0.48172602675E+01  0.35358835232E+02  0.12507125374E+02  0.37813920381E+02  0.10566000000E+00 0. -1.
         -4    1    1    2    0  502 -0.32591412712E+01 -0.13065495883E+02  0.88310864069E+01  0.16103331072E+02  0.00000000000E+00 0. -1.
</event>
<event>
 5    1  0.6336319E-005  0.3662284E+02  0.7818608E-02  0.1358456E+00
         21   -1    0    0  501  502  0.00000000000E+00  0.00000000000E+00  0.43076320792E+02  0.43076320792E+02  0.00000000000E+00 0. -1.
          4   -1    0    0  502    0 -0.00000000000E+00 -0.00000000000E+00 -0.23156652502E+03  0.23156652502E+03  0.00000000000E+00 0.  1.
        -13    1    1    2    0    0  0.36134733608E+02  0.42460774490E+01 -0.20757478686E+03  0.21073929736E+03  0.10566000000E+00 0.  1.
         13    1    1    2    0    0 -0.38395078984E+02 -0.20853761632E+02  0.99357879127E+01  0.44808397760E+02  0.10566000000E+00 0. -1.
          4    1    1    2  501    0  0.22603453755E+01  0.16607684183E+02  0.91487947211E+01  0.19095150693E+02  0.00000000000E+00 0.  1.
</event>
<event>
 5    1  0.6336319E-005  0.3560671E+03  0.7818608E-02  0.9901241E-01
         21   -1    0    0  501  502  0.00000000000E+00  0.00000000000E+00  0.60025303282E+03  0.60025303282E+03  0.00000000000E+00 0. -1.
         -4   -1    0    0    0  501 -0.00000000000E+00 -0.00000000000E+00 -0.10443560757E+04  0.10443560757E+04  0.00000000000E+00 0. -1.
        -13    1    1    2    0    0 -0.23138179577E+03 -0.21460595731E+03 -0.50521135660E+03  0.59567757917E+03  0.10566000000E+00 0.  1.
         13    1    1    2    0    0  0.54484303744E+03  0.10743247680E+03 -0.23650960181E+03  0.60359959860E+03  0.10566000000E+00 0. -1.
         -4    1    1    2    0  502 -0.31346124167E+03  0.10717348050E+03  0.29761791550E+03  0.44533193079E+03  0.00000000000E+00 0. -1.
</event>
<event>
 5    1  0.6336319E-005  0.5079974E+03  0.7818608E-02  0.9696736E-01
         21   -1    0    0  501  502  0.00000000000E+00  0.00000000000E+00  0.31670401862E+03  0.31670401862E+03  0.00000000000E+00 0.  1.
          4   -1    0    0  502    0 -0.00000000000E+00 -0.00000000000E+00 -0.12751558633E+04  0.12751558633E+04  0.00000000000E+00 0.  1.
        -13    1    1    2    0    0  0.18493208028E+02 -0.56279414722E+03 -0.25853441871E+03  0.61961222366E+03  0.10566000000E+00 0.  1.
         13    1    1    2    0    0  0.16381002982E+03  0.14455705251E+03 -0.21867400202E+03  0.30910968543E+03  0.10566000000E+00 0. -1.
          4    1    1    2  501    0 -0.18230323785E+03  0.41823709470E+03 -0.48124342397E+03  0.66313797285E+03  0.00000000000E+00 0.  1.
</event>
<event>
 5    1  0.6336319E-005  0.1552131E+03  0.7818608E-02  0.1096081E+00
         -4   -1    0    0    0  501 -0.00000000000E+00  0.00000000000E+00  0.37562157968E+03  0.37562157968E+03  0.00000000000E+00 0. -1.
         21   -1    0    0  501  502  0.00000000000E+00 -0.00000000000E+00 -0.81597471548E+02  0.81597471548E+02  0.00000000000E+00 0. -1.
        -13    1    1    2    0    0 -0.10246906363E+03 -0.11512587993E+03  0.13794677039E+03  0.20684100139E+03  0.10566000000E+00 0.  1.
         13    1    1    2    0    0  0.92871150014E+02  0.12595255454E+03  0.16946391610E+03  0.23066670008E+03  0.10566000000E+00 0. -1.
         -4    1    1    2    0  502  0.95979136174E+01 -0.10826674613E+02 -0.13386578365E+02  0.19711349758E+02  0.00000000000E+00 0. -1.
</event>
<event>
 5    1  0.6336319E-005  0.1017759E+03  0.7818608E-02  0.1189320E+00
         21   -1    0    0  501  502  0.00000000000E+00  0.00000000000E+00  0.12082134188E+03  0.12082134188E+03  0.00000000000E+00 0. -1.
         -4   -1    0    0    0  501 -0.00000000000E+00 -0.00000000000E+00 -0.50522169261E+03  0.50522169261E+03  0.00000000000E+00 0. -1.
        -13    1    1    2    0    0  0.41796458392E+01  0.52616759226E+02  0.89191585366E+01  0.53530882150E+02  0.10566000000E+00 0.  1.
         13    1    1    2    0    0  0.71714679889E+02 -0.11730778515E+03 -0.44102844361E+03  0.46196343038E+03  0.10566000000E+00 0. -1.
         -4    1    1    2    0  502 -0.75894325728E+02  0.64691025921E+02  0.47708934340E+02  0.11054872197E+03  0.00000000000E+00 0. -1.
</event>
<event>
 5    1  0.6336319E-005  0.6567754E+02  0.7818608E-02  0.1238547E+00
         21   -1    0    0  501  502  0.00000000000E+00  0.00000000000E+00  0.13895104011E+03  0.13895104011E+03  0.00000000000E+00 0.  1.
          4   -1    0    0  502    0 -0.00000000000E+00 -0.00000000000E+00 -0.15397616936E+03  0.15397616936E+03  0.00000000000E+00 0.  1.
        -13    1    1    2    0    0 -0.61505905077E+02 -0.24550582959E+02 -0.13161681647E+03  0.14733874244E+03  0.10566000000E+00 0.  1.
         13    1    1    2    0    0  0.61446578243E+02  0.94239405530E+01  0.57808164840E+02  0.84889856400E+02  0.10566000000E+00 0. -1.
          4    1    1    2  501    0  0.59326833463E-01  0.15126642406E+02  0.58783522373E+02  0.60698610632E+02  0.00000000000E+00 0.  1.
</event>
<event>
 5    1  0.6336319E-005  0.5138910E+03  0.7818608E-02  0.9622047E-01
          4   -1    0    0  502    0 -0.00000000000E+00  0.00000000000E+00  0.19358748874E+04  0.19358748874E+04  0.00000000000E+00 0.  1.
         21   -1    0    0  501  502  0.00000000000E+00 -0.00000000000E+00 -0.26247959422E+03  0.26247959422E+03  0.00000000000E+00 0.  1.
        -13    1    1    2    0    0 -0.31380487693E+03 -0.34842372151E+03  0.53810312837E+03  0.71374195506E+03  0.10566000000E+00 0.  1.
         13    1    1    2    0    0  0.16854277636E+03 -0.21647692347E+03  0.71458232564E+03  0.76543898328E+03  0.10566000000E+00 0. -1.
          4    1    1    2  501    0  0.14526210057E+03  0.56490064497E+03  0.42070983917E+03  0.71917354326E+03  0.00000000000E+00 0.  1.
</event>
<event>
 5    1  0.6336319E-005  0.4307440E+03  0.7818608E-02  0.9669330E-01
         -4   -1    0    0    0  501 -0.00000000000E+00  0.00000000000E+00  0.22141575435E+04  0.22141575435E+04  0.00000000000E+00 0. -1.
         21   -1    0    0  501  502  0.00000000000E+00 -0.00000000000E+00 -0.30314661849E+03  0.30314661849E+03  0.00000000000E+00 0. -1.
        -13    1    1    2    0    0 -0.13566501426E+02  0.39415229101E+03  0.11299786260E+04  0.11968257119E+04  0.10566000000E+00 0.  1.
         13    1    1    2    0    0  0.41807872170E+03 -0.15564670102E+03  0.71990933568E+03  0.84692690112E+03  0.10566000000E+00 0. -1.
         -4    1    1    2    0  502 -0.40451222028E+03 -0.23850558999E+03  0.61122963327E+02  0.47355154889E+03  0.00000000000E+00 0. -1.
</event>
<event>
 5    1  0.6336319E-005  0.4091555E+03  0.7818608E-02  0.9737905E-01
         21   -1    0    0  501  502  0.00000000000E+00  0.00000000000E+00  0.12415182058E+04  0.12415182058E+04  0.00000000000E+00 0.  1.
          4   -1    0    0  502    0 -0.00000000000E+00 -0.00000000000E+00 -0.68941600650E+03  0.68941600650E+03  0.00000000000E+00 0.  1.
        -13    1    1    2    0    0 -0.48001317734E+02 -0.19626737493E+03 -0.15965683101E+03  0.25751761847E+03  0.10566000000E+00 0.  1.
         13    1    1    2    0    0 -0.40664447454E+03  0.15366823439E+03 -0.32353304361E+03  0.54189232917E+03  0.10566000000E+00 0. -1.
          4    1    1    2  501    0  0.45464579228E+03  0.42599140536E+02  0.10352920740E+04  0.11315242647E+04  0.00000000000E+00 0.  1.
</event>
<event>
 5    1  0.6336319E-005  0.1313146E+03  0.7818608E-02  0.1151381E+00
         -4   -1    0    0    0  501 -0.00000000000E+00  0.00000000000E+00  0.55855899739E+03  0.55855899739E+03  0.00000000000E+00 0. -1.
         21   -1    0    0  501  502  0.00000000000E+00 -0.00000000000E+00 -0.64029512702E+02  0.64029512702E+02  0.00000000000E+00 0. -1.
        -13    1    1    2    0    0 -0.59232772719E+02  0.14344118459E+02  0.23475345932E+03  0.24253550858E+03  0.10566000000E+00 0.  1.
         13    1    1    2    0    0 -0.96037796694E+02  0.51129375411E+02  0.96953864016E+02  0.14573103422E+03  0.10566000000E+00 0. -1.
         -4    1    1    2    0  502  0.15527056941E+03 -0.65473493870E+02  0.16282216135E+03  0.23432196729E+03  0.00000000000E+00 0. -1.
</event>
<event>
 5    1  0.6336319E-005  0.4930672E+03  0.7818608E-02  0.9880377E-01
         -4   -1    0    0    0  501 -0.00000000000E+00  0.00000000000E+00  0.68353417925E+03  0.68353417925E+03  0.00000000000E+00 0. -1.
         21   -1    0    0  501  502  0.00000000000E+00 -0.00000000000E+00 -0.87620390353E+03  0.87620390353E+03  0.00000000000E+00 0. -1.
        -13    1    1    2    0    0  0.12709806781E+03 -0.95504527024E+01  0.34480502900E+03  0.36760801021E+03  0.10566000000E+00 0.  1.
         13    1    1    2    0    0 -0.45567452204E+03 -0.32017658822E+03 -0.12632385713E+03  0.57106045716E+03  0.10566000000E+00 0. -1.
         -4    1    1    2    0  502  0.32857645423E+03  0.32972704092E+03 -0.41115089614E+03  0.62106961541E+03  0.00000000000E+00 0. -1.
</event>
<event>
 5    1  0.6336319E-005  0.3002384E+03  0.7818608E-02  0.1067071E+00
          4   -1    0    0  502    0 -0.00000000000E+00  0.00000000000E+00  0.17604747618E+03  0.17604747618E+03  0.00000000000E+00 0.  1.
         21   -1    0    0  501  502  0.00000000000E+00 -0.00000000000E+00 -0.10044715448E+04  0.10044715448E+04  0.00000000000E+00 0.  1.
        -13    1    1    2    0    0 -0.85191829700E+02  0.32091877356E+03 -0.11578731426E+03  0.35164359851E+03  0.10566000000E+00 0.  1.
         13    1    1    2    0    0  0.36003650863E+02 -0.32277260516E+02  0.98182072209E+01  0.49340579434E+02  0.10566000000E+00 0. -1.
          4    1    1    2  501    0  0.49188178838E+02 -0.28864151304E+03 -0.72245496162E+03  0.77953484307E+03  0.00000000000E+00 0.  1.
</event>
<event>
 5    1  0.6336319E-005  0.1565278E+03  0.7818608E-02  0.1094847E+00
         -4   -1    0    0    0  501 -0.00000000000E+00  0.00000000000E+00  0.12069237972E+04  0.12069237972E+04  0.00000000000E+00 0. -1.
         21   -1    0    0  501  502  0.00000000000E+00 -0.00000000000E+00 -0.28224238823E+02  0.28224238823E+02  0.00000000000E+00 0.  1.
        -13    1    1    2    0    0 -0.20573710998E+02  0.13611485348E+03  0.32507033929E+03  0.35301737574E+03  0.10566000000E+00 0.  1.
         13    1    1    2    0    0  0.97473649539E+00 -0.17415176364E+03  0.59417925443E+03  0.61917589137E+03  0.10566000000E+00 0. -1.
         -4    1    1    2    0  502  0.19598974502E+02  0.38036910169E+02  0.25944996461E+03  0.26295476888E+03  0.00000000000E+00 0. -1.
</event>
<event>
 5    1  0.6336319E-005  0.1531756E+03  0.7818608E-02  0.1098021E+00
         21   -1    0    0  501  502  0.00000000000E+00  0.00000000000E+00  0.65375344617E+03  0.65375344617E+03  0.00000000000E+00 0.  1.
          4   -1    0    0  502    0 -0.00000000000E+00 -0.00000000000E+00 -0.55235937180E+02  0.55235937180E+02  0.00000000000E+00 0.  1.
        -13    1    1    2    0    0 -0.11253901664E+03 -0.11706738665E+03  0.26712189306E+03  0.31260825357E+03  0.10566000000E+00 0.  1.
         13    1    1    2    0    0  0.13117922979E+03  0.72470549607E+02  0.16406894216E+03  0.22221296055E+03  0.10566000000E+00 0. -1.
          4    1    1    2  501    0 -0.18640213157E+02  0.44596837043E+02  0.16732667377E+03  0.17416816923E+03  0.00000000000E+00 0.  1.
</event>
<event>
 5    1  0.6336319E-005  0.4899436E+03  0.7818608E-02  0.9668221E-01
          4   -1    0    0  502    0 -0.00000000000E+00  0.00000000000E+00  0.82937222574E+03  0.82937222574E+03  0.00000000000E+00 0.  1.
         21   -1    0    0  501  502  0.00000000000E+00 -0.00000000000E+00 -0.51192897551E+03  0.51192897551E+03  0.00000000000E+00 0.  1.
        -13    1    1    2    0    0 -0.60670544331E+03 -0.14486220398E+03  0.14945619008E+03  0.64141540128E+03  0.10566000000E+00 0.  1.
         13    1    1    2    0    0  0.25906118107E+03 -0.72621289853E+02  0.56206986516E+02  0.27485593277E+03  0.10566000000E+00 0. -1.
          4    1    1    2  501    0  0.34764426224E+03  0.21748349383E+03  0.11178007363E+03  0.42502986720E+03  0.00000000000E+00 0.  1.
</event>
<event>
 5    1  0.6336319E-005  0.1384177E+03  0.7818608E-02  0.1113132E+00
          4   -1    0    0  502    0 -0.00000000000E+00  0.00000000000E+00  0.23099336106E+02  0.23099336106E+02  0.00000000000E+00 0.  1.
         21   -1    0    0  501  502  0.00000000000E+00 -0.00000000000E+00 -0.11220466223E+04  0.11220466223E+04  0.00000000000E+00 0. -1.
        -13    1    1    2    0    0  0.58223371279E+00 -0.13162929581E+03 -0.33424728638E+03  0.35923233447E+03  0.10566000000E+00 0.  1.
         13    1    1    2    0    0 -0.12219810588E+02  0.14898674919E+03 -0.54205297283E+03  0.56228801492E+03  0.10566000000E+00 0. -1.
          4    1    1    2  501    0  0.11637576875E+02 -0.17357453384E+02 -0.22264702697E+03  0.22362560900E+03  0.00000000000E+00 0.  1.
</event>
<event>
 5    1  0.6336319E-005  0.4515461E+02  0.7818608E-02  0.1312881E+00
         21   -1    0    0  501  502  0.00000000000E+00  0.00000000000E+00  0.34307701275E+03  0.34307701275E+03  0.00000000000E+00 0. -1.
         -4   -1    0    0    0  501 -0.00000000000E+00 -0.00000000000E+00 -0.11187825591E+02  0.11187825591E+02  0.00000000000E+00 0. -1.
        -13    1    1    2    0    0 -0.35905124354E+02  0.11882905668E+02  0.93827462085E+02  0.10116316132E+03  0.10566000000E+00 0.  1.
         13    1    1    2    0    0  0.47836239313E+02 -0.21882777946E+02  0.90167506437E+02  0.10439038339E+03  0.10566000000E+00 0. -1.
         -4    1    1    2    0  502 -0.11931114959E+02  0.99998722773E+01  0.14789421863E+03  0.14871129363E+03  0.00000000000E+00 0. -1.
</event>
<event>
 5    1  0.6336319E-005  0.8422189E+03  0.7818608E-02  0.8938904E-01
         21   -1    0    0  501  502  0.00000000000E+00  0.00000000000E+00  0.47806392642E+03  0.47806392642E+03  0.00000000000E+00 0.  1.
          4   -1    0    0  502    0 -0.00000000000E+00 -0.00000000000E+00 -0.24849761002E+04  0.24849761002E+04  0.00000000000E+00 0.  1.
        -13    1    1    2    0    0  0.78344884077E+03 -0.36123583335E+03 -0.11762082689E+04  0.14586806766E+04  0.10566000000E+00 0.  1.
         13    1    1    2    0    0 -0.58380931288E+03  0.61918266167E+03 -0.81418979355E+03  0.11777629275E+04  0.10566000000E+00 0. -1.
          4    1    1    2  501    0 -0.19963952789E+03 -0.25794682832E+03 -0.16514111385E+02  0.32659642253E+03  0.00000000000E+00 0.  1.
</event>
<event>
 5    1  0.6336319E-005  0.2551203E+02  0.7818608E-02  0.1445049E+00
         -4   -1    0    0    0  501 -0.00000000000E+00  0.00000000000E+00  0.70091612958E+01  0.70091612958E+01  0.00000000000E+00 0. -1.
         21   -1    0    0  501  502  0.00000000000E+00 -0.00000000000E+00 -0.15336023291E+03  0.15336023291E+03  0.00000000000E+00 0.  1.
        -13    1    1    2    0    0  0.85768812876E+01  0.30913985415E+02 -0.71283493467E+02  0.78170230854E+02  0.10566000000E+00 0.  1.
         13    1    1    2    0    0 -0.27399033970E+01 -0.21580640809E+02 -0.41247130096E+02  0.46632263869E+02  0.10566000000E+00 0. -1.
         -4    1    1    2    0  502 -0.58369778906E+01 -0.93333446062E+01 -0.33820448049E+02  0.35566899480E+02  0.00000000000E+00 0. -1.
</event>
<event>
 5    1  0.6336319E-005  0.1381461E+03  0.7818608E-02  0.1113429E+00
         21   -1    0    0  501  502  0.00000000000E+00  0.00000000000E+00  0.69607288114E+03  0.69607288114E+03  0.00000000000E+00 0. -1.
          4   -1    0    0  502    0 -0.00000000000E+00 -0.00000000000E+00 -0.15823426010E+03  0.15823426010E+03  0.00000000000E+00 0.  1.
        -13    1    1    2    0    0 -0.54702139500E+02  0.12872853798E+03 -0.11506533669E+03  0.18111709867E+03  0.10566000000E+00 0.  1.
         13    1    1    2    0    0  0.14248968319E+02 -0.11245879123E+03  0.54770859918E+03  0.55931630908E+03  0.10566000000E+00 0. -1.
          4    1    1    2  501    0  0.40453171181E+02 -0.16269746747E+02  0.10519535856E+03  0.11387373350E+03  0.00000000000E+00 0.  1.
</event>
<event>
 5    1  0.6336319E-005  0.5108911E+03  0.7818608E-02  0.9558735E-01
         -4   -1    0    0    0  501 -0.00000000000E+00  0.00000000000E+00  0.54878345236E+03  0.54878345236E+03  0.00000000000E+00 0. -1.
         21   -1    0    0  501  502  0.00000000000E+00 -0.00000000000E+00 -0.94300489259E+03  0.94300489259E+03  0.00000000000E+00 0. -1.
        -13    1    1    2    0    0  0.32744485151E+03  0.12333806300E+03 -0.13068576098E+03  0.37351196481E+03  0.10566000000E+00 0.  1.
         13    1    1    2    0    0 -0.35193151685E+03 -0.52129869313E+03 -0.33590280062E+03  0.71304896230E+03  0.10566000000E+00 0. -1.
         -4    1    1    2    0  502  0.24486665337E+02  0.39796063013E+03  0.72367121361E+02  0.40522741784E+03  0.00000000000E+00 0. -1.
</event>
<event>
 5    1  0.6336319E-005  0.4651783E+03  0.7818608E-02  0.9688337E-01
          4   -1    0    0  502    0 -0.00000000000E+00  0.00000000000E+00  0.12388117820E+04  0.12388117820E+04  0.00000000000E+00 0.  1.
         21   -1    0    0  501  502  0.00000000000E+00 -0.00000000000E+00 -0.48106389841E+03  0.48106389841E+03  0.00000000000E+00 0.  1.
        -13    1    1    2    0    0  0.14503162698E+03 -0.43821183230E+03  0.27882670703E+03  0.53926628535E+03  0.10566000000E+00 0.  1.
         13    1    1    2    0    0 -0.29084319357E+03 -0.35368370032E+02  0.60245834190E+03  0.66992294313E+03  0.10566000000E+00 0. -1.
          4    1    1    2  501    0  0.14581156658E+03  0.47358020234E+03 -0.12353716533E+03  0.51068645195E+03  0.00000000000E+00 0.  1.
</event>
<event>
 5    1  0.6336319E-005  0.5523809E+03  0.7818608E-02  0.9370005E-01
         -4   -1    0    0    0  501 -0.00000000000E+00  0.00000000000E+00  0.10482282363E+04  0.10482282363E+04  0.00000000000E+00 0. -1.
         21   -1    0    0  501  502  0.00000000000E+00 -0.00000000000E+00 -0.67637655740E+03  0.67637655740E+03  0.00000000000E+00 0. -1.
        -13    1    1    2    0    0 -0.48763700626E+03 -0.23890015939E+03  0.15330644807E+03  0.56423932353E+03  0.10566000000E+00 0.  1.
         13    1    1    2    0    0  0.28586274064E+03  0.53582119653E+03  0.42963272234E+03  0.74391272903E+03  0.10566000000E+00 0. -1.
         -4    1    1    2    0  502  0.20177426562E+03 -0.29692103715E+03 -0.21108749149E+03  0.41645274117E+03  0.00000000000E+00 0. -1.
</event>
<event>
 5    1  0.6336319E-005  0.3953079E+03  0.7818608E-02  0.9888310E-01
         -4   -1    0    0    0  501 -0.00000000000E+00  0.00000000000E+00  0.12254218236E+04  0.12254218236E+04  0.00000000000E+00 0. -1.
         21   -1    0    0  501  502  0.00000000000E+00 -0.00000000000E+00 -0.34293383112E+03  0.34293383112E+03  0.00000000000E+00 0. -1.
        -13    1    1    2    0    0 -0.58539415182E+02 -0.23360721409E+03  0.28255679103E+03  0.37126479085E+03  0.10566000000E+00 0.  1.
         13    1    1    2    0    0  0.36719649478E+03 -0.43187691180E+02  0.68077228550E+03  0.77469307363E+03  0.10566000000E+00 0. -1.
         -4    1    1    2    0  502 -0.30865707960E+03  0.27679490527E+03 -0.80841084013E+02  0.42239779028E+03  0.00000000000E+00 0. -1.
</event>
<event>
 5    1  0.6336319E-005  0.2037591E+03  0.7818608E-02  0.1057589E+00
         21   -1    0    0  501  502  0.00000000000E+00  0.00000000000E+00  0.54292100672E+02  0.54292100672E+02  0.00000000000E+00 0.  1.
          4   -1    0    0  502    0 -0.00000000000E+00 -0.00000000000E+00 -0.14550856244E+04  0.14550856244E+04  0.00000000000E+00 0.  1.
        -13    1    1    2    0    0 -0.20184976751E+03 -0.76892184075E+02 -0.89274275332E+03  0.91850169917E+03  0.10566000000E+00 0.  1.
         13    1    1    2    0    0  0.13914946383E+03  0.13608606436E+03 -0.43967429573E+03  0.48082791900E+03  0.10566000000E+00 0. -1.
          4    1    1    2  501    0  0.62700303679E+02 -0.59193880288E+02 -0.68376474693E+02  0.11004810692E+03  0.00000000000E+00 0.  1.
</event>
<event>
 5    1  0.6336319E-005  0.4011665E+03  0.7818608E-02  0.9831819E-01
         21   -1    0    0  501  502  0.00000000000E+00  0.00000000000E+00  0.33908146478E+03  0.33908146478E+03  0.00000000000E+00 0.  1.
          4   -1    0    0  502    0 -0.00000000000E+00 -0.00000000000E+00 -0.19802944478E+04  0.19802944478E+04  0.00000000000E+00 0.  1.
        -13    1    1    2    0    0  0.96123648178E+02  0.25617233586E+03 -0.18480020423E+02  0.27423629176E+03  0.10566000000E+00 0.  1.
         13    1    1    2    0    0  0.17606070677E+03  0.44785434146E+03 -0.75197344734E+03  0.89276814476E+03  0.10566000000E+00 0. -1.
          4    1    1    2  501    0 -0.27218435495E+03 -0.70402667731E+03 -0.87075951523E+03  0.11523714760E+04  0.00000000000E+00 0.  1.
</event>
<event>
 5    1  0.6336319E-005  0.4442801E+03  0.7818608E-02  0.1037161E+00
         21   -1    0    0  501  502  0.00000000000E+00  0.00000000000E+00  0.18936463013E+04  0.18936463013E+04  0.00000000000E+00 0.  1.
          4   -1    0    0  502    0 -0.00000000000E+00 -0.00000000000E+00 -0.12426512848E+03  0.12426512848E+03  0.00000000000E+00 0.  1.
        -13    1    1    2    0    0 -0.20907623375E+03 -0.39258342035E+03  0.55422012350E+03  0.71062969957E+03  0.10566000000E+00 0.  1.
         13    1    1    2    0    0  0.32725278171E+02 -0.15461604968E+02  0.68547566596E+02  0.77516353821E+02  0.10566000000E+00 0. -1.
          4    1    1    2  501    0  0.17635095558E+03  0.40804502532E+03  0.11466134828E+04  0.12297653764E+04  0.00000000000E+00 0.  1.
</event>
<event>
 5    1  0.6336319E-005  0.4051015E+03  0.7818608E-02  0.1024714E+00
         21   -1    0    0  501  502  0.00000000000E+00  0.00000000000E+00  0.16177703970E+03  0.16177703970E+03  0.00000000000E+00 0.  1.
          4   -1    0    0  502    0 -0.00000000000E+00 -0.00000000000E+00 -0.20141019748E+04  0.20141019748E+04  0.00000000000E+00 0.  1.
        -13    1    1    2    0    0 -0.34994944878E+03 -0.18880585010E+03 -0.19815350895E+03  0.44427141480E+03  0.10566000000E+00 0.  1.
         13    1    1    2    0    0 -0.62571921530E+02  0.31578428684E+02 -0.25355548660E+03  0.26306432383E+03  0.10566000000E+00 0. -1.
          4    1    1    2  501    0  0.41252137031E+03  0.15722742141E+03 -0.14006159396E+04  0.14685432759E+04  0.00000000000E+00 0.  1.
</event>
<event>
 5    1  0.6336319E-005  0.6253134E+03  0.7818608E-02  0.9238990E-01
         21   -1    0    0  501  502  0.00000000000E+00  0.00000000000E+00  0.53228027287E+03  0.53228027287E+03  0.00000000000E+00 0. -1.
         -4   -1    0    0    0  501 -0.00000000000E+00 -0.00000000000E+00 -0.25370466031E+04  0.25370466031E+04  0.00000000000E+00 0. -1.
        -13    1    1    2    0    0  0.23764861118E+03  0.70855723112E+03 -0.15741197576E+04  0.17425220902E+04  0.10566000000E+00 0.  1.
         13    1    1    2    0    0  0.20434626224E+03 -0.51458265669E+03 -0.59891504315E+03  0.81562978461E+03  0.10566000000E+00 0. -1.
         -4    1    1    2    0  502 -0.44199487343E+03 -0.19397457443E+03  0.16826847056E+03  0.51117500119E+03  0.00000000000E+00 0. -1.
</event>
<event>
 5    1  0.6336319E-005  0.3608455E+03  0.7818608E-02  0.1007807E+00
         21   -1    0    0  501  502  0.00000000000E+00  0.00000000000E+00  0.12361591323E+03  0.12361591323E+03  0.00000000000E+00 0. -1.
         -4   -1    0    0    0  501 -0.00000000000E+00 -0.00000000000E+00 -0.26833051832E+04  0.26833051832E+04  0.00000000000E+00 0. -1.
        -13    1    1    2    0    0  0.15813256947E+03  0.61367856247E+02 -0.68895514371E+03  0.70952880457E+03  0.10566000000E+00 0.  1.
         13    1    1    2    0    0  0.15282461514E+03 -0.27525798780E+03 -0.16055479868E+04  0.16361255061E+04  0.10566000000E+00 0. -1.
         -4    1    1    2    0  502 -0.31095718461E+03  0.21389013155E+03 -0.26518613949E+03  0.46126678572E+03  0.00000000000E+00 0. -1.
</event>
<event>
 5    1  0.6336319E-005  0.4869915E+03  0.7818608E-02  0.9638577E-01
         -4   -1    0    0    0  501 -0.00000000000E+00  0.00000000000E+00  0.22464342575E+03  0.22464342575E+03  0.00000000000E+00 0. -1.
         21   -1    0    0  501  502  0.00000000000E+00 -0.00000000000E+00 -0.20950760002E+04  0.20950760002E+04  0.00000000000E+00 0. -1.
        -13    1    1    2    0    0  0.30300833291E+03  0.25463040904E+02 -0.23866531209E+03  0.38655343567E+03  0.10566000000E+00 0.  1.
         13    1    1    2    0    0 -0.48646994609E+02  0.45402400143E+03 -0.49488747289E+03  0.67336316052E+03  0.10566000000E+00 0. -1.
         -4    1    1    2    0  502 -0.25436133830E+03 -0.47948704233E+03 -0.11368797895E+04  0.12598028298E+04  0.00000000000E+00 0. -1.
</event>
<event>
 5    1  0.6336319E-005  0.4858108E+03  0.7818608E-02  0.9582147E-01
         21   -1    0    0  501  502  0.00000000000E+00  0.00000000000E+00  0.45210402690E+03  0.45210402690E+03  0.00000000000E+00 0. -1.
         -4   -1    0    0    0  501 -0.00000000000E+00 -0.00000000000E+00 -0.15999660500E+04  0.15999660500E+04  0.00000000000E+00 0. -1.
        -13    1    1    2    0    0 -0.36780160606E+03  0.69043870536E+02 -0.87865526636E+03  0.95502888215E+03  0.10566000000E+00 0.  1.
         13    1    1    2    0    0  0.44472564378E+02  0.40941847407E+03 -0.31394448341E+03  0.51784403610E+03  0.10566000000E+00 0. -1.
         -4    1    1    2    0  502  0.32332904168E+03 -0.47846234461E+03  0.44737726670E+02  0.57919715865E+03  0.00000000000E+00 0. -1.
</event>
<event>
 5    1  0.6336319E-005  0.4095951E+03  0.7818608E-02  0.1008283E+00
         -4   -1    0    0    0  501 -0.00000000000E+00  0.00000000000E+00  0.14003676744E+04  0.14003676744E+04  0.00000000000E+00 0. -1.
         21   -1    0    0  501  502  0.00000000000E+00 -0.00000000000E+00 -0.32776186272E+03  0.32776186272E+03  0.00000000000E+00 0. -1.
        -13    1    1    2    0    0 -0.11365974709E+03 -0.11239185881E+02  0.58397627015E+03  0.59504046306E+03  0.10566000000E+00 0.  1.
         13    1    1    2    0    0  0.38487962541E+03 -0.18997860573E+03 -0.11239366809E+03  0.44368518623E+03  0.10566000000E+00 0. -1.
         -4    1    1    2    0  502 -0.27121987832E+03  0.20121779161E+03  0.60102320957E+03  0.68940388779E+03  0.00000000000E+00 0. -1.
</event>
<event>
 5    1  0.6336319E-005  0.3958925E+03  0.7818608E-02  0.1015669E+00
          4   -1    0    0  502    0 -0.00000000000E+00  0.00000000000E+00  0.24655385993E+04  0.24655385993E+04  0.00000000000E+00 0.  1.
         21   -1    0    0  501  502  0.00000000000E+00 -0.00000000000E+00 -0.10924806056E+03  0.10924806056E+03  0.00000000000E+00 0.  1.
        -13    1    1    2    0    0 -0.32355747691E+03 -0.69329867096E+02  0.16680070250E+04  0.17005127221E+04  0.10566000000E+00 0.  1.
         13    1    1    2    0    0 -0.68131417474E+02 -0.72997981536E+02  0.25137257835E+03  0.27047879707E+03  0.10566000000E+00 0. -1.
          4    1    1    2  501    0  0.39168889439E+03  0.14232784863E+03  0.43691093541E+03  0.60379514072E+03  0.00000000000E+00 0.  1.
</event>
<event>
 5    1  0.6336319E-005  0.5781676E+02  0.7818608E-02  0.1262873E+00
         21   -1    0    0  501  502  0.00000000000E+00  0.00000000000E+00  0.19984184726E+03  0.19984184726E+03  0.00000000000E+00 0.  1.
         -4   -1    0    0    0  501 -0.00000000000E+00 -0.00000000000E+00 -0.54126521126E+02  0.54126521126E+02  0.00000000000E+00 0. -1.
        -13    1    1    2    0    0  0.68580954346E+02  0.14989146936E+02  0.95125032671E+02  0.11822353755E+03  0.10566000000E+00 0.  1.
         13    1    1    2    0    0 -0.53721272847E+02 -0.14635001828E+02 -0.23312130251E+02  0.60362447065E+02  0.10566000000E+00 0. -1.
         -4    1    1    2    0  502 -0.14859681500E+02 -0.35414510821E+00  0.73902423710E+02  0.75382383773E+02  0.00000000000E+00 0. -1.
</event>
<event>
 5    1  0.6336319E-005  0.4881753E+03  0.7818608E-02  0.9632959E-01
          4   -1    0    0  502    0 -0.00000000000E+00  0.00000000000E+00  0.28431604621E+04  0.28431604621E+04  0.00000000000E+00 0.  1.
         21   -1    0    0  501  502  0.00000000000E+00 -0.00000000000E+00 -0.20571230828E+03  0.20571230828E+03  0.00000000000E+00 0.  1.
        -13    1    1    2    0    0  0.13176089666E+03 -0.32526326861E+03  0.79710485863E+03  0.87093816922E+03  0.10566000000E+00 0.  1.
         13    1    1    2    0    0  0.29162135589E+03 -0.98839780003E+02  0.14021298923E+04  0.14355419058E+04  0.10566000000E+00 0. -1.
          4    1    1    2  501    0 -0.42338225255E+03  0.42410304861E+03  0.43821340290E+03  0.74239269534E+03  0.00000000000E+00 0.  1.
</event>
<event>
 5    1  0.6336319E-005  0.5135236E+03  0.7818608E-02  0.9835354E-01
          4   -1    0    0  502    0 -0.00000000000E+00  0.00000000000E+00  0.16822949192E+04  0.16822949192E+04  0.00000000000E+00 0.  1.
         21   -1    0    0  501  502  0.00000000000E+00 -0.00000000000E+00 -0.20465290780E+03  0.20465290780E+03  0.00000000000E+00 0.  1.
        -13    1    1    2    0    0 -0.44653776884E+03  0.27944603411E+03  0.67726364377E+03  0.85800473152E+03  0.10566000000E+00 0.  1.
         13    1    1    2    0    0  0.96424117261E+02  0.89168163092E+02  0.10842487557E+03  0.17030718278E+03  0.10566000000E+00 0. -1.
          4    1    1    2  501    0  0.35011365158E+03 -0.36861419720E+03  0.69195349209E+03  0.85863591273E+03  0.00000000000E+00 0.  1.
</event>
<event>
 5    1  0.6336319E-005  0.4848926E+03  0.7818608E-02  0.9640314E-01
          4   -1    0    0  502    0 -0.00000000000E+00  0.00000000000E+00  0.10280896671E+04  0.10280896671E+04  0.00000000000E+00 0.  1.
         21   -1    0    0  501  502  0.00000000000E+00 -0.00000000000E+00 -0.45319450004E+03  0.45319450004E+03  0.00000000000E+00 0.  1.
        -13    1    1    2    0    0 -0.22861154796E+03 -0.37307432808E+03  0.25504119557E+03  0.50645208730E+03  0.10566000000E+00 0.  1.
         13    1    1    2    0    0  0.24478252405E+03 -0.18388975771E+03  0.28217426439E+03  0.41636072547E+03  0.10566000000E+00 0. -1.
          4    1    1    2  501    0 -0.16170976083E+02  0.55696408579E+03  0.37679707124E+02  0.55847135438E+03  0.00000000000E+00 0.  1.
</event>
<event>
 5    1  0.6336319E-005  0.3242933E+03  0.7818608E-02  0.1021885E+00
          4   -1    0    0  502    0 -0.00000000000E+00  0.00000000000E+00  0.12010442906E+04  0.12010442906E+04  0.00000000000E+00 0.  1.
         21   -1    0    0  501  502  0.00000000000E+00 -0.00000000000E+00 -0.49760947969E+03  0.49760947969E+03  0.00000000000E+00 0.  1.
        -13    1    1    2    0    0  0.91742965743E+02 -0.98975308315E+02  0.62006492963E+03  0.63458128836E+03  0.10566000000E+00 0.  1.
         13    1    1    2    0    0  0.17314623635E+02  0.40438096640E+03  0.42922256245E+03  0.58996252547E+03  0.10566000000E+00 0. -1.
          4    1    1    2  501    0 -0.10905758938E+03 -0.30540565808E+03 -0.34585268114E+03  0.47410995649E+03  0.00000000000E+00 0.  1.
</event>
<event>
 5    1  0.6336319E-005  0.1345471E+03  0.7818608E-02  0.1117438E+00
         21   -1    0    0  501  502  0.00000000000E+00  0.00000000000E+00  0.10770927263E+04  0.10770927263E+04  0.00000000000E+00 0. -1.
         -4   -1    0    0    0  501 -0.00000000000E+00 -0.00000000000E+00 -0.80928757031E+02  0.80928757031E+02  0.00000000000E+00 0. -1.
        -13    1    1    2    0    0 -0.11773189256E+03  0.17418107953E+02  0.35664130981E+03  0.37597503114E+03  0.10566000000E+00 0.  1.
         13    1    1    2    0    0  0.13754270130E+03 -0.12730803680E+01 -0.43979171519E+01  0.13761892404E+03  0.10566000000E+00 0. -1.
         -4    1    1    2    0  502 -0.19810808742E+02 -0.16145027585E+02  0.64392057659E+03  0.64442752813E+03  0.00000000000E+00 0. -1.
</event>
<event>
 5    1  0.6336319E-005  0.4843507E+03  0.7818608E-02  0.9835332E-01
         21   -1    0    0  501  502  0.00000000000E+00  0.00000000000E+00  0.23783201683E+03  0.23783201683E+03  0.00000000000E+00 0.  1.
          4   -1    0    0  502    0 -0.00000000000E+00 -0.00000000000E+00 -0.13922836445E+04  0.13922836445E+04  0.00000000000E+00 0.  1.
        -13    1    1    2    0    0  0.55510748234E+03 -0.26716987950E+02 -0.51668466354E+03  0.75882881277E+03  0.10566000000E+00 0.  1.
         13    1    1    2    0    0 -0.12795643194E+03  0.90168042508E+02 -0.22354851030E+03  0.27290487718E+03  0.10566000000E+00 0. -1.
          4    1    1    2  501    0 -0.42715105041E+03 -0.63451054559E+02 -0.41421845383E+03  0.59838197139E+03  0.00000000000E+00 0.  1.
</event>
<event>
 5    1  0.6336319E-005  0.6378224E+02  0.7818608E-02  0.1253362E+00
         21   -1    0    0  501  502  0.00000000000E+00  0.00000000000E+00  0.76328986695E+02  0.76328986695E+02  0.00000000000E+00 0. -1.
         -4   -1    0    0    0  501 -0.00000000000E+00 -0.00000000000E+00 -0.22369810013E+03  0.22369810013E+03  0.00000000000E+00 0. -1.
        -13    1    1    2    0    0  0.42542827292E+02  0.30662539873E+02 -0.92078298178E+01  0.53243579889E+02  0.10566000000E+00 0.  1.
         13    1    1    2    0    0 -0.88399217087E+02 -0.65504324510E+02 -0.15191523071E+03  0.18757261687E+03  0.10566000000E+00 0. -1.
         -4    1    1    2    0  502  0.45856389796E+02  0.34841784637E+02  0.13753947098E+02  0.59210890067E+02  0.00000000000E+00 0. -1.
</event>
<event>
 5    1  0.6336319E-005  0.4737149E+03  0.7818608E-02  0.9726780E-01
          4   -1    0    0  502    0 -0.00000000000E+00  0.00000000000E+00  0.16635847750E+04  0.16635847750E+04  0.00000000000E+00 0.  1.
         21   -1    0    0  501  502  0.00000000000E+00 -0.00000000000E+00 -0.50173964139E+03  0.50173964139E+03  0.00000000000E+00 0.  1.
        -13    1    1    2    0    0  0.32767883241E+03  0.30028123237E+03 -0.11579000709E+03  0.45929246959E+03  0.10566000000E+00 0.  1.
         13    1    1    2    0    0 -0.92726186145E+02  0.22430463091E+03  0.10663619689E+04  0.10936354845E+04  0.10566000000E+00 0. -1.
          4    1    1    2  501    0 -0.23495264626E+03 -0.52458586328E+03  0.21127317180E+03  0.61239646232E+03  0.00000000000E+00 0.  1.
</event>
<event>
 5    1  0.6336319E-005  0.5566125E+03  0.7818608E-02  0.9367786E-01
         21   -1    0    0  501  502  0.00000000000E+00  0.00000000000E+00  0.46285603473E+03  0.46285603473E+03  0.00000000000E+00 0. -1.
         -4   -1    0    0    0  501 -0.00000000000E+00 -0.00000000000E+00 -0.18080617143E+04  0.18080617143E+04  0.00000000000E+00 0. -1.
        -13    1    1    2    0    0  0.35648734388E+02  0.60252461860E+03 -0.73902322940E+03  0.95418137324E+03  0.10566000000E+00 0.  1.
         13    1    1    2    0    0  0.47648942307E+03 -0.38450632786E+03 -0.31460720258E+03  0.68837852199E+03  0.10566000000E+00 0. -1.
         -4    1    1    2    0  502 -0.51213815746E+03 -0.21801829075E+03 -0.29157524758E+03  0.62835785380E+03  0.00000000000E+00 0. -1.
</event>
<event>
 5    1  0.6336319E-005  0.8753734E+02  0.7818608E-02  0.1187004E+00
         21   -1    0    0  501  502  0.00000000000E+00  0.00000000000E+00  0.15233526035E+02  0.15233526035E+02  0.00000000000E+00 0. -1.
          4   -1    0    0  502    0 -0.00000000000E+00 -0.00000000000E+00 -0.10884012451E+04  0.10884012451E+04  0.00000000000E+00 0.  1.
        -13    1    1    2    0    0  0.71187908963E+02 -0.29948222915E+02 -0.32966540202E+03  0.33859105554E+03  0.10566000000E+00 0.  1.
         13    1    1    2    0    0 -0.58565257789E+02  0.88227103605E+02 -0.60578436696E+03  0.61497042340E+03  0.10566000000E+00 0. -1.
          4    1    1    2  501    0 -0.12622651174E+02 -0.58278880690E+02 -0.13771795010E+03  0.15007329221E+03  0.00000000000E+00 0.  1.
</event>
<event>
 5    1  0.6336319E-005  0.3366947E+03  0.7818608E-02  0.9932157E-01
         -4   -1    0    0    0  501 -0.00000000000E+00  0.00000000000E+00  0.16778047007E+04  0.16778047007E+04  0.00000000000E+00 0. -1.
         21   -1    0    0  501  502  0.00000000000E+00 -0.00000000000E+00 -0.52131132089E+03  0.52131132089E+03  0.00000000000E+00 0. -1.
        -13    1    1    2    0    0 -0.40438340929E+03  0.28371794716E+03  0.94614023873E+03  0.10673346138E+04  0.10566000000E+00 0.  1.
         13    1    1    2    0    0  0.11014340971E+03 -0.25356077292E+03  0.58938513265E+03  0.65099883412E+03  0.10566000000E+00 0. -1.
         -4    1    1    2    0  502  0.29423999958E+03 -0.30157174247E+02 -0.37903199159E+03  0.48078257368E+03  0.00000000000E+00 0. -1.
</event>
<event>
 5    1  0.6336319E-005  0.4442320E+03  0.7818608E-02  0.1027925E+00
          4   -1    0    0  502    0 -0.00000000000E+00  0.00000000000E+00  0.13139433670E+04  0.13139433670E+04  0.00000000000E+00 0.  1.
         21   -1    0    0  501  502  0.00000000000E+00 -0.00000000000E+00 -0.22396731548E+03  0.22396731548E+03  0.00000000000E+00 0.  1.
        -13    1    1    2    0    0 -0.11282948353E+02  0.44664331420E+03  0.15336583989E+03  0.47237553604E+03  0.10566000000E+00 0.  1.
         13    1    1    2    0    0  0.47346484270E+02 -0.84561557123E+01  0.21678442333E+03  0.22205560904E+03  0.10566000000E+00 0. -1.
          4    1    1    2  501    0 -0.36063535917E+02 -0.43818715849E+03  0.71982578825E+03  0.84347953735E+03  0.00000000000E+00 0.  1.
</event>
<event>
 5    1  0.6336319E-005  0.3813122E+02  0.7818608E-02  0.1349426E+00
         21   -1    0    0  501  502  0.00000000000E+00  0.00000000000E+00  0.35352777819E+02  0.35352777819E+02  0.00000000000E+00 0. -1.
         -4   -1    0    0    0  501 -0.00000000000E+00 -0.00000000000E+00 -0.83836709107E+02  0.83836709107E+02  0.00000000000E+00 0. -1.
        -13    1    1    2    0    0 -0.31589702965E+02 -0.19277948462E+02 -0.44368414298E+02  0.57776431022E+02  0.10566000000E+00 0.  1.
         13    1    1    2    0    0  0.26928020370E+02  0.34962902024E+02  0.13782550941E+01  0.44152390084E+02  0.10566000000E+00 0. -1.
         -4    1    1    2    0  502  0.46616825948E+01 -0.15684953561E+02 -0.54937720839E+01  0.17260665820E+02  0.00000000000E+00 0. -1.
</event>
<event>
 5    1  0.6336319E-005  0.4953482E+03  0.7818608E-02  0.9673310E-01
          4   -1    0    0  502    0 -0.00000000000E+00  0.00000000000E+00  0.29752826918E+03  0.29752826918E+03  0.00000000000E+00 0.  1.
         21   -1    0    0  501  502  0.00000000000E+00 -0.00000000000E+00 -0.14002423915E+04  0.14002423915E+04  0.00000000000E+00 0.  1.
        -13    1    1    2    0    0 -0.46093954354E+03  0.28364790364E+03 -0.63841286659E+03  0.83695423736E+03  0.10566000000E+00 0.  1.
         13    1    1    2    0    0 -0.69989692170E+01 -0.25563954642E+03 -0.17680342920E+03  0.31090195722E+03  0.10566000000E+00 0. -1.
          4    1    1    2  501    0  0.46793851276E+03 -0.28008357222E+02 -0.28749782657E+03  0.54991446615E+03  0.00000000000E+00 0.  1.
</event>
<event>
 5    1  0.6336319E-005  0.5052390E+03  0.7818608E-02  0.9699196E-01
          4   -1    0    0  502    0 -0.00000000000E+00  0.00000000000E+00  0.25045885837E+04  0.25045885837E+04  0.00000000000E+00 0.  1.
         21   -1    0    0  501  502  0.00000000000E+00 -0.00000000000E+00 -0.16463686858E+03  0.16463686858E+03  0.00000000000E+00 0.  1.
        -13    1    1    2    0    0 -0.54295443532E+03  0.19305739649E+03  0.12245577007E+04  0.13533706997E+04  0.10566000000E+00 0.  1.
         13    1    1    2    0    0  0.72796651797E+02 -0.20779312057E+03  0.26986075940E+03  0.34828461650E+03  0.10566000000E+00 0. -1.
          4    1    1    2  501    0  0.47015778352E+03  0.14735724075E+02  0.84553325501E+03  0.96757013611E+03  0.00000000000E+00 0.  1.
</event>
<event>
 5    1  0.6336319E-005  0.3300766E+02  0.7818608E-02  0.1411366E+00
         21   -1    0    0  501  502  0.00000000000E+00  0.00000000000E+00  0.84016095300E+02  0.84016095300E+02  0.00000000000E+00 0. -1.
         -4   -1    0    0    0  501 -0.00000000000E+00 -0.00000000000E+00 -0.26250097373E+02  0.26250097373E+02  0.00000000000E+00 0. -1.
        -13    1    1    2    0    0 -0.19076972556E+02 -0.67719361015E+01  0.27585700140E+02  0.34216545950E+02  0.10566000000E+00 0.  1.
         13    1    1    2    0    0  0.40250045663E+02  0.19201651423E+02  0.24368095758E+02  0.50819138601E+02  0.10566000000E+00 0. -1.
         -4    1    1    2    0  502 -0.21173073106E+02 -0.12429715321E+02  0.58122020284E+01  0.25230508123E+02  0.00000000000E+00 0. -1.
</event>
<event>
 5    1  0.6336319E-005  0.4360640E+03  0.7818608E-02  0.9999578E-01
         21   -1    0    0  501  502  0.00000000000E+00  0.00000000000E+00  0.59331814990E+03  0.59331814990E+03  0.00000000000E+00 0.  1.
          4   -1    0    0  502    0 -0.00000000000E+00 -0.00000000000E+00 -0.99111850576E+03  0.99111850576E+03  0.00000000000E+00 0.  1.
        -13    1    1    2    0    0 -0.44749754819E+03  0.24622228743E+03 -0.13014861673E+03  0.52708457013E+03  0.10566000000E+00 0.  1.
         13    1    1    2    0    0  0.57969576605E+02 -0.10968991628E+03 -0.54573121320E+03  0.55965607096E+03  0.10566000000E+00 0. -1.
          4    1    1    2  501    0  0.38952797159E+03 -0.13653237115E+03  0.27807947406E+03  0.49769601457E+03  0.00000000000E+00 0.  1.
</event>
<event>
 5    1  0.6336319E-005  0.4794080E+03  0.7818608E-02  0.9882550E-01
         -4   -1    0    0    0  501 -0.00000000000E+00  0.00000000000E+00  0.17961728840E+04  0.17961728840E+04  0.00000000000E+00 0. -1.
         21   -1    0    0  501  502  0.00000000000E+00 -0.00000000000E+00 -0.19559143476E+03  0.19559143476E+03  0.00000000000E+00 0. -1.
        -13    1    1    2    0    0 -0.31240670031E+02 -0.13406427773E+03  0.39347956583E+03  0.41686375462E+03  0.10566000000E+00 0.  1.
         13    1    1    2    0    0  0.28047024314E+03 -0.34902189187E+03  0.39161554256E+03  0.59484668834E+03  0.10566000000E+00 0. -1.
         -4    1    1    2    0  502 -0.24922957311E+03  0.48308616960E+03  0.81548634090E+03  0.98005387585E+03  0.00000000000E+00 0. -1.
</event>
<event>
 5    1  0.6336319E-005  0.1722396E+03  0.7818608E-02  0.1081035E+00
         -4   -1    0    0    0  501 -0.00000000000E+00  0.00000000000E+00  0.11547904308E+04  0.11547904308E+04  0.00000000000E+00 0. -1.
         21   -1    0    0  501  502  0.00000000000E+00 -0.00000000000E+00 -0.85743732583E+02  0.85743732583E+02  0.00000000000E+00 0.  1.
        -13    1    1    2    0    0  0.95861014381E+02 -0.78572732284E+02 -0.13342029309E+02  0.12466366450E+03  0.10566000000E+00 0.  1.
         13    1    1    2    0    0 -0.16061221190E+03  0.77448355396E+02  0.96918907426E+03  0.98545522638E+03  0.10566000000E+00 0. -1.
         -4    1    1    2    0  502  0.64751197518E+02  0.11243768879E+01  0.11319965327E+03  0.13041527251E+03  0.00000000000E+00 0. -1.
</event>
<event>
 5    1  0.6336319E-005  0.2590720E+03  0.7818608E-02  0.1025796E+00
          4   -1    0    0  502    0 -0.00000000000E+00  0.00000000000E+00  0.37170979834E+03  0.37170979834E+03  0.00000000000E+00 0.  1.
         21   -1    0    0  501  502  0.00000000000E+00 -0.00000000000E+00 -0.11470145351E+04  0.11470145351E+04  0.00000000000E+00 0.  1.
        -13    1    1    2    0    0  0.23273765020E+03 -0.14123150067E+03  0.21106717834E+03  0.34447425961E+03  0.10566000000E+00 0.  1.
         13    1    1    2    0    0 -0.26212636800E+03 -0.36984362678E+02 -0.12249074311E+03  0.29168830830E+03  0.10566000000E+00 0. -1.
          4    1    1    2  501    0  0.29388717804E+02  0.17821586335E+03 -0.86388117198E+03  0.88256176553E+03  0.00000000000E+00 0.  1.
</event>
<event>
 5    1  0.6336319E-005  0.5283977E+03  0.7818608E-02  0.9724196E-01
          4   -1    0    0  502    0 -0.00000000000E+00  0.00000000000E+00  0.29673719435E+04  0.29673719435E+04  0.00000000000E+00 0.  1.
         21   -1    0    0  501  502  0.00000000000E+00 -0.00000000000E+00 -0.15563146727E+03  0.15563146727E+03  0.00000000000E+00 0.  1.
        -13    1    1    2    0    0 -0.27280247487E+02  0.59443582761E+03  0.76638301414E+03  0.97027887773E+03  0.10566000000E+00 0.  1.
         13    1    1    2    0    0  0.92890268384E+02 -0.15003546334E+03  0.99209340528E+03  0.10076649136E+04  0.10566000000E+00 0. -1.
          4    1    1    2  501    0 -0.65610020897E+02 -0.44440036427E+03  0.10532640568E+04  0.11450596194E+04  0.00000000000E+00 0.  1.
</event>
<event>
 5    1  0.6336319E-005  0.2422065E+03  0.7818608E-02  0.1034512E+00
         -4   -1    0    0    0  501 -0.00000000000E+00  0.00000000000E+00  0.50960158223E+03  0.50960158223E+03  0.00000000000E+00 0. -1.
         21   -1    0    0  501  502  0.00000000000E+00 -0.00000000000E+00 -0.31600170184E+03  0.31600170184E+03  0.00000000000E+00 0. -1.
        -13    1    1    2    0    0 -0.13378749477E+03  0.20044804685E+03 -0.64213010013E+02  0.24940295720E+03  0.10566000000E+00 0.  1.
         13    1    1    2    0    0  0.15700961901E+03 -0.18516712347E+03  0.37997783759E+03  0.45091246634E+03  0.10566000000E+00 0. -1.
         -4    1    1    2    0  502 -0.23222124239E+02 -0.15280923376E+02 -0.12216494719E+03  0.12528786053E+03  0.00000000000E+00 0. -1.
</event>
<event>
 5    1  0.6336319E-005  0.4437940E+03  0.7818608E-02  0.9699153E-01
         -4   -1    0    0    0  501 -0.00000000000E+00  0.00000000000E+00  0.13380063884E+04  0.13380063884E+04  0.00000000000E+00 0. -1.
         21   -1    0    0  501  502  0.00000000000E+00 -0.00000000000E+00 -0.39294658306E+03  0.39294658306E+03  0.00000000000E+00 0. -1.
        -13    1    1    2    0    0 -0.46008900699E+02  0.32165050557E+03  0.33060311915E+03  0.46354535941E+03  0.10566000000E+00 0.  1.
         13    1    1    2    0    0  0.43151737527E+03 -0.48249971624E+02  0.66276146771E+03  0.79233078898E+03  0.10566000000E+00 0. -1.
         -4    1    1    2    0  502 -0.38550847457E+03 -0.27340053395E+03 -0.48304781485E+02  0.47507682310E+03  0.00000000000E+00 0. -1.
</event>
<event>
 5    1  0.6336319E-005  0.2726068E+03  0.7818608E-02  0.1019300E+00
         21   -1    0    0  501  502  0.00000000000E+00  0.00000000000E+00  0.11660025641E+03  0.11660025641E+03  0.00000000000E+00 0.  1.
          4   -1    0    0  502    0 -0.00000000000E+00 -0.00000000000E+00 -0.19222530149E+04  0.19222530149E+04  0.00000000000E+00 0.  1.
        -13    1    1    2    0    0 -0.24985677683E+03  0.10981935756E+03 -0.16369373049E+04  0.16595338055E+04  0.10566000000E+00 0.  1.
         13    1    1    2    0    0  0.24226406402E+03 -0.12144670356E+03 -0.20543237699E+03  0.34006418688E+03  0.10566000000E+00 0. -1.
          4    1    1    2  501    0  0.75927128156E+01  0.11627346000E+02  0.36716923380E+02  0.39255278950E+02  0.00000000000E+00 0.  1.
</event>
<event>
 5    1  0.6336319E-005  0.2998359E+03  0.7818608E-02  0.1026064E+00
         -4   -1    0    0    0  501 -0.00000000000E+00  0.00000000000E+00  0.21791265295E+04  0.21791265295E+04  0.00000000000E+00 0. -1.
         21   -1    0    0  501  502  0.00000000000E+00 -0.00000000000E+00 -0.17808142803E+03  0.17808142803E+03  0.00000000000E+00 0. -1.
        -13    1    1    2    0    0  0.11551421693E+03 -0.11883970442E+03  0.59607823539E+03  0.61868868062E+03  0.10566000000E+00 0.  1.
         13    1    1    2    0    0  0.77717507600E+02 -0.27473122772E+03  0.20457519904E+02  0.28624426589E+03  0.10566000000E+00 0. -1.
         -4    1    1    2    0  502 -0.19323172453E+03  0.39357093214E+03  0.13845093462E+04  0.14522750110E+04  0.00000000000E+00 0. -1.
</event>
<event>
 5    1  0.6336319E-005  0.5732654E+03  0.7818608E-02  0.9479236E-01
         -4   -1    0    0    0  501 -0.00000000000E+00  0.00000000000E+00  0.11846703097E+04  0.11846703097E+04  0.00000000000E+00 0. -1.
         21   -1    0    0  501  502  0.00000000000E+00 -0.00000000000E+00 -0.77373999157E+03  0.77373999157E+03  0.00000000000E+00 0. -1.
        -13    1    1    2    0    0  0.30733620811E+03  0.12079884335E+03  0.63806286354E+03  0.71845120527E+03  0.10566000000E+00 0.  1.
         13    1    1    2    0    0  0.26391901914E+03  0.28154429906E+03  0.18584076946E+03  0.42831909105E+03  0.10566000000E+00 0. -1.
         -4    1    1    2    0  502 -0.57125522725E+03 -0.40234314242E+03 -0.41297331484E+03  0.81164000498E+03  0.00000000000E+00 0. -1.
</event>
<event>
 5    1  0.6336319E-005  0.7508700E+02  0.7818608E-02  0.1213980E+00
          4   -1    0    0  502    0 -0.00000000000E+00  0.00000000000E+00  0.41369426158E+03  0.41369426158E+03  0.00000000000E+00 0.  1.
         21   -1    0    0  501  502  0.00000000000E+00 -0.00000000000E+00 -0.49507763175E+02  0.49507763175E+02  0.00000000000E+00 0. -1.
        -13    1    1    2    0    0  0.63230215877E+02  0.36438353708E+02  0.32948629212E+03  0.33747154203E+03  0.10566000000E+00 0.  1.
         13    1    1    2    0    0 -0.88950250966E+02 -0.32535413892E+02  0.29497255953E+02  0.99200804316E+02  0.10566000000E+00 0. -1.
          4    1    1    2  501    0  0.25720035089E+02 -0.39029398158E+01  0.52029503284E+01  0.26529678406E+02  0.00000000000E+00 0.  1.
</event>
<event>
 5    1  0.6336319E-005  0.2515436E+03  0.7818608E-02  0.1029596E+00
          4   -1    0    0  502    0 -0.00000000000E+00  0.00000000000E+00  0.23474892071E+03  0.23474892071E+03  0.00000000000E+00 0.  1.
         21   -1    0    0  501  502  0.00000000000E+00 -0.00000000000E+00 -0.16406163134E+04  0.16406163134E+04  0.00000000000E+00 0.  1.
        -13    1    1    2    0    0  0.32775658791E+03 -0.20274380120E+03 -0.18681560514E+03  0.42828671627E+03  0.10566000000E+00 0.  1.
         13    1    1    2    0    0 -0.14305606891E+03  0.15309402682E+03  0.35971699836E+01  0.20956089973E+03  0.10566000000E+00 0. -1.
          4    1    1    2  501    0 -0.18470051900E+03  0.49649774382E+02 -0.12226489575E+04  0.12375176181E+04  0.00000000000E+00 0.  1.
</event>
<event>
 5    1  0.6336319E-005  0.4773894E+03  0.7818608E-02  0.9591307E-01
         21   -1    0    0  501  502  0.00000000000E+00  0.00000000000E+00  0.21310127908E+03  0.21310127908E+03  0.00000000000E+00 0. -1.
         -4   -1    0    0    0  501 -0.00000000000E+00 -0.00000000000E+00 -0.25330999688E+04  0.25330999688E+04  0.00000000000E+00 0. -1.
        -13    1    1    2    0    0 -0.28974281968E+03 -0.24848772957E+03 -0.71697736865E+03  0.81225218475E+03  0.10566000000E+00 0.  1.
         13    1    1    2    0    0  0.53600832105E+03 -0.16651627701E+03 -0.11112534909E+04  0.12449565948E+04  0.10566000000E+00 0. -1.
         -4    1    1    2    0  502 -0.24626550137E+03  0.41500400658E+03 -0.49176783023E+03  0.68899246839E+03  0.00000000000E+00 0. -1.
</event>
<event>
 5    1  0.6336319E-005  0.4689327E+03  0.7818608E-02  0.9871101E-01
         21   -1    0    0  501  502  0.00000000000E+00  0.00000000000E+00  0.22880849311E+03  0.22880849311E+03  0.00000000000E+00 0. -1.
         -4   -1    0    0    0  501 -0.00000000000E+00 -0.00000000000E+00 -0.14744068388E+04  0.14744068388E+04  0.00000000000E+00 0. -1.
        -13    1    1    2    0    0  0.12654278157E+03  0.85749533543E+02 -0.18079520665E+03  0.23675509706E+03  0.10566000000E+00 0.  1.
         13    1    1    2    0    0  0.27646854920E+03 -0.37269759204E+03 -0.29009655420E+03  0.54726079316E+03  0.10566000000E+00 0. -1.
         -4    1    1    2    0  502 -0.40301133076E+03  0.28694805850E+03 -0.77470658479E+03  0.91919944164E+03  0.00000000000E+00 0. -1.
</event>
<event>
 5    1  0.6336319E-005  0.3986418E+03  0.7818608E-02  0.1005740E+00
          4   -1    0    0  502    0 -0.00000000000E+00  0.00000000000E+00  0.20485048674E+04  0.20485048674E+04  0.00000000000E+00 0.  1.
         21   -1    0    0  501  502  0.00000000000E+00 -0.00000000000E+00 -0.16923861457E+03  0.16923861457E+03  0.00000000000E+00 0.  1.
        -13    1    1    2    0    0  0.31899613216E+03  0.39469295945E+03  0.13457180330E+04  0.14382274160E+04  0.10566000000E+00 0.  1.
         13    1    1    2    0    0 -0.93897597943E+02 -0.96302975861E+02  0.32446458173E+03  0.35123823542E+03  0.10566000000E+00 0. -1.
          4    1    1    2  501    0 -0.22509853422E+03 -0.29838998358E+03  0.20908363802E+03  0.42827783050E+03  0.00000000000E+00 0.  1.
</event>
<event>
 5    1  0.6336319E-005  0.1902257E+02  0.7818608E-02  0.1563264E+00
         21   -1    0    0  501  502  0.00000000000E+00  0.00000000000E+00  0.95969281878E+02  0.95969281878E+02  0.00000000000E+00 0. -1.
         -4   -1    0    0    0  501 -0.00000000000E+00 -0.00000000000E+00 -0.24223067112E+02  0.24223067112E+02  0.00000000000E+00 0. -1.
        -13    1    1    2    0    0 -0.44535617154E+00 -0.11060753925E+02 -0.14588135416E+01  0.11165926764E+02  0.10566000000E+00 0.  1.
         13    1    1    2    0    0 -0.20425881557E+01  0.29258333043E+02 -0.40590695450E+01  0.29609279432E+02  0.10566000000E+00 0. -1.
         -4    1    1    2    0  502  0.24879443273E+01 -0.18197579118E+02  0.77264097852E+02  0.79417142794E+02  0.00000000000E+00 0. -1.
</event>
<event>
 5    1  0.6336319E-005  0.4307108E+03  0.7818608E-02  0.9765619E-01
         -4   -1    0    0    0  501 -0.00000000000E+00  0.00000000000E+00  0.12258543797E+04  0.12258543797E+04  0.00000000000E+00 0. -1.
         21   -1    0    0  501  502  0.00000000000E+00 -0.00000000000E+00 -0.40031018607E+03  0.40031018607E+03  0.00000000000E+00 0. -1.
        -13    1    1    2    0    0 -0.88205277560E+02  0.26828446282E+03  0.44856916625E+03  0.53006700713E+03  0.10566000000E+00 0.  1.
         13    1    1    2    0    0 -0.79198990504E+02 -0.60575881881E+03  0.37984383444E+03  0.71937304397E+03  0.10566000000E+00 0. -1.
         -4    1    1    2    0  502  0.16740426806E+03  0.33747435599E+03 -0.28688070368E+01  0.37672451470E+03  0.00000000000E+00 0. -1.
</event>
<event>
 5    1  0.1088201E-004  0.3133717E+03  0.7818608E-02  0.1024706E+00
          4   -1    0    0  502    0 -0.00000000000E+00  0.00000000000E+00  0.18286911693E+04  0.18286911693E+04  0.00000000000E+00 0.  1.
         21   -1    0    0  501  502  0.00000000000E+00 -0.00000000000E+00 -0.20042743828E+03  0.20042743828E+03  0.00000000000E+00 0.  1.
        -13    1    1    2    0    0 -0.20351743071E+03  0.14597468916E+03  0.12002320525E+04  0.12260852113E+04  0.10566000000E+00 0.  1.
         13    1    1    2    0    0 -0.11686860835E+03 -0.96327416188E+02  0.45321148913E+03  0.47784715942E+03  0.10566000000E+00 0. -1.
          4    1    1    2  501    0  0.32038603906E+03 -0.49647272971E+02 -0.25179810626E+02  0.32518623680E+03  0.00000000000E+00 0.  1.
</event>
<event>
 5    1  0.6336319E-005  0.2881961E+03  0.7818608E-02  0.1012300E+00
         21   -1    0    0  501  502  0.00000000000E+00  0.00000000000E+00  0.36792192106E+03  0.36792192106E+03  0.00000000000E+00 0.  1.
          4   -1    0    0  502    0 -0.00000000000E+00 -0.00000000000E+00 -0.17133745589E+04  0.17133745589E+04  0.00000000000E+00 0.  1.
        -13    1    1    2    0    0 -0.27684682758E+03  0.38838463647E+03  0.13971923426E+03  0.49699926295E+03  0.10566000000E+00 0.  1.
         13    1    1    2    0    0  0.24784415591E+03 -0.12818543089E+03 -0.92092712438E+03  0.96227075706E+03  0.10566000000E+00 0. -1.
          4    1    1    2  501    0  0.29002671663E+02 -0.26019920558E+03 -0.56424474772E+03  0.62202645995E+03  0.00000000000E+00 0.  1.
</event>
<event>
 5    1  0.6336319E-005  0.3501567E+03  0.7818608E-02  0.9885199E-01
         21   -1    0    0  501  502  0.00000000000E+00  0.00000000000E+00  0.12684945765E+04  0.12684945765E+04  0.00000000000E+00 0. -1.
         -4   -1    0    0    0  501 -0.00000000000E+00 -0.00000000000E+00 -0.23110695391E+03  0.23110695391E+03  0.00000000000E+00 0. -1.
        -13    1    1    2    0    0 -0.22344113252E+03  0.24937573363E+03  0.20154594403E+03  0.39081322259E+03  0.10566000000E+00 0.  1.
         13    1    1    2    0    0  0.26248244978E+03 -0.25098711538E+03  0.10658616736E+03  0.37848671148E+03  0.10566000000E+00 0. -1.
         -4    1    1    2    0  502 -0.39041317253E+02  0.16113817493E+01  0.72925551120E+03  0.73030159634E+03  0.00000000000E+00 0. -1.
</event>
<event>
 5    1  0.6336319E-005  0.4313111E+03  0.7818608E-02  0.9908772E-01
         21   -1    0    0  501  502  0.00000000000E+00  0.00000000000E+00  0.15462159247E+04  0.15462159247E+04  0.00000000000E+00 0.  1.
          4   -1    0    0  502    0 -0.00000000000E+00 -0.00000000000E+00 -0.22804760347E+03  0.22804760347E+03  0.00000000000E+00 0.  1.
        -13    1    1    2    0    0 -0.25351691110E+03 -0.17797460286E+03  0.10176055702E+02  0.30991829044E+03  0.10566000000E+00 0.  1.
         13    1    1    2    0    0 -0.17028863013E+03 -0.31313029359E+02  0.23534744738E+03  0.29217658276E+03  0.10566000000E+00 0. -1.
          4    1    1    2  501    0  0.42380554123E+03  0.20928763222E+03  0.10726448182E+04  0.11721686550E+04  0.00000000000E+00 0.  1.
</event>
<event>
 5    1  0.6336319E-005  0.2340601E+03  0.7818608E-02  0.1039001E+00
         21   -1    0    0  501  502  0.00000000000E+00  0.00000000000E+00  0.45469682491E+03  0.45469682491E+03  0.00000000000E+00 0.  1.
         -4   -1    0    0    0  501 -0.00000000000E+00 -0.00000000000E+00 -0.19354550525E+03  0.19354550525E+03  0.00000000000E+00 0. -1.
        -13    1    1    2    0    0  0.15033958426E+03 -0.12314333007E+03  0.10002944779E+03  0.21856846050E+03  0.10566000000E+00 0.  1.
         13    1    1    2    0    0 -0.24986517066E+03  0.12541678871E+03  0.56442436577E+02  0.28521524189E+03  0.10566000000E+00 0. -1.
         -4    1    1    2    0  502  0.99525586400E+02 -0.22734586450E+01  0.10467943529E+03  0.14445862776E+03  0.00000000000E+00 0. -1.
</event>
<event>
 5    1  0.6336319E-005  0.3942448E+02  0.7818608E-02  0.1342057E+00
         21   -1    0    0  501  502  0.00000000000E+00  0.00000000000E+00  0.94582692962E+02  0.94582692962E+02  0.00000000000E+00 0.  1.
          4   -1    0    0  502    0 -0.00000000000E+00 -0.00000000000E+00 -0.20636951081E+03  0.20636951081E+03  0.00000000000E+00 0.  1.
        -13    1    1    2    0    0 -0.10876841256E+02  0.37976947157E+02 -0.18434137084E+03  0.18852667280E+03  0.10566000000E+00 0.  1.
         13    1    1    2    0    0 -0.15968711424E+02 -0.43706205408E+02  0.15388843517E+02  0.49010813139E+02  0.10566000000E+00 0. -1.
          4    1    1    2  501    0  0.26845552680E+02  0.57292582509E+01  0.57165709471E+02  0.63414717835E+02  0.00000000000E+00 0.  1.
</event>
<event>
 5    1  0.6336319E-005  0.2131919E+03  0.7818608E-02  0.1163365E+00
          4   -1    0    0  502    0 -0.00000000000E+00  0.00000000000E+00  0.78891880659E+03  0.78891880659E+03  0.00000000000E+00 0.  1.
         21   -1    0    0  501  502  0.00000000000E+00 -0.00000000000E+00 -0.99253825810E+02  0.99253825810E+02  0.00000000000E+00 0.  1.
        -13    1    1    2    0    0 -0.14585721736E+03 -0.14552715321E+03  0.53628315939E+03  0.57450162610E+03  0.10566000000E+00 0.  1.
         13    1    1    2    0    0 -0.94266540564E+01 -0.48942074419E+01 -0.28961656043E+02  0.30848075434E+02  0.10566000000E+00 0. -1.
          4    1    1    2  501    0  0.15528387141E+03  0.15042136066E+03  0.18234347743E+03  0.28282293087E+03  0.00000000000E+00 0.  1.
</event>
<event>
 5    1  0.6336319E-005  0.3731415E+03  0.7818608E-02  0.9863289E-01
         21   -1    0    0  501  502  0.00000000000E+00  0.00000000000E+00  0.40782604977E+03  0.40782604977E+03  0.00000000000E+00 0. -1.
         -4   -1    0    0    0  501 -0.00000000000E+00 -0.00000000000E+00 -0.14954809646E+04  0.14954809646E+04  0.00000000000E+00 0. -1.
        -13    1    1    2    0    0  0.29457938785E+03  0.10120451176E+03 -0.74463693876E+03  0.80715769876E+03  0.10566000000E+00 0.  1.
         13    1    1    2    0    0 -0.34350071937E+03  0.21330671065E+03  0.21184368448E+03  0.45647590827E+03  0.10566000000E+00 0. -1.
         -4    1    1    2    0  502  0.48921331518E+02 -0.31451122241E+03 -0.55486166053E+03  0.63967340731E+03  0.00000000000E+00 0. -1.
</event>
<event>
 5    1  0.6336319E-005  0.4686925E+03  0.7818608E-02  0.9605540E-01
         21   -1    0    0  501  502  0.00000000000E+00  0.00000000000E+00  0.23819189053E+03  0.23819189053E+03  0.00000000000E+00 0. -1.
          4   -1    0    0  502    0 -0.00000000000E+00 -0.00000000000E+00 -0.22514702351E+04  0.22514702351E+04  0.00000000000E+00 0.  1.
        -13    1    1    2    0    0  0.27624644785E+03 -0.47729380485E+03 -0.38449663276E+03  0.67227906993E+03  0.10566000000E+00 0.  1.
         13    1    1    2    0    0 -0.37710172400E+03  0.69362275037E+02 -0.84954169306E+03  0.93206112184E+03  0.10566000000E+00 0. -1.
          4    1    1    2  501    0  0.10085527616E+03  0.40793152981E+03 -0.77924001874E+03  0.88532193384E+03  0.00000000000E+00 0.  1.
</event>
<event>
 5    1  0.6336319E-005  0.1770510E+02  0.7818608E-02  0.1544534E+00
         -4   -1    0    0    0  501 -0.00000000000E+00  0.00000000000E+00  0.14831403344E+03  0.14831403344E+03  0.00000000000E+00 0. -1.
         21   -1    0    0  501  502  0.00000000000E+00 -0.00000000000E+00 -0.83988670769E+01  0.83988670769E+01  0.00000000000E+00 0. -1.
        -13    1    1    2    0    0 -0.12559162892E+02  0.10844281668E+02  0.99686132193E+02  0.10105774158E+03  0.10566000000E+00 0.  1.
         13    1    1    2    0    0  0.22483902212E+02 -0.94545081554E+01  0.38364475301E+02  0.45461607014E+02  0.10566000000E+00 0. -1.
         -4    1    1    2    0  502 -0.99247393191E+01 -0.13897735131E+01  0.18645588643E+01  0.10193551919E+02  0.00000000000E+00 0. -1.
</event>
<event>
 5    1  0.6336319E-005  0.9277195E+03  0.7818608E-02  0.8845639E-01
         21   -1    0    0  501  502  0.00000000000E+00  0.00000000000E+00  0.15662460312E+04  0.15662460312E+04  0.00000000000E+00 0.  1.
         -4   -1    0    0    0  501 -0.00000000000E+00 -0.00000000000E+00 -0.67613011653E+03  0.67613011653E+03  0.00000000000E+00 0. -1.
        -13    1    1    2    0    0  0.86411325456E+03  0.33581012505E+02  0.53741314254E+03  0.10181514121E+04  0.10566000000E+00 0.  1.
         13    1    1    2    0    0 -0.96731331339E+03 -0.18847785542E+03  0.28122257519E+03  0.10248439375E+04  0.10566000000E+00 0. -1.
         -4    1    1    2    0  502  0.10320005883E+03  0.15489684292E+03  0.71480196896E+02  0.19938079806E+03  0.00000000000E+00 0. -1.
</event>
<event>
 5    1  0.6336319E-005  0.3819048E+03  0.7818608E-02  0.9782810E-01
         -4   -1    0    0    0  501 -0.00000000000E+00  0.00000000000E+00  0.28858811488E+03  0.28858811488E+03  0.00000000000E+00 0. -1.
         21   -1    0    0  501  502  0.00000000000E+00 -0.00000000000E+00 -0.63305687884E+03  0.63305687884E+03  0.00000000000E+00 0.  1.
        -13    1    1    2    0    0 -0.36129828811E+03 -0.15466141842E+03 -0.36670031265E+02  0.39471674616E+03  0.10566000000E+00 0.  1.
         13    1    1    2    0    0  0.33798605798E+03  0.14025425325E+03 -0.20271344307E+03  0.41832831856E+03  0.10566000000E+00 0. -1.
         -4    1    1    2    0  502  0.23312230128E+02  0.14407165171E+02 -0.10508528963E+03  0.10859992900E+03  0.00000000000E+00 0. -1.
</event>
<event>
 5    1  0.6336319E-005  0.5110917E+03  0.7818608E-02  0.9658092E-01
          4   -1    0    0  502    0 -0.00000000000E+00  0.00000000000E+00  0.21844818406E+04  0.21844818406E+04  0.00000000000E+00 0.  1.
         21   -1    0    0  501  502  0.00000000000E+00 -0.00000000000E+00 -0.20356921392E+03  0.20356921392E+03  0.00000000000E+00 0.  1.
        -13    1    1    2    0    0  0.30688178769E+03 -0.49921508665E+03  0.10689315017E+04  0.12190187450E+04  0.10566000000E+00 0.  1.
         13    1    1    2    0    0 -0.24492626961E+03  0.18036888482E+02  0.32999166856E+03  0.41134987465E+03  0.10566000000E+00 0. -1.
          4    1    1    2  501    0 -0.61955518074E+02  0.48117819817E+03  0.58198945641E+03  0.75768243479E+03  0.00000000000E+00 0.  1.
</event>
<event>
 5    1  0.6336319E-005  0.5306019E+02  0.7818608E-02  0.1279807E+00
         21   -1    0    0  501  502  0.00000000000E+00  0.00000000000E+00  0.15110756847E+03  0.15110756847E+03  0.00000000000E+00 0.  1.
         -4   -1    0    0    0  501 -0.00000000000E+00 -0.00000000000E+00 -0.35669206931E+02  0.35669206931E+02  0.00000000000E+00 0. -1.
        -13    1    1    2    0    0  0.31627732829E+02 -0.31466906559E+02  0.73908554701E+02  0.86330558403E+02  0.10566000000E+00 0.  1.
         13    1    1    2    0    0 -0.31530566043E+02  0.46585253646E+02  0.28602056081E-02  0.56252765483E+02  0.10566000000E+00 0. -1.
         -4    1    1    2    0  502 -0.97166786677E-01 -0.15118347087E+02  0.41526946629E+02  0.44193451510E+02  0.00000000000E+00 0. -1.
</event>
<event>
 5    1  0.6336319E-005  0.4775719E+03  0.7818608E-02  0.9657797E-01
         -4   -1    0    0    0  501 -0.00000000000E+00  0.00000000000E+00  0.52957255776E+03  0.52957255776E+03  0.00000000000E+00 0. -1.
         21   -1    0    0  501  502  0.00000000000E+00 -0.00000000000E+00 -0.84247951012E+03  0.84247951012E+03  0.00000000000E+00 0. -1.
        -13    1    1    2    0    0 -0.30115196933E+03  0.10323716864E+02 -0.17510594366E+02  0.30183724064E+03  0.10566000000E+00 0.  1.
         13    1    1    2    0    0 -0.19877581672E+02  0.42429362651E+03  0.51874406364E+02  0.42791490387E+03  0.10566000000E+00 0. -1.
         -4    1    1    2    0  502  0.32102955100E+03 -0.43461734338E+03 -0.34727076436E+03  0.64229992337E+03  0.00000000000E+00 0. -1.
</event>
<event>
 5    1  0.6336319E-005  0.5505090E+02  0.7818608E-02  0.1272487E+00
          4   -1    0    0  502    0 -0.00000000000E+00  0.00000000000E+00  0.36943663322E+03  0.36943663322E+03  0.00000000000E+00 0.  1.
         21   -1    0    0  501  502  0.00000000000E+00 -0.00000000000E+00 -0.27366290561E+02  0.27366290561E+02  0.00000000000E+00 0. -1.
        -13    1    1    2    0    0 -0.52843380494E+02  0.10995894214E+02  0.30658750518E+03  0.31130249284E+03  0.10566000000E+00 0.  1.
         13    1    1    2    0    0  0.63186936958E+02 -0.16484866156E+02  0.25469486002E+02  0.70093121599E+02  0.10566000000E+00 0. -1.
          4    1    1    2  501    0 -0.10343556464E+02  0.54889719426E+01  0.10013351474E+02  0.15407309339E+02  0.00000000000E+00 0.  1.
</event>
<event>
 5    1  0.6336319E-005  0.2968781E+03  0.7818608E-02  0.1008603E+00
         21   -1    0    0  501  502  0.00000000000E+00  0.00000000000E+00  0.36671608874E+03  0.36671608874E+03  0.00000000000E+00 0.  1.
          4   -1    0    0  502    0 -0.00000000000E+00 -0.00000000000E+00 -0.55278578893E+03  0.55278578893E+03  0.00000000000E+00 0.  1.
        -13    1    1    2    0    0 -0.16861874640E+03 -0.31047797555E+03 -0.26416260889E+03  0.44114708436E+03  0.10566000000E+00 0.  1.
         13    1    1    2    0    0  0.22589387038E+03  0.89152085000E+02  0.50896035086E+02  0.24812608184E+03  0.10566000000E+00 0. -1.
          4    1    1    2  501    0 -0.57275123978E+02  0.22132589055E+03  0.27196873612E+02  0.23022871147E+03  0.00000000000E+00 0.  1.
</event>
<event>
 5    1  0.6336319E-005  0.1186085E+03  0.7818608E-02  0.1214422E+00
          4   -1    0    0  502    0 -0.00000000000E+00  0.00000000000E+00  0.75492772583E+02  0.75492772583E+02  0.00000000000E+00 0.  1.
         21   -1    0    0  501  502  0.00000000000E+00 -0.00000000000E+00 -0.31652775756E+03  0.31652775756E+03  0.00000000000E+00 0.  1.
        -13    1    1    2    0    0  0.11586708727E+03 -0.12915365939E+02 -0.21269760259E+03  0.24255364334E+03  0.10566000000E+00 0.  1.
         13    1    1    2    0    0  0.64491644115E+01 -0.17727369923E+02  0.40143396834E+01  0.19286717012E+02  0.10566000000E+00 0. -1.
          4    1    1    2  501    0 -0.12231625168E+03  0.30642735862E+02 -0.32351722077E+02  0.13018016979E+03  0.00000000000E+00 0.  1.
</event>
<event>
 5    1  0.6336319E-005  0.5781634E+03  0.7818608E-02  0.9643629E-01
         -4   -1    0    0    0  501 -0.00000000000E+00  0.00000000000E+00  0.12460843817E+04  0.12460843817E+04  0.00000000000E+00 0. -1.
         21   -1    0    0  501  502  0.00000000000E+00 -0.00000000000E+00 -0.80134840528E+03  0.80134840528E+03  0.00000000000E+00 0. -1.
        -13    1    1    2    0    0  0.46129210659E+03  0.51779562016E+03  0.45047998625E+03  0.82694313047E+03  0.10566000000E+00 0.  1.
         13    1    1    2    0    0 -0.14843161867E+03 -0.31594759516E+02  0.45598791689E+03  0.48057794972E+03  0.10566000000E+00 0. -1.
         -4    1    1    2    0  502 -0.31286048792E+03 -0.48620086065E+03 -0.46173192667E+03  0.73991170683E+03  0.00000000000E+00 0. -1.
</event>
<event>
 5    1  0.6336319E-005  0.2651811E+02  0.7818608E-02  0.1492622E+00
         21   -1    0    0  501  502  0.00000000000E+00  0.00000000000E+00  0.30576862227E+02  0.30576862227E+02  0.00000000000E+00 0.  1.
          4   -1    0    0  502    0 -0.00000000000E+00 -0.00000000000E+00 -0.13136759984E+03  0.13136759984E+03  0.00000000000E+00 0.  1.
        -13    1    1    2    0    0 -0.18813518660E+02 -0.83279698332E+01 -0.11826276852E+03  0.12003914840E+03  0.10566000000E+00 0.  1.
         13    1    1    2    0    0 -0.82093384830E+01  0.73570231354E+01  0.43793098265E+01  0.11862063325E+02  0.10566000000E+00 0. -1.
          4    1    1    2  501    0  0.27022857143E+02  0.97094669776E+00  0.13092721083E+02  0.30043250341E+02  0.00000000000E+00 0.  1.
</event>
<event>
 5    1  0.6336319E-005  0.4730493E+03  0.7818608E-02  0.9539083E-01
         -4   -1    0    0    0  501 -0.00000000000E+00  0.00000000000E+00  0.19474315770E+04  0.19474315770E+04  0.00000000000E+00 0. -1.
         21   -1    0    0  501  502  0.00000000000E+00 -0.00000000000E+00 -0.22893220098E+03  0.22893220098E+03  0.00000000000E+00 0. -1.
        -13    1    1    2    0    0  0.14812674777E+03  0.45339770133E+03  0.60861182147E+03  0.77325246161E+03  0.10566000000E+00 0.  1.
         13    1    1    2    0    0 -0.16170709197E+03 -0.44241211187E+03  0.12115826577E+04  0.12999270010E+04  0.10566000000E+00 0. -1.
         -4    1    1    2    0  502  0.13580344198E+02 -0.10985589459E+02 -0.10169510318E+03  0.10318431536E+03  0.00000000000E+00 0. -1.
</event>
<event>
 5    1  0.6336319E-005  0.4913615E+03  0.7818608E-02  0.9642152E-01
         -4   -1    0    0    0  501 -0.00000000000E+00  0.00000000000E+00  0.57446173182E+03  0.57446173182E+03  0.00000000000E+00 0. -1.
         21   -1    0    0  501  502  0.00000000000E+00 -0.00000000000E+00 -0.78404355950E+03  0.78404355950E+03  0.00000000000E+00 0. -1.
        -13    1    1    2    0    0  0.25853152527E+03 -0.13643989966E+03 -0.95260966747E+02  0.30745578337E+03  0.10566000000E+00 0.  1.
         13    1    1    2    0    0 -0.11498524442E+03  0.54576720939E+03 -0.22813010368E+03  0.60260004037E+03  0.10566000000E+00 0. -1.
         -4    1    1    2    0  502 -0.14354628086E+03 -0.40932730974E+03  0.11380924274E+03  0.44844946758E+03  0.00000000000E+00 0. -1.
</event>
<event>
 5    1  0.6336319E-005  0.2612413E+03  0.7818608E-02  0.1024727E+00
         -4   -1    0    0    0  501 -0.00000000000E+00  0.00000000000E+00  0.58889516303E+03  0.58889516303E+03  0.00000000000E+00 0. -1.
         21   -1    0    0  501  502  0.00000000000E+00 -0.00000000000E+00 -0.17486934946E+03  0.17486934946E+03  0.00000000000E+00 0. -1.
        -13    1    1    2    0    0  0.15924816246E+03 -0.18816322798E+03  0.25765262710E+03  0.35658135822E+03  0.10566000000E+00 0.  1.
         13    1    1    2    0    0 -0.16522824547E+03  0.23066402100E+03  0.19909965261E+03  0.34662219565E+03  0.10566000000E+00 0. -1.
         -4    1    1    2    0  502  0.59800830126E+01 -0.42500793028E+02 -0.42726466138E+02  0.60560958624E+02  0.00000000000E+00 0. -1.
</event>
<event>
 5    1  0.6336319E-005  0.5000204E+03  0.7818608E-02  0.9672744E-01
         21   -1    0    0  501  502  0.00000000000E+00  0.00000000000E+00  0.17922050534E+03  0.17922050534E+03  0.00000000000E+00 0.  1.
          4   -1    0    0  502    0 -0.00000000000E+00 -0.00000000000E+00 -0.22973855080E+04  0.22973855080E+04  0.00000000000E+00 0.  1.
        -13    1    1    2    0    0  0.12196412807E+03 -0.41251977547E+03 -0.87441660803E+03  0.97450101552E+03  0.10566000000E+00 0.  1.
         13    1    1    2    0    0  0.24582604451E+03 -0.40421461738E+02 -0.48205819109E+03  0.54262735785E+03  0.10566000000E+00 0. -1.
          4    1    1    2  501    0 -0.36779017258E+03  0.45294123721E+03 -0.76169020352E+03  0.95947763994E+03  0.00000000000E+00 0.  1.
</event>
<event>
 5    1  0.6336319E-005  0.1677795E+03  0.7818608E-02  0.1084789E+00
         21   -1    0    0  501  502  0.00000000000E+00  0.00000000000E+00  0.80073617008E+03  0.80073617008E+03  0.00000000000E+00 0.  1.
          4   -1    0    0  502    0 -0.00000000000E+00 -0.00000000000E+00 -0.48692663355E+03  0.48692663355E+03  0.00000000000E+00 0.  1.
        -13    1    1    2    0    0 -0.16143141464E+03 -0.42348182935E+02 -0.40877591951E+03  0.44153282298E+03  0.10566000000E+00 0.  1.
         13    1    1    2    0    0  0.16547048529E+03  0.56640397665E+02  0.62274780407E+02  0.18565229756E+03  0.10566000000E+00 0. -1.
          4    1    1    2  501    0 -0.40390706451E+01 -0.14292214730E+02  0.66031067564E+03  0.66047768309E+03  0.00000000000E+00 0.  1.
</event>
<event>
 5    1  0.6336319E-005  0.4793413E+03  0.7818608E-02  0.9616824E-01
          4   -1    0    0  502    0 -0.00000000000E+00  0.00000000000E+00  0.16708044840E+04  0.16708044840E+04  0.00000000000E+00 0.  1.
         21   -1    0    0  501  502  0.00000000000E+00 -0.00000000000E+00 -0.29103393603E+03  0.29103393603E+03  0.00000000000E+00 0. -1.
        -13    1    1    2    0    0 -0.13783913499E+03 -0.44009469570E+03  0.34578014059E+03  0.57640860950E+03  0.10566000000E+00 0.  1.
         13    1    1    2    0    0  0.32802998665E+03 -0.10480833747E+03  0.36243147341E+03  0.49994504081E+03  0.10566000000E+00 0. -1.
          4    1    1    2  501    0 -0.19019085166E+03  0.54490303316E+03  0.67155893394E+03  0.88548476969E+03  0.00000000000E+00 0.  1.
</event>
<event>
 5    1  0.6336319E-005  0.5048061E+03  0.7818608E-02  0.9640621E-01
          4   -1    0    0  502    0 -0.00000000000E+00  0.00000000000E+00  0.45988821952E+03  0.45988821952E+03  0.00000000000E+00 0.  1.
         21   -1    0    0  501  502  0.00000000000E+00 -0.00000000000E+00 -0.15444312723E+04  0.15444312723E+04  0.00000000000E+00 0.  1.
        -13    1    1    2    0    0  0.57261857763E+03  0.14839392218E+03 -0.77782641978E+03  0.97720353154E+03  0.10566000000E+00 0.  1.
         13    1    1    2    0    0 -0.22740504315E+03  0.14748664191E+03  0.20703520633E+03  0.34107030217E+03  0.10566000000E+00 0. -1.
          4    1    1    2  501    0 -0.34521353448E+03 -0.29588056410E+03 -0.51375183933E+03  0.68604565811E+03  0.00000000000E+00 0.  1.
</event>
<event>
 5    1  0.6336319E-005  0.3933263E+03  0.7818608E-02  0.9849094E-01
         21   -1    0    0  501  502  0.00000000000E+00  0.00000000000E+00  0.41344868843E+03  0.41344868843E+03  0.00000000000E+00 0. -1.
         -4   -1    0    0    0  501 -0.00000000000E+00 -0.00000000000E+00 -0.10568194217E+04  0.10568194217E+04  0.00000000000E+00 0. -1.
        -13    1    1    2    0    0  0.22098433581E+03 -0.17030950605E+03 -0.27324444472E+03  0.39051497060E+03  0.10566000000E+00 0.  1.
         13    1    1    2    0    0  0.21271864818E+03  0.19681641198E+03 -0.54029238950E+03  0.61310831068E+03  0.10566000000E+00 0. -1.
         -4    1    1    2    0  502 -0.43370298399E+03 -0.26506905928E+02  0.17016610095E+03  0.46664482885E+03  0.00000000000E+00 0. -1.
</event>
<event>
 5    1  0.6336319E-005  0.2162884E+02  0.7818608E-02  0.1504688E+00
         21   -1    0    0  501  502  0.00000000000E+00  0.00000000000E+00  0.10524972528E+03  0.10524972528E+03  0.00000000000E+00 0. -1.
         -4   -1    0    0    0  501 -0.00000000000E+00 -0.00000000000E+00 -0.14527312360E+02  0.14527312360E+02  0.00000000000E+00 0. -1.
        -13    1    1    2    0    0 -0.81375629608E+01 -0.14968009498E+02  0.26545469765E+02  0.31542580243E+02  0.10566000000E+00 0.  1.
         13    1    1    2    0    0  0.47112489742E+01  0.34009834711E+02  0.19353455239E+02  0.39413603206E+02  0.10566000000E+00 0. -1.
         -4    1    1    2    0  502  0.34263139866E+01 -0.19041825213E+02  0.44823487919E+02  0.48820854194E+02  0.00000000000E+00 0. -1.
</event>
<event>
 5    1  0.6336319E-005  0.5270178E+02  0.7818608E-02  0.1281163E+00
         21   -1    0    0  501  502  0.00000000000E+00  0.00000000000E+00  0.33324944754E+03  0.33324944754E+03  0.00000000000E+00 0. -1.
         -4   -1    0    0    0  501 -0.00000000000E+00 -0.00000000000E+00 -0.71546483151E+02  0.71546483151E+02  0.00000000000E+00 0. -1.
        -13    1    1    2    0    0  0.33379690511E+02 -0.35704544091E+02  0.53653657512E+02  0.72579227992E+02  0.10566000000E+00 0.  1.
         13    1    1    2    0    0 -0.43394459296E+02  0.31369062011E+02 -0.50401763689E+02  0.73535339097E+02  0.10566000000E+00 0. -1.
         -4    1    1    2    0  502  0.10014768785E+02  0.43354820800E+01  0.25845107057E+03  0.25868136360E+03  0.00000000000E+00 0. -1.
</event>
<event>
 5    1  0.6336319E-005  0.8586641E+02  0.7818608E-02  0.1190328E+00
          4   -1    0    0  502    0 -0.00000000000E+00  0.00000000000E+00  0.20630403772E+03  0.20630403772E+03  0.00000000000E+00 0.  1.
         21   -1    0    0  501  502  0.00000000000E+00 -0.00000000000E+00 -0.40705066290E+03  0.40705066290E+03  0.00000000000E+00 0.  1.
        -13    1    1    2    0    0 -0.41689992731E+02 -0.73753848747E+02  0.16541623605E+03  0.18585001482E+03  0.10566000000E+00 0.  1.
         13    1    1    2    0    0  0.49900484427E+02  0.79719963612E+02 -0.41694224355E+02  0.10287735637E+03  0.10566000000E+00 0. -1.
          4    1    1    2  501    0 -0.82104916964E+01 -0.59661148655E+01 -0.32446863687E+03  0.32462732943E+03  0.00000000000E+00 0.  1.
</event>
<event>
 5    1  0.6336319E-005  0.1437547E+03  0.7818608E-02  0.1107439E+00
         -4   -1    0    0    0  501 -0.00000000000E+00  0.00000000000E+00  0.21134086835E+03  0.21134086835E+03  0.00000000000E+00 0. -1.
         21   -1    0    0  501  502  0.00000000000E+00 -0.00000000000E+00 -0.43933950003E+03  0.43933950003E+03  0.00000000000E+00 0. -1.
        -13    1    1    2    0    0  0.12043738685E+03  0.86259210566E+02 -0.20975577034E+03  0.25679429494E+03  0.10566000000E+00 0.  1.
         13    1    1    2    0    0 -0.10232913052E+03 -0.10049474192E+03  0.15958982055E+03  0.21456785895E+03  0.10566000000E+00 0. -1.
         -4    1    1    2    0  502 -0.18108256327E+02  0.14235531352E+02 -0.17783268189E+03  0.17931821449E+03  0.00000000000E+00 0. -1.
</event>
<event>
 5    1  0.6336319E-005  0.2659624E+03  0.7818608E-02  0.1022437E+00
         -4   -1    0    0    0  501 -0.00000000000E+00  0.00000000000E+00  0.31660454701E+03  0.31660454701E+03  0.00000000000E+00 0. -1.
         21   -1    0    0  501  502  0.00000000000E+00 -0.00000000000E+00 -0.40457112800E+03  0.40457112800E+03  0.00000000000E+00 0.  1.
        -13    1    1    2    0    0  0.17408819334E+03 -0.20084076495E+03  0.10728881373E+03  0.28662625951E+03  0.10566000000E+00 0.  1.
         13    1    1    2    0    0 -0.24522518898E+03  0.13227424258E+03 -0.96520230175E+02  0.29486952124E+03  0.10566000000E+00 0. -1.
         -4    1    1    2    0  502  0.71136995640E+02  0.68566522373E+02 -0.98735164552E+02  0.13967989425E+03  0.00000000000E+00 0. -1.
</event>
<event>
 5    1  0.6336319E-005  0.4703231E+03  0.7818608E-02  0.9545503E-01
         21   -1    0    0  501  502  0.00000000000E+00  0.00000000000E+00  0.47503228418E+03  0.47503228418E+03  0.00000000000E+00 0.  1.
          4   -1    0    0  502    0 -0.00000000000E+00 -0.00000000000E+00 -0.14958054816E+04  0.14958054816E+04  0.00000000000E+00 0.  1.
        -13    1    1    2    0    0 -0.51144371399E+03 -0.13739873137E+02 -0.73243398662E+03  0.89343327262E+03  0.10566000000E+00 0.  1.
         13    1    1    2    0    0  0.32339733216E+03  0.41125440699E+03 -0.35553472822E+03  0.63255116461E+03  0.10566000000E+00 0. -1.
          4    1    1    2  501    0  0.18804638183E+03 -0.39751453385E+03  0.67195517444E+02  0.44485332853E+03  0.00000000000E+00 0.  1.
</event>
<event>
 5    1  0.6336319E-005  0.7343201E+03  0.7818608E-02  0.9074625E-01
         21   -1    0    0  501  502  0.00000000000E+00  0.00000000000E+00  0.58963091954E+03  0.58963091954E+03  0.00000000000E+00 0.  1.
         -4   -1    0    0    0  501 -0.00000000000E+00 -0.00000000000E+00 -0.17065402778E+04  0.17065402778E+04  0.00000000000E+00 0. -1.
        -13    1    1    2    0    0  0.61289086709E+03  0.44080327576E+03 -0.14622339479E+03  0.76897596531E+03  0.10566000000E+00 0.  1.
         13    1    1    2    0    0 -0.29400211877E+03 -0.70567573496E+03 -0.63188067297E+03  0.99181081098E+03  0.10566000000E+00 0. -1.
         -4    1    1    2    0  502 -0.31888874832E+03  0.26487245920E+03 -0.33880529053E+03  0.53538442108E+03  0.00000000000E+00 0. -1.
</event>
<event>
 5    1  0.6336319E-005  0.4760183E+03  0.7818608E-02  0.9734802E-01
          4   -1    0    0  502    0 -0.00000000000E+00  0.00000000000E+00  0.18340186445E+04  0.18340186445E+04  0.00000000000E+00 0.  1.
         21   -1    0    0  501  502  0.00000000000E+00 -0.00000000000E+00 -0.22255112735E+03  0.22255112735E+03  0.00000000000E+00 0. -1.
        -13    1    1    2    0    0  0.28989345967E+03  0.45278574738E+03  0.95961171230E+03  0.10999580904E+04  0.10566000000E+00 0.  1.
         13    1    1    2    0    0 -0.23264527803E+03  0.24564428131E+01  0.15100813273E+03  0.27736857575E+03  0.10566000000E+00 0. -1.
          4    1    1    2  501    0 -0.57248181645E+02 -0.45524219020E+03  0.50084767215E+03  0.67924310577E+03  0.00000000000E+00 0.  1.
</event>
<event>
 5    1  0.6336319E-005  0.4211669E+02  0.7818608E-02  0.1327697E+00
         21   -1    0    0  501  502  0.00000000000E+00  0.00000000000E+00  0.45431358521E+03  0.45431358521E+03  0.00000000000E+00 0. -1.
         -4   -1    0    0    0  501 -0.00000000000E+00 -0.00000000000E+00 -0.78791973528E+02  0.78791973528E+02  0.00000000000E+00 0. -1.
        -13    1    1    2    0    0 -0.39873053308E+02  0.34481169978E+02 -0.14025026627E+01  0.52733192971E+02  0.10566000000E+00 0.  1.
         13    1    1    2    0    0  0.41518171332E+02 -0.81321457096E+00 -0.42602995750E+02  0.59493245664E+02  0.10566000000E+00 0. -1.
         -4    1    1    2    0  502 -0.16451180238E+01 -0.33667955407E+02  0.41952711010E+03  0.42087912011E+03  0.00000000000E+00 0. -1.
</event>
<event>
 5    1  0.6336319E-005  0.4716058E+03  0.7818608E-02  0.9771851E-01
          4   -1    0    0  502    0 -0.00000000000E+00  0.00000000000E+00  0.23507726335E+04  0.23507726335E+04  0.00000000000E+00 0.  1.
         21   -1    0    0  501  502  0.00000000000E+00 -0.00000000000E+00 -0.17075107997E+03  0.17075107997E+03  0.00000000000E+00 0.  1.
        -13    1    1    2    0    0  0.14114844849E+03 -0.49943762905E+03  0.62964413339E+03  0.81597339154E+03  0.10566000000E+00 0.  1.
         13    1    1    2    0    0  0.10455370543E+03  0.18278418771E+03  0.17762764818E+03  0.27548707621E+03  0.10566000000E+00 0. -1.
          4    1    1    2  501    0 -0.24570215392E+03  0.31665344134E+03  0.13727497720E+04  0.14300632458E+04  0.00000000000E+00 0.  1.
</event>
<event>
 5    1  0.6336319E-005  0.2196347E+03  0.7818608E-02  0.1047450E+00
          4   -1    0    0  502    0 -0.00000000000E+00  0.00000000000E+00  0.12639022721E+04  0.12639022721E+04  0.00000000000E+00 0.  1.
         21   -1    0    0  501  502  0.00000000000E+00 -0.00000000000E+00 -0.14206674705E+03  0.14206674705E+03  0.00000000000E+00 0. -1.
        -13    1    1    2    0    0  0.21938036929E+03 -0.11121505629E+02  0.11524282135E+04  0.11731761303E+04  0.10566000000E+00 0.  1.
         13    1    1    2    0    0 -0.21847423224E+03  0.21414794092E+02 -0.33490215054E+02  0.22206122855E+03  0.10566000000E+00 0. -1.
          4    1    1    2  501    0 -0.90613705714E+00 -0.10293288462E+02  0.28975265887E+01  0.10731660266E+02  0.00000000000E+00 0.  1.
</event>
<event>
 5    1  0.6336319E-005  0.1258346E+03  0.7818608E-02  0.1127730E+00
         -4   -1    0    0    0  501 -0.00000000000E+00  0.00000000000E+00  0.15579967959E+03  0.15579967959E+03  0.00000000000E+00 0. -1.
         21   -1    0    0  501  502  0.00000000000E+00 -0.00000000000E+00 -0.35193241566E+03  0.35193241566E+03  0.00000000000E+00 0. -1.
        -13    1    1    2    0    0  0.43570609460E+02 -0.12808990365E+03 -0.10146629571E+03  0.16911783394E+03  0.10566000000E+00 0.  1.
         13    1    1    2    0    0 -0.26780030835E+02  0.12084956652E+03  0.90001855749E+02  0.15304291223E+03  0.10566000000E+00 0. -1.
         -4    1    1    2    0  502 -0.16790578625E+02  0.72403371292E+01 -0.18466829611E+03  0.18557134908E+03  0.00000000000E+00 0. -1.
</event>
<event>
 5    1  0.6336319E-005  0.3157388E+03  0.7818608E-02  0.1001012E+00
         -4   -1    0    0    0  501 -0.00000000000E+00  0.00000000000E+00  0.36301876541E+04  0.36301876541E+04  0.00000000000E+00 0. -1.
         21   -1    0    0  501  502  0.00000000000E+00 -0.00000000000E+00 -0.13107742854E+03  0.13107742854E+03  0.00000000000E+00 0. -1.
        -13    1    1    2    0    0  0.31484030218E+03 -0.21622540857E+02  0.66751789575E+03  0.73835770630E+03  0.10566000000E+00 0.  1.
         13    1    1    2    0    0 -0.30016713265E+03  0.14542687247E+03  0.20112549566E+03  0.38948781615E+03  0.10566000000E+00 0. -1.
         -4    1    1    2    0  502 -0.14673169523E+02 -0.12380433162E+03  0.26304668341E+04  0.26334195602E+04  0.00000000000E+00 0. -1.
</event>
<event>
 5    1  0.6336319E-005  0.3753681E+03  0.7818608E-02  0.9803009E-01
          4   -1    0    0  502    0 -0.00000000000E+00  0.00000000000E+00  0.20922769317E+04  0.20922769317E+04  0.00000000000E+00 0.  1.
         21   -1    0    0  501  502  0.00000000000E+00 -0.00000000000E+00 -0.22269738998E+03  0.22269738998E+03  0.00000000000E+00 0.  1.
        -13    1    1    2    0    0 -0.51299679767E+03 -0.12495497208E+03  0.32573027172E+03  0.62038671855E+03  0.10566000000E+00 0.  1.
         13    1    1    2    0    0  0.27997405463E+03  0.13711369305E+03  0.31280801428E+03  0.44162710634E+03  0.10566000000E+00 0. -1.
          4    1    1    2  501    0  0.23302274304E+03 -0.12158720966E+02  0.12310412557E+04  0.12529604968E+04  0.00000000000E+00 0.  1.
</event>
<event>
 5    1  0.6336319E-005  0.2988260E+03  0.7818608E-02  0.1012769E+00
         21   -1    0    0  501  502  0.00000000000E+00  0.00000000000E+00  0.14818158719E+04  0.14818158719E+04  0.00000000000E+00 0.  1.
          4   -1    0    0  502    0 -0.00000000000E+00 -0.00000000000E+00 -0.34601096716E+03  0.34601096716E+03  0.00000000000E+00 0.  1.
        -13    1    1    2    0    0  0.15813917498E+03 -0.25340808350E+03  0.11444781782E+04  0.11828161172E+04  0.10566000000E+00 0.  1.
         13    1    1    2    0    0  0.21094339110E+03  0.14270195439E+03 -0.42502690643E+02  0.25820041036E+03  0.10566000000E+00 0. -1.
          4    1    1    2  501    0 -0.36908256608E+03  0.11070612911E+03  0.33829417125E+02  0.38681031148E+03  0.00000000000E+00 0.  1.
</event>
<event>
 5    1  0.6336319E-005  0.4958655E+03  0.7818608E-02  0.9487080E-01
         21   -1    0    0  501  502  0.00000000000E+00  0.00000000000E+00  0.91756489152E+03  0.91756489152E+03  0.00000000000E+00 0. -1.
          4   -1    0    0  502    0 -0.00000000000E+00 -0.00000000000E+00 -0.50698228030E+03  0.50698228030E+03  0.00000000000E+00 0.  1.
        -13    1    1    2    0    0  0.12162194032E+03  0.45640868859E+03 -0.17633729332E+03  0.50417818236E+03  0.10566000000E+00 0.  1.
         13    1    1    2    0    0 -0.20519219490E+03 -0.54629174973E+03  0.45324589825E+03  0.73889807694E+03  0.10566000000E+00 0. -1.
          4    1    1    2  501    0  0.83570254580E+02  0.89883061136E+02  0.13367400629E+03  0.18147091251E+03  0.00000000000E+00 0.  1.
</event>
<event>
 5    1  0.6336319E-005  0.3616881E+02  0.7818608E-02  0.1416084E+00
         21   -1    0    0  501  502  0.00000000000E+00  0.00000000000E+00  0.16613081939E+02  0.16613081939E+02  0.00000000000E+00 0.  1.
          4   -1    0    0  502    0 -0.00000000000E+00 -0.00000000000E+00 -0.11791214007E+03  0.11791214007E+03  0.00000000000E+00 0.  1.
        -13    1    1    2    0    0  0.34966597695E+02 -0.23637489331E+02 -0.44284822956E+02  0.61176388947E+02  0.10566000000E+00 0.  1.
         13    1    1    2    0    0 -0.14220892214E+02  0.73504684830E+00 -0.11343305590E+02  0.18205928017E+02  0.10566000000E+00 0. -1.
          4    1    1    2  501    0 -0.20745705482E+02  0.22902442482E+02 -0.45670929582E+02  0.55142905042E+02  0.00000000000E+00 0.  1.
</event>
<event>
 5    1  0.6336319E-005  0.3838978E+03  0.7818608E-02  0.9853277E-01
          4   -1    0    0  502    0 -0.00000000000E+00  0.00000000000E+00  0.40709393780E+03  0.40709393780E+03  0.00000000000E+00 0.  1.
         21   -1    0    0  501  502  0.00000000000E+00 -0.00000000000E+00 -0.11427922841E+04  0.11427922841E+04  0.00000000000E+00 0.  1.
        -13    1    1    2    0    0  0.19745757763E+03 -0.26406879180E+03 -0.49115589777E+03  0.59157074712E+03  0.10566000000E+00 0.  1.
         13    1    1    2    0    0  0.18028873801E+03 -0.23457178237E+03 -0.31765330959E+02  0.29755167207E+03  0.10566000000E+00 0. -1.
          4    1    1    2  501    0 -0.37774631564E+03  0.49864057417E+03 -0.21277711754E+03  0.66076380269E+03  0.00000000000E+00 0.  1.
</event>
<event>
 5    1  0.6336319E-005  0.1421126E+03  0.7818608E-02  0.1109162E+00
         21   -1    0    0  501  502  0.00000000000E+00  0.00000000000E+00  0.47348191213E+03  0.47348191213E+03  0.00000000000E+00 0.  1.
          4   -1    0    0  502    0 -0.00000000000E+00 -0.00000000000E+00 -0.26598594965E+03  0.26598594965E+03  0.00000000000E+00 0.  1.
        -13    1    1    2    0    0 -0.13680095029E+03 -0.35644222198E+02 -0.20285247775E+03  0.24725320922E+03  0.10566000000E+00 0.  1.
         13    1    1    2    0    0  0.14598210303E+03  0.20542931347E+02  0.92847963864E+02  0.17422267932E+03  0.10566000000E+00 0. -1.
          4    1    1    2  501    0 -0.91811527311E+01  0.15101290852E+02  0.31750047636E+03  0.31799197323E+03  0.00000000000E+00 0.  1.
</event>
<event>
 5    1  0.6336319E-005  0.5226815E+03  0.7818608E-02  0.9429598E-01
          4   -1    0    0  502    0 -0.00000000000E+00  0.00000000000E+00  0.19163601087E+04  0.19163601087E+04  0.00000000000E+00 0.  1.
         21   -1    0    0  501  502  0.00000000000E+00 -0.00000000000E+00 -0.31956249771E+03  0.31956249771E+03  0.00000000000E+00 0.  1.
        -13    1    1    2    0    0  0.53444734898E+03 -0.16607319716E+03  0.11457288271E+04  0.12751113018E+04  0.10566000000E+00 0.  1.
         13    1    1    2    0    0 -0.42336481801E+03  0.22542428854E+03  0.59845527149E+03  0.76694367598E+03  0.10566000000E+00 0. -1.
          4    1    1    2  501    0 -0.11108253097E+03 -0.59351091378E+02 -0.14738648754E+03  0.19386762866E+03  0.00000000000E+00 0.  1.
</event>
<event>
 5    1  0.6336319E-005  0.4868483E+03  0.7818608E-02  0.9735165E-01
          4   -1    0    0  502    0 -0.00000000000E+00  0.00000000000E+00  0.44246367188E+03  0.44246367188E+03  0.00000000000E+00 0.  1.
         21   -1    0    0  501  502  0.00000000000E+00 -0.00000000000E+00 -0.10082880478E+04  0.10082880478E+04  0.00000000000E+00 0.  1.
        -13    1    1    2    0    0 -0.21325783083E+03 -0.56639599262E+03 -0.11942878197E+03  0.61688456618E+03  0.10566000000E+00 0.  1.
         13    1    1    2    0    0  0.14956675177E+03  0.15749950713E+03 -0.34519911649E+03  0.40784647745E+03  0.10566000000E+00 0. -1.
          4    1    1    2  501    0  0.63691079059E+02  0.40889648549E+03 -0.10119647751E+03  0.42602067609E+03  0.00000000000E+00 0.  1.
</event>
<event>
 5    1  0.6336319E-005  0.4907155E+03  0.7818608E-02  0.1021108E+00
         -4   -1    0    0    0  501 -0.00000000000E+00  0.00000000000E+00  0.11497000378E+03  0.11497000378E+03  0.00000000000E+00 0. -1.
         21   -1    0    0  501  502  0.00000000000E+00 -0.00000000000E+00 -0.23778265036E+04  0.23778265036E+04  0.00000000000E+00 0. -1.
        -13    1    1    2    0    0  0.27592768241E+02  0.34464368880E+02 -0.48992644068E+02  0.65950314012E+02  0.10566000000E+00 0.  1.
         13    1    1    2    0    0  0.25040490252E+03  0.40027806877E+03 -0.11913695573E+04  0.12815172963E+04  0.10566000000E+00 0. -1.
         -4    1    1    2    0  502 -0.27799767076E+03 -0.43474243765E+03 -0.10224942984E+04  0.11453288970E+04  0.00000000000E+00 0. -1.
</event>
<event>
 5    1  0.6336319E-005  0.2609265E+03  0.7818608E-02  0.1024881E+00
          4   -1    0    0  502    0 -0.00000000000E+00  0.00000000000E+00  0.55995318821E+03  0.55995318821E+03  0.00000000000E+00 0.  1.
         21   -1    0    0  501  502  0.00000000000E+00 -0.00000000000E+00 -0.69576702552E+03  0.69576702552E+03  0.00000000000E+00 0.  1.
        -13    1    1    2    0    0 -0.24346869953E+03 -0.13729207969E+03  0.46543865255E+03  0.54291737239E+03  0.10566000000E+00 0.  1.
         13    1    1    2    0    0  0.18609865857E+03 -0.18083592756E+02 -0.17741223698E+03  0.25774956847E+03  0.10566000000E+00 0. -1.
          4    1    1    2  501    0  0.57370040958E+02  0.15537567245E+03 -0.42384025288E+03  0.45505327287E+03  0.00000000000E+00 0.  1.
</event>
<event>
 5    1  0.6336319E-005  0.4775867E+03  0.7818608E-02  0.9687041E-01
         21   -1    0    0  501  502  0.00000000000E+00  0.00000000000E+00  0.18654328718E+03  0.18654328718E+03  0.00000000000E+00 0.  1.
          4   -1    0    0  502    0 -0.00000000000E+00 -0.00000000000E+00 -0.25122379661E+04  0.25122379661E+04  0.00000000000E+00 0.  1.
        -13    1    1    2    0    0 -0.32736237147E+03  0.33181299971E+03 -0.46863691629E+03  0.66097394767E+03  0.10566000000E+00 0.  1.
         13    1    1    2    0    0 -0.19797397825E+03 -0.18647062476E+03 -0.85343234222E+03  0.89571857403E+03  0.10566000000E+00 0. -1.
          4    1    1    2  501    0  0.52533634972E+03 -0.14534237494E+03 -0.10036254204E+04  0.11420887316E+04  0.00000000000E+00 0.  1.
</event>
<event>
 5    1  0.6336319E-005  0.8464356E+02  0.7818608E-02  0.1192814E+00
         21   -1    0    0  501  502  0.00000000000E+00  0.00000000000E+00  0.32110246210E+03  0.32110246210E+03  0.00000000000E+00 0. -1.
         -4   -1    0    0    0  501 -0.00000000000E+00 -0.00000000000E+00 -0.15468298826E+03  0.15468298826E+03  0.00000000000E+00 0. -1.
        -13    1    1    2    0    0  0.17131152634E+02 -0.70793725726E+02 -0.26044208823E+02  0.77353344917E+02  0.10566000000E+00 0.  1.
         13    1    1    2    0    0  0.25250682026E+02  0.98247660897E+02 -0.75055646525E+02  0.12618859320E+03  0.10566000000E+00 0. -1.
         -4    1    1    2    0  502 -0.42381834660E+02 -0.27453935172E+02  0.26751932919E+03  0.27224351224E+03  0.00000000000E+00 0. -1.
</event>
<event>
 5    1  0.6336319E-005  0.4457020E+03  0.7818608E-02  0.1003531E+00
         -4   -1    0    0    0  501 -0.00000000000E+00  0.00000000000E+00  0.23090229526E+04  0.23090229526E+04  0.00000000000E+00 0. -1.
         21   -1    0    0  501  502  0.00000000000E+00 -0.00000000000E+00 -0.14811558540E+03  0.14811558540E+03  0.00000000000E+00 0. -1.
        -13    1    1    2    0    0  0.88333334596E+02  0.53732562265E+02  0.22606271373E+03  0.24858464946E+03  0.10566000000E+00 0.  1.
         13    1    1    2    0    0  0.50999145359E+02  0.42763478975E+03  0.37793215304E+03  0.57297918784E+03  0.10566000000E+00 0. -1.
         -4    1    1    2    0  502 -0.13933247996E+03 -0.48136735202E+03  0.15569125004E+04  0.16355747007E+04  0.00000000000E+00 0. -1.
</event>
<event>
 5    1  0.6336319E-005  0.2544455E+03  0.7818608E-02  0.1028114E+00
         21   -1    0    0  501  502  0.00000000000E+00  0.00000000000E+00  0.19513151680E+03  0.19513151680E+03  0.00000000000E+00 0.  1.
         -4   -1    0    0    0  501 -0.00000000000E+00 -0.00000000000E+00 -0.50047306402E+03  0.50047306402E+03  0.00000000000E+00 0. -1.
        -13    1    1    2    0    0 -0.24135047402E+03 -0.72726454820E+02 -0.33281928059E+03  0.41750194399E+03  0.10566000000E+00 0.  1.
         13    1    1    2    0    0  0.25376586018E+03  0.67385535736E+02  0.21868651012E+02  0.26346948833E+03  0.10566000000E+00 0. -1.
         -4    1    1    2    0  502 -0.12415386156E+02  0.53409190837E+01  0.56090823574E+01  0.14633148498E+02  0.00000000000E+00 0. -1.
</event>
<event>
 5    1  0.6336319E-005  0.6487069E+02  0.7818608E-02  0.1240865E+00
         21   -1    0    0  501  502  0.00000000000E+00  0.00000000000E+00  0.24216549291E+03  0.24216549291E+03  0.00000000000E+00 0. -1.
         -4   -1    0    0    0  501 -0.00000000000E+00 -0.00000000000E+00 -0.68535256515E+02  0.68535256515E+02  0.00000000000E+00 0. -1.
        -13    1    1    2    0    0  0.61598415803E+02  0.28127479812E+02 -0.16146948213E+02  0.69615049024E+02  0.10566000000E+00 0.  1.
         13    1    1    2    0    0 -0.58978430548E+02 -0.16895125078E+02  0.11479645739E+02  0.62415494484E+02  0.10566000000E+00 0. -1.
         -4    1    1    2    0  502 -0.26199852542E+01 -0.11232354734E+02  0.17829753887E+03  0.17867020592E+03  0.00000000000E+00 0. -1.
</event>
<event>
 5    1  0.6336319E-005  0.3816514E+03  0.7818608E-02  0.9783585E-01
         21   -1    0    0  501  502  0.00000000000E+00  0.00000000000E+00  0.11118906636E+04  0.11118906636E+04  0.00000000000E+00 0. -1.
         -4   -1    0    0    0  501 -0.00000000000E+00 -0.00000000000E+00 -0.10221067856E+04  0.10221067856E+04  0.00000000000E+00 0. -1.
        -13    1    1    2    0    0 -0.24897840095E+03 -0.43051113919E+03 -0.62819905440E+03  0.80122665222E+03  0.10566000000E+00 0.  1.
         13    1    1    2    0    0  0.78841375216E+01  0.29940046595E+03 -0.20952170024E+03  0.36551628236E+03  0.10566000000E+00 0. -1.
         -4    1    1    2    0  502  0.24109426343E+03  0.13111067324E+03  0.92750463261E+03  0.96725451460E+03  0.00000000000E+00 0. -1.
</event>
<event>
 5    1  0.6336319E-005  0.6702154E+02  0.7818608E-02  0.1234766E+00
         21   -1    0    0  501  502  0.00000000000E+00  0.00000000000E+00  0.19664761859E+03  0.19664761859E+03  0.00000000000E+00 0.  1.
          4   -1    0    0  502    0 -0.00000000000E+00 -0.00000000000E+00 -0.61454117233E+02  0.61454117233E+02  0.00000000000E+00 0.  1.
        -13    1    1    2    0    0 -0.41743446734E+01  0.63821898835E+02 -0.20452829119E+02  0.67149008239E+02  0.10566000000E+00 0.  1.
         13    1    1    2    0    0  0.13639934733E+02 -0.78805985130E+02  0.79490041241E+02  0.11276129182E+03  0.10566000000E+00 0. -1.
          4    1    1    2  501    0 -0.94655900593E+01  0.14984086295E+02  0.76156289232E+02  0.78191435764E+02  0.00000000000E+00 0.  1.
</event>
<event>
 5    1  0.6336319E-005  0.5847872E+02  0.7818608E-02  0.1260661E+00
         21   -1    0    0  501  502  0.00000000000E+00  0.00000000000E+00  0.97969978563E+03  0.97969978563E+03  0.00000000000E+00 0. -1.
         -4   -1    0    0    0  501 -0.00000000000E+00 -0.00000000000E+00 -0.86632267853E+02  0.86632267853E+02  0.00000000000E+00 0. -1.
        -13    1    1    2    0    0 -0.21666273803E+02 -0.80593082376E+02  0.31980488447E+03  0.33051451957E+03  0.10566000000E+00 0.  1.
         13    1    1    2    0    0  0.74078738414E+01  0.57234061794E+02 -0.70705446584E+02  0.91268207855E+02  0.10566000000E+00 0. -1.
         -4    1    1    2    0  502  0.14258399962E+02  0.23359020582E+02  0.64396807989E+03  0.64454932606E+03  0.00000000000E+00 0. -1.
</event>
<event>
 5    1  0.6336319E-005  0.3109193E+03  0.7818608E-02  0.1002897E+00
         -4   -1    0    0    0  501 -0.00000000000E+00  0.00000000000E+00  0.49151050003E+03  0.49151050003E+03  0.00000000000E+00 0. -1.
         21   -1    0    0  501  502  0.00000000000E+00 -0.00000000000E+00 -0.98046729806E+03  0.98046729806E+03  0.00000000000E+00 0. -1.
        -13    1    1    2    0    0  0.14919383577E+03 -0.27832292944E+03  0.28434069973E+03  0.42493775823E+03  0.10566000000E+00 0.  1.
         13    1    1    2    0    0 -0.15583021951E+03  0.25617219116E+03 -0.27741976837E+02  0.30112601561E+03  0.10566000000E+00 0. -1.
         -4    1    1    2    0  502  0.66363837464E+01  0.22150738287E+02 -0.74555552092E+03  0.74591402425E+03  0.00000000000E+00 0. -1.
</event>
<event>
 5    1  0.6336319E-005  0.1306952E+03  0.7818608E-02  0.1126348E+00
         21   -1    0    0  501  502  0.00000000000E+00  0.00000000000E+00  0.15689591742E+03  0.15689591742E+03  0.00000000000E+00 0. -1.
         -4   -1    0    0    0  501 -0.00000000000E+00 -0.00000000000E+00 -0.42136797160E+03  0.42136797160E+03  0.00000000000E+00 0. -1.
        -13    1    1    2    0    0 -0.36558749181E+02  0.13358125185E+03  0.13087207143E+02  0.13911067228E+03  0.10566000000E+00 0.  1.
         13    1    1    2    0    0  0.66787220446E+02  0.10096753501E+02 -0.28426188344E+03  0.29217684163E+03  0.10566000000E+00 0. -1.
         -4    1    1    2    0  502 -0.30228471265E+02 -0.14367800535E+03  0.67026221111E+01  0.14697637511E+03  0.00000000000E+00 0. -1.
</event>
<event>
 5    1  0.6336319E-005  0.6089058E+03  0.7818608E-02  0.9266763E-01
         21   -1    0    0  501  502  0.00000000000E+00  0.00000000000E+00  0.11044517011E+04  0.11044517011E+04  0.00000000000E+00 0. -1.
          4   -1    0    0  502    0 -0.00000000000E+00 -0.00000000000E+00 -0.54282214979E+03  0.54282214979E+03  0.00000000000E+00 0.  1.
        -13    1    1    2    0    0 -0.57211504292E+01 -0.72597768839E+03  0.30518265451E+03  0.78753590355E+03  0.10566000000E+00 0.  1.
         13    1    1    2    0    0  0.15465243739E+03  0.50482930541E+03  0.26951324547E+03  0.59279625896E+03  0.10566000000E+00 0. -1.
          4    1    1    2  501    0 -0.14893128696E+03  0.22114838298E+03 -0.13066348671E+02  0.26694168838E+03  0.00000000000E+00 0.  1.
</event>
<event>
 5    1  0.6336319E-005  0.1612789E+03  0.7818608E-02  0.1090491E+00
         21   -1    0    0  501  502  0.00000000000E+00  0.00000000000E+00  0.88974612713E+02  0.88974612713E+02  0.00000000000E+00 0.  1.
         -4   -1    0    0    0  501 -0.00000000000E+00 -0.00000000000E+00 -0.60769963736E+03  0.60769963736E+03  0.00000000000E+00 0. -1.
        -13    1    1    2    0    0 -0.69200890826E+01 -0.17053745562E+03 -0.42277576362E+02  0.17583604872E+03  0.10566000000E+00 0.  1.
         13    1    1    2    0    0  0.58135109455E+01  0.15936623550E+03 -0.48243933358E+03  0.50811329020E+03  0.10566000000E+00 0. -1.
         -4    1    1    2    0  502  0.11065781371E+01  0.11171220122E+02  0.59918853014E+01  0.12724911145E+02  0.00000000000E+00 0. -1.
</event>
<event>
 5    1  0.6336319E-005  0.4936397E+03  0.7818608E-02  0.9613013E-01
          4   -1    0    0  502    0 -0.00000000000E+00  0.00000000000E+00  0.41482748936E+04  0.41482748936E+04  0.00000000000E+00 0.  1.
         21   -1    0    0  501  502  0.00000000000E+00 -0.00000000000E+00 -0.12209230842E+03  0.12209230842E+03  0.00000000000E+00 0.  1.
        -13    1    1    2    0    0  0.39734071715E+03 -0.11515435679E+03  0.15284718997E+04  0.15834666182E+04  0.10566000000E+00 0.  1.
         13    1    1    2    0    0 -0.13687139955E+02 -0.31929790233E+03  0.14945353148E+04  0.15283240189E+04  0.10566000000E+00 0. -1.
          4    1    1    2  501    0 -0.38365357720E+03  0.43445225912E+03  0.10031753707E+04  0.11585765651E+04  0.00000000000E+00 0.  1.
</event>
<event>
 5    1  0.6336319E-005  0.6289460E+02  0.7818608E-02  0.1256515E+00
         -4   -1    0    0    0  501 -0.00000000000E+00  0.00000000000E+00  0.93105019558E+02  0.93105019558E+02  0.00000000000E+00 0. -1.
         21   -1    0    0  501  502  0.00000000000E+00 -0.00000000000E+00 -0.17830455371E+03  0.17830455371E+03  0.00000000000E+00 0.  1.
        -13    1    1    2    0    0  0.63357230047E+02  0.60861009414E+02 -0.30217012306E+02  0.92904682675E+02  0.10566000000E+00 0.  1.
         13    1    1    2    0    0 -0.54764846694E+02  0.83038954838E+01  0.34367563386E+02  0.65186529980E+02  0.10566000000E+00 0. -1.
         -4    1    1    2    0  502 -0.85923833531E+01 -0.69164904898E+02 -0.89350085233E+02  0.11331836062E+03  0.00000000000E+00 0. -1.
</event>
<event>
 5    1  0.6336319E-005  0.7267117E+02  0.7818608E-02  0.1270026E+00
          4   -1    0    0  502    0 -0.00000000000E+00  0.00000000000E+00  0.45352333016E+02  0.45352333016E+02  0.00000000000E+00 0.  1.
         21   -1    0    0  501  502  0.00000000000E+00 -0.00000000000E+00 -0.20071307345E+03  0.20071307345E+03  0.00000000000E+00 0. -1.
        -13    1    1    2    0    0 -0.69421436429E+02 -0.31577431618E+02 -0.38078146358E+02  0.85243336500E+02  0.10566000000E+00 0.  1.
         13    1    1    2    0    0  0.17688564038E+02 -0.17886437618E+02 -0.71650692799E+02  0.75938415121E+02  0.10566000000E+00 0. -1.
          4    1    1    2  501    0  0.51732872391E+02  0.49463869236E+02 -0.45631901273E+02  0.84883654843E+02  0.00000000000E+00 0.  1.
</event>
<event>
 5    1  0.6336319E-005  0.4251975E+03  0.7818608E-02  0.9914655E-01
         21   -1    0    0  501  502  0.00000000000E+00  0.00000000000E+00  0.97410230001E+03  0.97410230001E+03  0.00000000000E+00 0. -1.
         -4   -1    0    0    0  501 -0.00000000000E+00 -0.00000000000E+00 -0.36456248217E+03  0.36456248217E+03  0.00000000000E+00 0. -1.
        -13    1    1    2    0    0  0.53114348618E+02 -0.16905918821E+03  0.10847159193E+03  0.20776968154E+03  0.10566000000E+00 0.  1.
         13    1    1    2    0    0 -0.34840290434E+02 -0.38435579465E+03  0.42149446633E+03  0.57148999906E+03  0.10566000000E+00 0. -1.
         -4    1    1    2    0  502 -0.18274058184E+02  0.55341498286E+03  0.79573759578E+02  0.55940510158E+03  0.00000000000E+00 0. -1.
</event>
<event>
 5    1  0.6336319E-005  0.3932586E+03  0.7818608E-02  0.1012823E+00
         21   -1    0    0  501  502  0.00000000000E+00  0.00000000000E+00  0.56698860597E+03  0.56698860597E+03  0.00000000000E+00 0. -1.
         -4   -1    0    0    0  501 -0.00000000000E+00 -0.00000000000E+00 -0.60701657649E+03  0.60701657649E+03  0.00000000000E+00 0. -1.
        -13    1    1    2    0    0 -0.90792283907E+02  0.64802112481E+02 -0.18486466743E+03  0.21591088214E+03  0.10566000000E+00 0.  1.
         13    1    1    2    0    0  0.93461258227E+02 -0.44274162522E+03 -0.15217946093E+03  0.47740313467E+03  0.10566000000E+00 0. -1.
         -4    1    1    2    0  502 -0.26689743200E+01  0.37793951274E+03  0.29701615784E+03  0.48069116565E+03  0.00000000000E+00 0. -1.
</event>
<event>
 5    1  0.6336319E-005  0.3364397E+03  0.7818608E-02  0.9933069E-01
         21   -1    0    0  501  502  0.00000000000E+00  0.00000000000E+00  0.94714461721E+03  0.94714461721E+03  0.00000000000E+00 0.  1.
         -4   -1    0    0    0  501 -0.00000000000E+00 -0.00000000000E+00 -0.18878655944E+03  0.18878655944E+03  0.00000000000E+00 0. -1.
        -13    1    1    2    0    0  0.25456302518E+03 -0.20525097567E+03  0.14913604755E+03  0.35940488122E+03  0.10566000000E+00 0.  1.
         13    1    1    2    0    0 -0.31407789577E+03  0.16567137967E+03  0.31803326537E+03  0.47669392665E+03  0.10566000000E+00 0. -1.
         -4    1    1    2    0  502  0.59514870595E+02  0.39579596002E+02  0.29118874485E+03  0.29983236878E+03  0.00000000000E+00 0. -1.
</event>
<event>
 5    1  0.1449936E-004  0.4869126E+03  0.7818608E-02  0.1012325E+00
          4   -1    0    0  502    0 -0.00000000000E+00  0.00000000000E+00  0.11994597689E+04  0.11994597689E+04  0.00000000000E+00 0.  1.
         21   -1    0    0  501  502  0.00000000000E+00 -0.00000000000E+00 -0.27329997599E+03  0.27329997599E+03  0.00000000000E+00 0.  1.
        -13    1    1    2    0    0  0.44284559372E+03  0.79378290641E+02  0.49344119879E+03  0.66775546476E+03  0.10566000000E+00 0.  1.
         13    1    1    2    0    0  0.58206409199E+02  0.13320298767E+02  0.26031248062E+03  0.26707305211E+03  0.10566000000E+00 0. -1.
          4    1    1    2  501    0 -0.50105200292E+03 -0.92698589409E+02  0.17240611351E+03  0.53793122802E+03  0.00000000000E+00 0.  1.
</event>
<event>
 5    1  0.6336319E-005  0.4868329E+03  0.7818608E-02  0.9940549E-01
         21   -1    0    0  501  502  0.00000000000E+00  0.00000000000E+00  0.32701984718E+03  0.32701984718E+03  0.00000000000E+00 0.  1.
          4   -1    0    0  502    0 -0.00000000000E+00 -0.00000000000E+00 -0.11487318392E+04  0.11487318392E+04  0.00000000000E+00 0.  1.
        -13    1    1    2    0    0  0.37027687974E+03  0.27971953703E+03 -0.36321020160E+03  0.58929589238E+03  0.10566000000E+00 0.  1.
         13    1    1    2    0    0 -0.37920469867E+02  0.10146416642E+03 -0.35378973058E+03  0.37000016720E+03  0.10566000000E+00 0. -1.
          4    1    1    2  501    0 -0.33235640987E+03 -0.38118370345E+03 -0.10471205981E+03  0.51645562677E+03  0.00000000000E+00 0.  1.
</event>
<event>
 5    1  0.6336319E-005  0.9397690E+02  0.7818608E-02  0.1174925E+00
         21   -1    0    0  501  502  0.00000000000E+00  0.00000000000E+00  0.34044225918E+03  0.34044225918E+03  0.00000000000E+00 0.  1.
         -4   -1    0    0    0  501 -0.00000000000E+00 -0.00000000000E+00 -0.55493328733E+02  0.55493328733E+02  0.00000000000E+00 0. -1.
        -13    1    1    2    0    0  0.64166648838E+00 -0.64470597520E+02  0.87996018827E+02  0.10908794697E+03  0.10566000000E+00 0.  1.
         13    1    1    2    0    0  0.14552747058E+02  0.12406937788E+03  0.64006124899E+02  0.14036305840E+03  0.10566000000E+00 0. -1.
         -4    1    1    2    0  502 -0.15194413546E+02 -0.59598780361E+02  0.13294678672E+03  0.14648458254E+03  0.00000000000E+00 0. -1.
</event>
<event>
 5    1  0.6336319E-005  0.7400732E+02  0.7818608E-02  0.1216589E+00
         21   -1    0    0  501  502  0.00000000000E+00  0.00000000000E+00  0.58647655681E+02  0.58647655681E+02  0.00000000000E+00 0. -1.
          4   -1    0    0  502    0 -0.00000000000E+00 -0.00000000000E+00 -0.20853026885E+03  0.20853026885E+03  0.00000000000E+00 0.  1.
        -13    1    1    2    0    0  0.19224807081E+02  0.68241798055E+02 -0.91624960702E+02  0.11585197796E+03  0.10566000000E+00 0.  1.
         13    1    1    2    0    0 -0.46801805518E+02 -0.65934354467E+02 -0.81782315816E+02  0.11500481052E+03  0.10566000000E+00 0. -1.
          4    1    1    2  501    0  0.27576998437E+02 -0.23074435875E+01  0.23524663347E+02  0.36321136054E+02  0.00000000000E+00 0.  1.
</event>
<event>
 5    1  0.6336319E-005  0.5035881E+03  0.7818608E-02  0.9769699E-01
         -4   -1    0    0    0  501 -0.00000000000E+00  0.00000000000E+00  0.23336450962E+03  0.23336450962E+03  0.00000000000E+00 0. -1.
         21   -1    0    0  501  502  0.00000000000E+00 -0.00000000000E+00 -0.19742791499E+04  0.19742791499E+04  0.00000000000E+00 0. -1.
        -13    1    1    2    0    0  0.14284016704E+03 -0.99765479600E+02  0.15146724470E+02  0.17488824622E+03  0.10566000000E+00 0.  1.
         13    1    1    2    0    0 -0.17038149941E+03 -0.44597722783E+03 -0.81063495639E+03  0.94077339820E+03  0.10566000000E+00 0. -1.
         -4    1    1    2    0  502  0.27541332371E+02  0.54574270743E+03 -0.94542640840E+03  0.10919820151E+04  0.00000000000E+00 0. -1.
</event>
<event>
 5    1  0.6336319E-005  0.5516094E+02  0.7818608E-02  0.1297726E+00
          4   -1    0    0  502    0 -0.00000000000E+00  0.00000000000E+00  0.15819685362E+02  0.15819685362E+02  0.00000000000E+00 0.  1.
         21   -1    0    0  501  502  0.00000000000E+00 -0.00000000000E+00 -0.43111816166E+03  0.43111816166E+03  0.00000000000E+00 0. -1.
        -13    1    1    2    0    0 -0.30279079552E+02  0.48190777272E+02 -0.77956767626E+02  0.96521720122E+02  0.10566000000E+00 0.  1.
         13    1    1    2    0    0 -0.22281351663E+02 -0.24552081996E+02 -0.17586812361E+03  0.17896611810E+03  0.10566000000E+00 0. -1.
          4    1    1    2  501    0  0.52560431215E+02 -0.23638695276E+02 -0.16147358506E+03  0.17145000880E+03  0.00000000000E+00 0.  1.
</event>
<event>
 5    1  0.6336319E-005  0.4765118E+03  0.7818608E-02  0.9586689E-01
          4   -1    0    0  502    0 -0.00000000000E+00  0.00000000000E+00  0.12643528406E+04  0.12643528406E+04  0.00000000000E+00 0.  1.
         21   -1    0    0  501  502  0.00000000000E+00 -0.00000000000E+00 -0.54435278086E+03  0.54435278086E+03  0.00000000000E+00 0.  1.
        -13    1    1    2    0    0  0.67196482041E+02  0.23574865121E+03  0.60440421151E+03  0.65222485064E+03  0.10566000000E+00 0.  1.
         13    1    1    2    0    0  0.47621433132E+03 -0.22476219047E+03  0.26955731233E+03  0.59157356889E+03  0.10566000000E+00 0. -1.
          4    1    1    2  501    0 -0.54341081336E+03 -0.10986460734E+02 -0.15396146406E+03  0.56490720195E+03  0.00000000000E+00 0.  1.
</event>
<event>
 5    1  0.6336319E-005  0.1487941E+03  0.7818608E-02  0.1102307E+00
         21   -1    0    0  501  502  0.00000000000E+00  0.00000000000E+00  0.75190920918E+03  0.75190920918E+03  0.00000000000E+00 0.  1.
          4   -1    0    0  502    0 -0.00000000000E+00 -0.00000000000E+00 -0.91804059319E+02  0.91804059319E+02  0.00000000000E+00 0.  1.
        -13    1    1    2    0    0 -0.14861014756E+03  0.25826566838E+02 -0.95341044587E+01  0.15113867085E+03  0.10566000000E+00 0.  1.
         13    1    1    2    0    0  0.13522354329E+03 -0.20927679485E+02  0.40381315307E+03  0.42636656551E+03  0.10566000000E+00 0. -1.
          4    1    1    2  501    0  0.13386604270E+02 -0.48988873529E+01  0.26582610125E+03  0.26620803215E+03  0.00000000000E+00 0.  1.
</event>
<event>
 5    1  0.6336319E-005  0.4766124E+03  0.7818608E-02  0.9636092E-01
          4   -1    0    0  502    0 -0.00000000000E+00  0.00000000000E+00  0.34720612197E+04  0.34720612197E+04  0.00000000000E+00 0.  1.
         21   -1    0    0  501  502  0.00000000000E+00 -0.00000000000E+00 -0.14669099504E+03  0.14669099504E+03  0.00000000000E+00 0.  1.
        -13    1    1    2    0    0  0.38558547817E+03 -0.59067796043E+02  0.72097387238E+03  0.81973684883E+03  0.10566000000E+00 0.  1.
         13    1    1    2    0    0  0.18772504325E+03 -0.26803297718E+03  0.12531597237E+04  0.12951801700E+04  0.10566000000E+00 0. -1.
          4    1    1    2  501    0 -0.57331052142E+03  0.32710077322E+03  0.13512366286E+04  0.15038351959E+04  0.00000000000E+00 0.  1.
</event>
<event>
 5    1  0.6336319E-005  0.4845236E+03  0.7818608E-02  0.9978831E-01
         21   -1    0    0  501  502  0.00000000000E+00  0.00000000000E+00  0.46824690268E+03  0.46824690268E+03  0.00000000000E+00 0. -1.
         -4   -1    0    0    0  501 -0.00000000000E+00 -0.00000000000E+00 -0.74326453346E+03  0.74326453346E+03  0.00000000000E+00 0. -1.
        -13    1    1    2    0    0  0.78048740324E+02  0.57289440848E+02 -0.18799397731E+03  0.21146023874E+03  0.10566000000E+00 0.  1.
         13    1    1    2    0    0 -0.28840649398E+03 -0.45498036991E+03 -0.10904357224E+03  0.54961436898E+03  0.10566000000E+00 0. -1.
         -4    1    1    2    0  502  0.21035775366E+03  0.39769092906E+03  0.22019918779E+02  0.45043682843E+03  0.00000000000E+00 0. -1.
</event>
<event>
 5    1  0.6336319E-005  0.4973953E+03  0.7818608E-02  0.9732429E-01
         21   -1    0    0  501  502  0.00000000000E+00  0.00000000000E+00  0.20131633610E+03  0.20131633610E+03  0.00000000000E+00 0. -1.
         -4   -1    0    0    0  501 -0.00000000000E+00 -0.00000000000E+00 -0.18603119824E+04  0.18603119824E+04  0.00000000000E+00 0. -1.
        -13    1    1    2    0    0  0.11839968931E+03  0.16810075185E+03 -0.24251349372E+03  0.31794520755E+03  0.10566000000E+00 0.  1.
         13    1    1    2    0    0 -0.26256281777E+03 -0.53284388982E+03 -0.63638886046E+03  0.87054732041E+03  0.10566000000E+00 0. -1.
         -4    1    1    2    0  502  0.14416312846E+03  0.36474313798E+03 -0.78009329212E+03  0.87313579053E+03  0.00000000000E+00 0. -1.
</event>
<event>
 5    1  0.6336319E-005  0.5101338E+02  0.7818608E-02  0.1307805E+00
         -4   -1    0    0    0  501 -0.00000000000E+00  0.00000000000E+00  0.38997435612E+03  0.38997435612E+03  0.00000000000E+00 0. -1.
         21   -1    0    0  501  502  0.00000000000E+00 -0.00000000000E+00 -0.14110913217E+02  0.14110913217E+02  0.00000000000E+00 0. -1.
        -13    1    1    2    0    0 -0.91043255265E+01  0.33278859209E+02  0.13404440936E+03  0.13841346054E+03  0.10566000000E+00 0.  1.
         13    1    1    2    0    0 -0.46692450954E+02 -0.21763626774E+02  0.92912745104E+02  0.10623855135E+03  0.10566000000E+00 0. -1.
         -4    1    1    2    0  502  0.55796776480E+02 -0.11515232435E+02  0.14890628844E+03  0.15943325744E+03  0.00000000000E+00 0. -1.
</event>
<event>
 5    1  0.6336319E-005  0.1880995E+03  0.7818608E-02  0.1068615E+00
         21   -1    0    0  501  502  0.00000000000E+00  0.00000000000E+00  0.12164614179E+03  0.12164614179E+03  0.00000000000E+00 0.  1.
         -4   -1    0    0    0  501 -0.00000000000E+00 -0.00000000000E+00 -0.46789787681E+03  0.46789787681E+03  0.00000000000E+00 0. -1.
        -13    1    1    2    0    0  0.17981846712E+03 -0.75278447657E+02 -0.11357010361E+03  0.22560963055E+03  0.10566000000E+00 0.  1.
         13    1    1    2    0    0 -0.17089704229E+03  0.69810457158E+02 -0.26893658322E+03  0.32619962592E+03  0.10566000000E+00 0. -1.
         -4    1    1    2    0  502 -0.89214248353E+01  0.54679904993E+01  0.36254951818E+02  0.37734762123E+02  0.00000000000E+00 0. -1.
</event>
<event>
 5    1  0.6336319E-005  0.6332610E+02  0.7818608E-02  0.1279627E+00
         -4   -1    0    0    0  501 -0.00000000000E+00  0.00000000000E+00  0.11380257817E+04  0.11380257817E+04  0.00000000000E+00 0. -1.
         21   -1    0    0  501  502  0.00000000000E+00 -0.00000000000E+00 -0.88345256174E+01  0.88345256174E+01  0.00000000000E+00 0.  1.
        -13    1    1    2    0    0  0.15448688814E+02 -0.27250775833E+02  0.76653925038E+02  0.82807621372E+02  0.10566000000E+00 0.  1.
         13    1    1    2    0    0 -0.35662335151E+02  0.60475151974E+02  0.22721195673E+03  0.23781154429E+03  0.10566000000E+00 0. -1.
         -4    1    1    2    0  502  0.20213646337E+02 -0.33224376141E+02  0.82532537430E+03  0.82624114164E+03  0.00000000000E+00 0. -1.
</event>
<event>
 5    1  0.6336319E-005  0.4543894E+03  0.7818608E-02  0.9828583E-01
         21   -1    0    0  501  502  0.00000000000E+00  0.00000000000E+00  0.10309932452E+04  0.10309932452E+04  0.00000000000E+00 0.  1.
          4   -1    0    0  502    0 -0.00000000000E+00 -0.00000000000E+00 -0.42856642558E+03  0.42856642558E+03  0.00000000000E+00 0.  1.
        -13    1    1    2    0    0 -0.33553706303E+03  0.43101531925E+03  0.60338824077E+03  0.81390214790E+03  0.10566000000E+00 0.  1.
         13    1    1    2    0    0  0.14089022432E+03 -0.13332855382E+03 -0.16435935901E+03  0.25424509559E+03  0.10566000000E+00 0. -1.
          4    1    1    2  501    0  0.19464683872E+03 -0.29768676542E+03  0.16339793782E+03  0.39141242726E+03  0.00000000000E+00 0.  1.
</event>
<event>
 5    1  0.6336319E-005  0.1469185E+03  0.7818608E-02  0.1104191E+00
          4   -1    0    0  502    0 -0.00000000000E+00  0.00000000000E+00  0.69338808074E+02  0.69338808074E+02  0.00000000000E+00 0.  1.
         21   -1    0    0  501  502  0.00000000000E+00 -0.00000000000E+00 -0.50110787834E+03  0.50110787834E+03  0.00000000000E+00 0. -1.
        -13    1    1    2    0    0  0.14975633698E+03 -0.36010706358E+02 -0.94482262146E+02  0.18069488222E+03  0.10566000000E+00 0.  1.
         13    1    1    2    0    0 -0.13445602496E+03  0.28751385614E+02 -0.15710189166E+03  0.20877279601E+03  0.10566000000E+00 0. -1.
          4    1    1    2  501    0 -0.15300312014E+02  0.72593207440E+01 -0.18018491645E+03  0.18097900818E+03  0.00000000000E+00 0.  1.
</event>
<event>
 5    1  0.6336319E-005  0.1302105E+03  0.7818608E-02  0.1122452E+00
         -4   -1    0    0    0  501 -0.00000000000E+00  0.00000000000E+00  0.65373856106E+02  0.65373856106E+02  0.00000000000E+00 0. -1.
         21   -1    0    0  501  502  0.00000000000E+00 -0.00000000000E+00 -0.31334875537E+03  0.31334875537E+03  0.00000000000E+00 0.  1.
        -13    1    1    2    0    0  0.28763109718E+02 -0.12036762175E+03 -0.11776025834E+03  0.17083082407E+03  0.10566000000E+00 0.  1.
         13    1    1    2    0    0 -0.52457102989E+02  0.12703670839E+03 -0.11090329022E+03  0.17660584327E+03  0.10566000000E+00 0. -1.
         -4    1    1    2    0  502  0.23693993271E+02 -0.66690866449E+01 -0.19311350703E+02  0.31285944125E+02  0.00000000000E+00 0. -1.
</event>
<event>
 5    1  0.6336319E-005  0.5358505E+03  0.7818608E-02  0.9709271E-01
         -4   -1    0    0    0  501 -0.00000000000E+00  0.00000000000E+00  0.25067434110E+04  0.25067434110E+04  0.00000000000E+00 0. -1.
         21   -1    0    0  501  502  0.00000000000E+00 -0.00000000000E+00 -0.16609900854E+03  0.16609900854E+03  0.00000000000E+00 0. -1.
        -13    1    1    2    0    0 -0.14472281882E+03  0.10397130012E+03  0.53722563297E+03  0.56600893758E+03  0.10566000000E+00 0.  1.
         13    1    1    2    0    0 -0.20149501542E+03  0.41548183093E+03  0.84751089183E+03  0.96514253663E+03  0.10566000000E+00 0. -1.
         -4    1    1    2    0  502  0.34621783424E+03 -0.51945313105E+03  0.95590787769E+03  0.11416909454E+04  0.00000000000E+00 0. -1.
</event>
<event>
 5    1  0.6336319E-005  0.2739450E+03  0.7818608E-02  0.1018680E+00
         -4   -1    0    0    0  501 -0.00000000000E+00  0.00000000000E+00  0.11468281181E+04  0.11468281181E+04  0.00000000000E+00 0. -1.
         21   -1    0    0  501  502  0.00000000000E+00 -0.00000000000E+00 -0.38475846202E+03  0.38475846202E+03  0.00000000000E+00 0. -1.
        -13    1    1    2    0    0 -0.24089088064E+03  0.81415530088E+02  0.34856567676E+03  0.43145677315E+03  0.10566000000E+00 0.  1.
         13    1    1    2    0    0  0.25208641277E+03 -0.14111291794E+03  0.72621851391E+03  0.78157133790E+03  0.10566000000E+00 0. -1.
         -4    1    1    2    0  502 -0.11195532132E+02  0.59697387848E+02 -0.31271453461E+03  0.31855846906E+03  0.00000000000E+00 0. -1.
</event>
<event>
 5    1  0.6336319E-005  0.4946080E+03  0.7818608E-02  0.9874510E-01
         21   -1    0    0  501  502  0.00000000000E+00  0.00000000000E+00  0.48595636405E+03  0.48595636405E+03  0.00000000000E+00 0. -1.
         -4   -1    0    0    0  501 -0.00000000000E+00 -0.00000000000E+00 -0.73536645267E+03  0.73536645267E+03  0.00000000000E+00 0. -1.
        -13    1    1    2    0    0 -0.27400595018E+02 -0.12583478467E+03  0.88109750195E+02  0.15604013870E+03  0.10566000000E+00 0.  1.
         13    1    1    2    0    0 -0.45957545832E+03  0.20356807986E+03 -0.80058365227E+02  0.50897830802E+03  0.10566000000E+00 0. -1.
         -4    1    1    2    0  502  0.48697605334E+03 -0.77733295183E+02 -0.25746147360E+03  0.55630437001E+03  0.00000000000E+00 0. -1.
</event>
<event>
 5    1  0.6336319E-005  0.1147301E+03  0.7818608E-02  0.1142249E+00
         21   -1    0    0  501  502  0.00000000000E+00  0.00000000000E+00  0.20595490967E+03  0.20595490967E+03  0.00000000000E+00 0.  1.
         -4   -1    0    0    0  501 -0.00000000000E+00 -0.00000000000E+00 -0.36409592731E+03  0.36409592731E+03  0.00000000000E+00 0. -1.
        -13    1    1    2    0    0 -0.11844105202E+02  0.14400867533E+03  0.11080262035E+03  0.18208792722E+03  0.10566000000E+00 0.  1.
         13    1    1    2    0    0  0.16638188667E+02 -0.11151546945E+03 -0.31318487089E+03  0.33286228950E+03  0.10566000000E+00 0. -1.
         -4    1    1    2    0  502 -0.47940834647E+01 -0.32493205884E+02  0.44241232905E+02  0.55100620267E+02  0.00000000000E+00 0. -1.
</event>
<event>
 5    1  0.6336319E-005  0.4998083E+03  0.7818608E-02  0.9668376E-01
         21   -1    0    0  501  502  0.00000000000E+00  0.00000000000E+00  0.30770505133E+03  0.30770505133E+03  0.00000000000E+00 0. -1.
         -4   -1    0    0    0  501 -0.00000000000E+00 -0.00000000000E+00 -0.14934499303E+04  0.14934499303E+04  0.00000000000E+00 0. -1.
        -13    1    1    2    0    0  0.21499315056E+03 -0.13392030351E+03 -0.50551978519E+03  0.56542635848E+03  0.10566000000E+00 0.  1.
         13    1    1    2    0    0 -0.53655292814E+03  0.31570667597E+03 -0.25573822389E+03  0.67302436826E+03  0.10566000000E+00 0. -1.
         -4    1    1    2    0  502  0.32155977759E+03 -0.18178637245E+03 -0.42448686988E+03  0.56270425489E+03  0.00000000000E+00 0. -1.
</event>
<event>
 5    1  0.6336319E-005  0.5367172E+03  0.7818608E-02  0.9400933E-01
         21   -1    0    0  501  502  0.00000000000E+00  0.00000000000E+00  0.28984524602E+03  0.28984524602E+03  0.00000000000E+00 0. -1.
          4   -1    0    0  502    0 -0.00000000000E+00 -0.00000000000E+00 -0.22203646096E+04  0.22203646096E+04  0.00000000000E+00 0.  1.
        -13    1    1    2    0    0  0.44532096719E+03  0.41338559623E+03 -0.12407651693E+04  0.13815558734E+04  0.10566000000E+00 0.  1.
         13    1    1    2    0    0 -0.48602112212E+03 -0.96653110118E+02 -0.63368117460E+03  0.80443159874E+03  0.10566000000E+00 0. -1.
          4    1    1    2  501    0  0.40700154925E+02 -0.31673248611E+03 -0.56073019667E+02  0.32422238341E+03  0.00000000000E+00 0.  1.
</event>
<event>
 5    1  0.6336319E-005  0.5494858E+03  0.7818608E-02  0.9475964E-01
          4   -1    0    0  502    0 -0.00000000000E+00  0.00000000000E+00  0.24050214489E+04  0.24050214489E+04  0.00000000000E+00 0.  1.
         21   -1    0    0  501  502  0.00000000000E+00 -0.00000000000E+00 -0.38034827341E+03  0.38034827341E+03  0.00000000000E+00 0.  1.
        -13    1    1    2    0    0 -0.60259973217E+03  0.22216235211E+03  0.19092719204E+03  0.67002667987E+03  0.10566000000E+00 0.  1.
         13    1    1    2    0    0  0.32829487909E+03  0.19034453932E+03  0.14202205745E+04  0.14700459390E+04  0.10566000000E+00 0. -1.
          4    1    1    2  501    0  0.27430485308E+03 -0.41250689143E+03  0.41352540894E+03  0.64529710346E+03  0.00000000000E+00 0.  1.
</event>
<event>
 5    1  0.6336319E-005  0.4138164E+03  0.7818608E-02  0.9861425E-01
         -4   -1    0    0    0  501 -0.00000000000E+00  0.00000000000E+00  0.11816247683E+04  0.11816247683E+04  0.00000000000E+00 0. -1.
         21   -1    0    0  501  502  0.00000000000E+00 -0.00000000000E+00 -0.36246232377E+03  0.36246232377E+03  0.00000000000E+00 0. -1.
        -13    1    1    2    0    0 -0.16922126019E+03  0.15547935822E+03  0.37601429573E+03  0.44067723732E+03  0.10566000000E+00 0.  1.
         13    1    1    2    0    0  0.25422009975E+03 -0.51464355670E+03  0.45753223273E+03  0.73404468851E+03  0.10566000000E+00 0. -1.
         -4    1    1    2    0  502 -0.84998839567E+02  0.35916419849E+03 -0.14384083891E+02  0.36936516630E+03  0.00000000000E+00 0. -1.
</event>
<event>
 5    1  0.6336319E-005  0.6859539E+03  0.7818608E-02  0.9143607E-01
         21   -1    0    0  501  502  0.00000000000E+00  0.00000000000E+00  0.53110028374E+03  0.53110028374E+03  0.00000000000E+00 0. -1.
          4   -1    0    0  502    0 -0.00000000000E+00 -0.00000000000E+00 -0.17263974788E+04  0.17263974788E+04  0.00000000000E+00 0.  1.
        -13    1    1    2    0    0 -0.69982967026E+03  0.31181727427E+03 -0.87677433433E+03  0.11643559698E+04  0.10566000000E+00 0.  1.
         13    1    1    2    0    0  0.55536025329E+03  0.26294265280E+02  0.67462829521E+02  0.56006039304E+03  0.10566000000E+00 0. -1.
          4    1    1    2  501    0  0.14446941697E+03 -0.33811153955E+03 -0.38598569023E+03  0.53308139967E+03  0.00000000000E+00 0.  1.
</event>
<event>
 5    1  0.6336319E-005  0.4893007E+03  0.7818608E-02  0.9635714E-01
         -4   -1    0    0    0  501 -0.00000000000E+00  0.00000000000E+00  0.25884469465E+03  0.25884469465E+03  0.00000000000E+00 0. -1.
         21   -1    0    0  501  502  0.00000000000E+00 -0.00000000000E+00 -0.17238914867E+04  0.17238914867E+04  0.00000000000E+00 0. -1.
        -13    1    1    2    0    0 -0.30233946644E+03 -0.17327398918E+02 -0.42971363336E+03  0.52570258662E+03  0.10566000000E+00 0.  1.
         13    1    1    2    0    0  0.49603124802E+03  0.36227485860E+03 -0.74912282304E+03  0.96874923863E+03  0.10566000000E+00 0. -1.
         -4    1    1    2    0  502 -0.19369178159E+03 -0.34494745968E+03 -0.28621033569E+03  0.48828435614E+03  0.00000000000E+00 0. -1.
</event>
<event>
 5    1  0.6336319E-005  0.1762813E+03  0.7818608E-02  0.1081007E+00
         -4   -1    0    0    0  501 -0.00000000000E+00  0.00000000000E+00  0.94240417680E+03  0.94240417680E+03  0.00000000000E+00 0. -1.
         21   -1    0    0  501  502  0.00000000000E+00 -0.00000000000E+00 -0.18494552278E+03  0.18494552278E+03  0.00000000000E+00 0. -1.
        -13    1    1    2    0    0  0.15697879720E+03 -0.34784862210E+02  0.60656085112E+03  0.62750968653E+03  0.10566000000E+00 0.  1.
         13    1    1    2    0    0 -0.74126574269E+02  0.19630537011E+03  0.22145588133E+03  0.30507911414E+03  0.10566000000E+00 0. -1.
         -4    1    1    2    0  502 -0.82852222929E+02 -0.16152050790E+03 -0.70558078432E+02  0.19476089892E+03  0.00000000000E+00 0. -1.
</event>
<event>
 5    1  0.6336319E-005  0.1106169E+03  0.7818608E-02  0.1170881E+00
         -4   -1    0    0    0  501 -0.00000000000E+00  0.00000000000E+00  0.23435991841E+03  0.23435991841E+03  0.00000000000E+00 0. -1.
         21   -1    0    0  501  502  0.00000000000E+00 -0.00000000000E+00 -0.28839423369E+03  0.28839423369E+03  0.00000000000E+00 0. -1.
        -13    1    1    2    0    0  0.63032996908E+02  0.73201835345E+01 -0.66016010216E+02  0.91568927891E+02  0.10566000000E+00 0.  1.
         13    1    1    2    0    0 -0.12441809133E+03 -0.95587697790E+02  0.17555013328E+03  0.23544581092E+03  0.10566000000E+00 0. -1.
         -4    1    1    2    0  502  0.61385094425E+02  0.88267514255E+02 -0.16356843834E+03  0.19573941328E+03  0.00000000000E+00 0. -1.
</event>
<event>
 5    1  0.6336319E-005  0.2353765E+03  0.7818608E-02  0.1066161E+00
         -4   -1    0    0    0  501 -0.00000000000E+00  0.00000000000E+00  0.16086245081E+04  0.16086245081E+04  0.00000000000E+00 0. -1.
         21   -1    0    0  501  502  0.00000000000E+00 -0.00000000000E+00 -0.36502968294E+03  0.36502968294E+03  0.00000000000E+00 0. -1.
        -13    1    1    2    0    0  0.34428071355E+03  0.89718421414E+02  0.72529047198E+03  0.80785201911E+03  0.10566000000E+00 0.  1.
         13    1    1    2    0    0  0.14144758822E+03  0.38268785521E+02 -0.22510749681E+03  0.26859880201E+03  0.10566000000E+00 0. -1.
         -4    1    1    2    0  502 -0.48572830177E+03 -0.12798720694E+03  0.74341185001E+03  0.89720336993E+03  0.00000000000E+00 0. -1.
</event>
<event>
 5    1  0.6336319E-005  0.2852705E+03  0.7818608E-02  0.1013577E+00
          4   -1    0    0  502    0 -0.00000000000E+00  0.00000000000E+00  0.37687616750E+03  0.37687616750E+03  0.00000000000E+00 0.  1.
         21   -1    0    0  501  502  0.00000000000E+00 -0.00000000000E+00 -0.29788938286E+03  0.29788938286E+03  0.00000000000E+00 0. -1.
        -13    1    1    2    0    0 -0.19302819670E+03 -0.21290901214E+03  0.18856547707E+03  0.34372530090E+03  0.10566000000E+00 0.  1.
         13    1    1    2    0    0  0.17481179576E+03  0.21964618903E+03 -0.73686141037E+02  0.29022968635E+03  0.10566000000E+00 0. -1.
          4    1    1    2  501    0  0.18216400941E+02 -0.67371768929E+01 -0.35892551392E+02  0.40810563108E+02  0.00000000000E+00 0.  1.
</event>
<event>
 5    1  0.6336319E-005  0.4052672E+03  0.7818608E-02  0.9768909E-01
         -4   -1    0    0    0  501 -0.00000000000E+00  0.00000000000E+00  0.10381563135E+04  0.10381563135E+04  0.00000000000E+00 0. -1.
         21   -1    0    0  501  502  0.00000000000E+00 -0.00000000000E+00 -0.58500388235E+03  0.58500388235E+03  0.00000000000E+00 0. -1.
        -13    1    1    2    0    0  0.23325397072E+03 -0.24073429317E+03  0.46775003969E+03  0.57545679730E+03  0.10566000000E+00 0.  1.
         13    1    1    2    0    0  0.21378690875E+03  0.26765785666E+03  0.33532171035E+03  0.47936023112E+03  0.10566000000E+00 0. -1.
         -4    1    1    2    0  502 -0.44704087947E+03 -0.26923563494E+02 -0.34991931891E+03  0.56834316740E+03  0.00000000000E+00 0. -1.
</event>
<event>
 5    1  0.6336319E-005  0.4461057E+02  0.7818608E-02  0.1315437E+00
         -4   -1    0    0    0  501 -0.00000000000E+00  0.00000000000E+00  0.33173336345E+02  0.33173336345E+02  0.00000000000E+00 0. -1.
         21   -1    0    0  501  502  0.00000000000E+00 -0.00000000000E+00 -0.12188421050E+03  0.12188421050E+03  0.00000000000E+00 0.  1.
        -13    1    1    2    0    0  0.70966196201E+01  0.27011990093E+02 -0.52972819076E+02  0.59884391486E+02  0.10566000000E+00 0.  1.
         13    1    1    2    0    0 -0.26211007072E+02 -0.46866105691E+02 -0.50630579285E+01  0.53936022045E+02  0.10566000000E+00 0. -1.
         -4    1    1    2    0  502  0.19114387452E+02  0.19854115598E+02 -0.30674997155E+02  0.41237133318E+02  0.00000000000E+00 0. -1.
</event>
<event>
 5    1  0.6336319E-005  0.1131996E+03  0.7818608E-02  0.1144391E+00
         -4   -1    0    0    0  501 -0.00000000000E+00  0.00000000000E+00  0.37805150247E+03  0.37805150247E+03  0.00000000000E+00 0. -1.
         21   -1    0    0  501  502  0.00000000000E+00 -0.00000000000E+00 -0.49403505922E+02  0.49403505922E+02  0.00000000000E+00 0.  1.
        -13    1    1    2    0    0  0.10775307608E+03  0.20699629706E+02  0.13800382579E+03  0.17630730890E+03  0.10566000000E+00 0.  1.
         13    1    1    2    0    0 -0.11666094357E+03 -0.37050817010E+01  0.19861335944E+03  0.23037096410E+03  0.10566000000E+00 0. -1.
         -4    1    1    2    0  502  0.89078674879E+01 -0.16994548005E+02 -0.79691886924E+01  0.20776735391E+02  0.00000000000E+00 0. -1.
</event>
<event>
 5    1  0.6336319E-005  0.9159719E+02  0.7818608E-02  0.1230144E+00
         -4   -1    0    0    0  501 -0.00000000000E+00  0.00000000000E+00  0.14839031889E+03  0.14839031889E+03  0.00000000000E+00 0. -1.
         21   -1    0    0  501  502  0.00000000000E+00 -0.00000000000E+00 -0.13446934081E+03  0.13446934081E+03  0.00000000000E+00 0. -1.
        -13    1    1    2    0    0 -0.23823640469E+02 -0.16550184285E+02 -0.47425206511E+02  0.55593487224E+02  0.10566000000E+00 0.  1.
         13    1    1    2    0    0  0.75466357750E+02  0.84265315552E+02  0.81906959042E+02  0.13965878297E+03  0.10566000000E+00 0. -1.
         -4    1    1    2    0  502 -0.51642717281E+02 -0.67715131267E+02 -0.20560774446E+02  0.87607389508E+02  0.00000000000E+00 0. -1.
</event>
<event>
 5    1  0.6336319E-005  0.7047071E+03  0.7818608E-02  0.9116178E-01
         21   -1    0    0  501  502  0.00000000000E+00  0.00000000000E+00  0.42141487847E+03  0.42141487847E+03  0.00000000000E+00 0. -1.
         -4   -1    0    0    0  501 -0.00000000000E+00 -0.00000000000E+00 -0.21815932794E+04  0.21815932794E+04  0.00000000000E+00 0. -1.
        -13    1    1    2    0    0  0.65226517733E+03  0.79331015458E+02 -0.98614146633E+03  0.11849971622E+04  0.10566000000E+00 0.  1.
         13    1    1    2    0    0 -0.81863062274E+03  0.21402108396E+03 -0.60923409812E+03  0.10426539782E+04  0.10566000000E+00 0. -1.
         -4    1    1    2    0  502  0.16636544541E+03 -0.29335209942E+03 -0.16480283653E+03  0.37535701750E+03  0.00000000000E+00 0. -1.
</event>
<event>
 5    1  0.6336319E-005  0.4770520E+03  0.7818608E-02  0.9861800E-01
          4   -1    0    0  502    0 -0.00000000000E+00  0.00000000000E+00  0.16730580217E+04  0.16730580217E+04  0.00000000000E+00 0.  1.
         21   -1    0    0  501  502  0.00000000000E+00 -0.00000000000E+00 -0.25734600644E+03  0.25734600644E+03  0.00000000000E+00 0.  1.
        -13    1    1    2    0    0  0.42182855508E+03  0.24698774300E+03  0.59178008926E+03  0.76755844096E+03  0.10566000000E+00 0.  1.
         13    1    1    2    0    0  0.45572900506E+02 -0.14270738494E+03  0.62766399001E+03  0.64529402794E+03  0.10566000000E+00 0. -1.
          4    1    1    2  501    0 -0.46740145559E+03 -0.10428035805E+03  0.19626793596E+03  0.51755155922E+03  0.00000000000E+00 0.  1.
</event>
<event>
 5    1  0.6336319E-005  0.1418951E+03  0.7818608E-02  0.1158630E+00
         -4   -1    0    0    0  501 -0.00000000000E+00  0.00000000000E+00  0.11512481935E+03  0.11512481935E+03  0.00000000000E+00 0. -1.
         21   -1    0    0  501  502  0.00000000000E+00 -0.00000000000E+00 -0.11598042129E+04  0.11598042129E+04  0.00000000000E+00 0. -1.
        -13    1    1    2    0    0  0.27990262797E+02  0.29163525495E+02 -0.21825147736E+03  0.22196325048E+03  0.10566000000E+00 0.  1.
         13    1    1    2    0    0  0.83169012852E+02  0.62220445195E+02  0.82544799819E+02  0.13267299514E+03  0.10566000000E+00 0. -1.
         -4    1    1    2    0  502 -0.11115927565E+03 -0.91383970690E+02 -0.90897271601E+03  0.92029278662E+03  0.00000000000E+00 0. -1.
</event>
<event>
 5    1  0.6336319E-005  0.4650765E+03  0.7818608E-02  0.9804407E-01
         21   -1    0    0  501  502  0.00000000000E+00  0.00000000000E+00  0.16106412864E+04  0.16106412864E+04  0.00000000000E+00 0. -1.
         -4   -1    0    0    0  501 -0.00000000000E+00 -0.00000000000E+00 -0.36524380142E+03  0.36524380142E+03  0.00000000000E+00 0. -1.
        -13    1    1    2    0    0 -0.17596927188E+03  0.87266153039E+02 -0.15102137033E+03  0.24776608237E+03  0.10566000000E+00 0.  1.
         13    1    1    2    0    0 -0.10107493607E+03  0.34959616388E+03  0.17942227402E+03  0.40574127727E+03  0.10566000000E+00 0. -1.
         -4    1    1    2    0  502  0.27704420795E+03 -0.43686231692E+03  0.12169965813E+04  0.13223777282E+04  0.00000000000E+00 0. -1.
</event>
<event>
 5    1  0.6336319E-005  0.1453173E+03  0.7818608E-02  0.1117921E+00
         -4   -1    0    0    0  501 -0.00000000000E+00  0.00000000000E+00  0.67882754600E+02  0.67882754600E+02  0.00000000000E+00 0. -1.
         21   -1    0    0  501  502  0.00000000000E+00 -0.00000000000E+00 -0.14615469301E+04  0.14615469301E+04  0.00000000000E+00 0.  1.
        -13    1    1    2    0    0 -0.48479800354E+02  0.16355705260E+03 -0.44148776269E+03  0.47329975308E+03  0.10566000000E+00 0.  1.
         13    1    1    2    0    0  0.69976558234E+02  0.89694703703E+02 -0.65625628698E+03  0.66604368020E+03  0.10566000000E+00 0. -1.
         -4    1    1    2    0  502 -0.21496757880E+02 -0.25325175630E+03 -0.29592012581E+03  0.39008625140E+03  0.00000000000E+00 0. -1.
</event>
<event>
 5    1  0.6336319E-005  0.4949553E+03  0.7818608E-02  0.9941225E-01
          4   -1    0    0  502    0 -0.00000000000E+00  0.00000000000E+00  0.22760218830E+04  0.22760218830E+04  0.00000000000E+00 0.  1.
         21   -1    0    0  501  502  0.00000000000E+00 -0.00000000000E+00 -0.13591026379E+03  0.13591026379E+03  0.00000000000E+00 0.  1.
        -13    1    1    2    0    0  0.69226845856E+02 -0.51889794398E+03  0.78624979112E+03  0.94458254148E+03  0.10566000000E+00 0.  1.
         13    1    1    2    0    0  0.64489774869E+02  0.80109484687E+02  0.18434645372E+03  0.21109260234E+03  0.10566000000E+00 0. -1.
          4    1    1    2  501    0 -0.13371662072E+03  0.43878845929E+03  0.11695153744E+04  0.12562570030E+04  0.00000000000E+00 0.  1.
</event>
<event>
 5    1  0.6336319E-005  0.2523681E+03  0.7818608E-02  0.1043517E+00
         21   -1    0    0  501  502  0.00000000000E+00  0.00000000000E+00  0.49307037946E+03  0.49307037946E+03  0.00000000000E+00 0. -1.
         -4   -1    0    0    0  501 -0.00000000000E+00 -0.00000000000E+00 -0.76175092643E+03  0.76175092643E+03  0.00000000000E+00 0. -1.
        -13    1    1    2    0    0  0.13780435961E+03 -0.86869728361E+02 -0.17581195879E+03  0.23967946773E+03  0.10566000000E+00 0.  1.
         13    1    1    2    0    0  0.21513305375E+03 -0.10911324390E+03  0.34410276706E+03  0.42023166976E+03  0.10566000000E+00 0. -1.
         -4    1    1    2    0  502 -0.35293741336E+03  0.19598297226E+03 -0.43697135524E+03  0.59491016840E+03  0.00000000000E+00 0. -1.
</event>
<event>
 5    1  0.6336319E-005  0.2625120E+03  0.7818608E-02  0.1024105E+00
         21   -1    0    0  501  502  0.00000000000E+00  0.00000000000E+00  0.35368770717E+03  0.35368770717E+03  0.00000000000E+00 0. -1.
          4   -1    0    0  502    0 -0.00000000000E+00 -0.00000000000E+00 -0.37091138223E+03  0.37091138223E+03  0.00000000000E+00 0.  1.
        -13    1    1    2    0    0  0.95277603742E+02  0.23421734941E+03 -0.19709071844E+03  0.32059374760E+03  0.10566000000E+00 0.  1.
         13    1    1    2    0    0 -0.12630276574E+03 -0.26637197005E+03  0.97862649892E+02  0.31061797190E+03  0.10566000000E+00 0. -1.
          4    1    1    2  501    0  0.31025161997E+02  0.32154620636E+02  0.82004393483E+02  0.93387369894E+02  0.00000000000E+00 0.  1.
</event>
<event>
 5    1  0.6336319E-005  0.6707879E+02  0.7818608E-02  0.1274039E+00
         21   -1    0    0  501  502  0.00000000000E+00  0.00000000000E+00  0.35740466307E+03  0.35740466307E+03  0.00000000000E+00 0.  1.
          4   -1    0    0  502    0 -0.00000000000E+00 -0.00000000000E+00 -0.10281093092E+03  0.10281093092E+03  0.00000000000E+00 0.  1.
        -13    1    1    2    0    0  0.32111913144E+02 -0.41930501394E+02 -0.88230737373E+02  0.10283003498E+03  0.10566000000E+00 0.  1.
         13    1    1    2    0    0 -0.16834563910E+02 -0.24212729909E+02  0.64823433174E+02  0.71216202399E+02  0.10566000000E+00 0. -1.
          4    1    1    2  501    0 -0.15277349234E+02  0.66143231304E+02  0.27800103636E+03  0.28616935661E+03  0.00000000000E+00 0.  1.
</event>
<event>
 5    1  0.6336319E-005  0.2845394E+03  0.7818608E-02  0.1013899E+00
         21   -1    0    0  501  502  0.00000000000E+00  0.00000000000E+00  0.11867864583E+03  0.11867864583E+03  0.00000000000E+00 0. -1.
          4   -1    0    0  502    0 -0.00000000000E+00 -0.00000000000E+00 -0.13652425681E+04  0.13652425681E+04  0.00000000000E+00 0.  1.
        -13    1    1    2    0    0  0.27922007614E+03  0.71790040031E+02 -0.10374334373E+04  0.10767477926E+04  0.10566000000E+00 0.  1.
         13    1    1    2    0    0 -0.27038920385E+03 -0.42138852633E+02 -0.23962030351E+03  0.36373603820E+03  0.10566000000E+00 0. -1.
          4    1    1    2  501    0 -0.88308722827E+01 -0.29651187399E+02  0.30489818568E+02  0.43437383159E+02  0.00000000000E+00 0.  1.
</event>
<event>
 5    1  0.6336319E-005  0.4420752E+03  0.7818608E-02  0.9712401E-01
         21   -1    0    0  501  502  0.00000000000E+00  0.00000000000E+00  0.86780083205E+03  0.86780083205E+03  0.00000000000E+00 0.  1.
         -4   -1    0    0    0  501 -0.00000000000E+00 -0.00000000000E+00 -0.99496019897E+03  0.99496019897E+03  0.00000000000E+00 0. -1.
        -13    1    1    2    0    0  0.18792332057E+03 -0.59521129561E+03 -0.27398816011E+03  0.68166060755E+03  0.10566000000E+00 0.  1.
         13    1    1    2    0    0 -0.22061292226E+03  0.15434638597E+03 -0.39735450068E+03  0.47998279001E+03  0.10566000000E+00 0. -1.
         -4    1    1    2    0  502  0.32689601696E+02  0.44086490964E+03  0.54418329387E+03  0.70111763345E+03  0.00000000000E+00 0. -1.
</event>
<event>
 5    1  0.6336319E-005  0.4992083E+03  0.7818608E-02  0.9746667E-01
         21   -1    0    0  501  502  0.00000000000E+00  0.00000000000E+00  0.43648794079E+03  0.43648794079E+03  0.00000000000E+00 0. -1.
          4   -1    0    0  502    0 -0.00000000000E+00 -0.00000000000E+00 -0.91595801916E+03  0.91595801916E+03  0.00000000000E+00 0.  1.
        -13    1    1    2    0    0 -0.44870852012E+03  0.12834290079E+03 -0.18343418425E+03  0.50145722383E+03  0.10566000000E+00 0.  1.
         13    1    1    2    0    0  0.11447567002E+02  0.19327782078E+03 -0.23541783576E+03  0.30480966414E+03  0.10566000000E+00 0. -1.
          4    1    1    2  501    0  0.43726095312E+03 -0.32162072158E+03 -0.60618058368E+02  0.54617907198E+03  0.00000000000E+00 0.  1.
</event>
<event>
 5    1  0.6336319E-005  0.2554341E+03  0.7818608E-02  0.1027615E+00
         21   -1    0    0  501  502  0.00000000000E+00  0.00000000000E+00  0.13692471366E+03  0.13692471366E+03  0.00000000000E+00 0. -1.
          4   -1    0    0  502    0 -0.00000000000E+00 -0.00000000000E+00 -0.68767075873E+03  0.68767075873E+03  0.00000000000E+00 0.  1.
        -13    1    1    2    0    0  0.25360980750E+03  0.97249807408E+00 -0.47817474347E+03  0.54126701051E+03  0.10566000000E+00 0.  1.
         13    1    1    2    0    0 -0.26115622662E+03  0.84272672758E+01 -0.72895469289E+02  0.27126989170E+03  0.10566000000E+00 0. -1.
          4    1    1    2  501    0  0.75464191127E+01 -0.93997653498E+01  0.32416769613E+00  0.12058570179E+02  0.00000000000E+00 0.  1.
</event>
<event>
 5    1  0.6336319E-005  0.3210411E+03  0.7818608E-02  0.1030146E+00
          4   -1    0    0  502    0 -0.00000000000E+00  0.00000000000E+00  0.28194204474E+04  0.28194204474E+04  0.00000000000E+00 0.  1.
         21   -1    0    0  501  502  0.00000000000E+00 -0.00000000000E+00 -0.71729934755E+02  0.71729934755E+02  0.00000000000E+00 0.  1.
        -13    1    1    2    0    0 -0.31321868006E+03  0.15055863480E+03  0.48276744670E+03  0.59484305729E+03  0.10566000000E+00 0.  1.
         13    1    1    2    0    0  0.11087466282E+03 -0.43093170691E+02  0.39852579194E+03  0.41590026475E+03  0.10566000000E+00 0. -1.
          4    1    1    2  501    0  0.20234401725E+03 -0.10746546411E+03  0.18663972740E+04  0.18804070601E+04  0.00000000000E+00 0.  1.
</event>
<event>
 5    1  0.6336319E-005  0.4836346E+03  0.7818608E-02  0.9820102E-01
         21   -1    0    0  501  502  0.00000000000E+00  0.00000000000E+00  0.46463817209E+03  0.46463817209E+03  0.00000000000E+00 0. -1.
         -4   -1    0    0    0  501 -0.00000000000E+00 -0.00000000000E+00 -0.85849614622E+03  0.85849614622E+03  0.00000000000E+00 0. -1.
        -13    1    1    2    0    0  0.16466671068E+03  0.17312224803E+02 -0.25616525968E+03  0.30501719650E+03  0.10566000000E+00 0.  1.
         13    1    1    2    0    0  0.36879851596E+03 -0.22445250774E+03 -0.10370673153E+02  0.43185510953E+03  0.10566000000E+00 0. -1.
         -4    1    1    2    0  502 -0.53346522663E+03  0.20714028294E+03 -0.12732204130E+03  0.58626201228E+03  0.00000000000E+00 0. -1.
</event>
<event>
 5    1  0.6336319E-005  0.1111263E+03  0.7818608E-02  0.1147354E+00
         21   -1    0    0  501  502  0.00000000000E+00  0.00000000000E+00  0.10540679693E+04  0.10540679693E+04  0.00000000000E+00 0. -1.
          4   -1    0    0  502    0 -0.00000000000E+00 -0.00000000000E+00 -0.27794206865E+02  0.27794206865E+02  0.00000000000E+00 0.  1.
        -13    1    1    2    0    0  0.17712227707E+02  0.11438857900E+03  0.13216878987E+03  0.17569026779E+03  0.10566000000E+00 0.  1.
         13    1    1    2    0    0 -0.19213328464E+02 -0.96839120700E+02  0.40898718449E+03  0.42073447152E+03  0.10566000000E+00 0. -1.
          4    1    1    2  501    0  0.15011007572E+01 -0.17549458300E+02  0.48511778808E+03  0.48543743685E+03  0.00000000000E+00 0.  1.
</event>
<event>
 5    1  0.6336319E-005  0.1023271E+03  0.7818608E-02  0.1160762E+00
         21   -1    0    0  501  502  0.00000000000E+00  0.00000000000E+00  0.14159549812E+03  0.14159549812E+03  0.00000000000E+00 0.  1.
         -4   -1    0    0    0  501 -0.00000000000E+00 -0.00000000000E+00 -0.26432269172E+03  0.26432269172E+03  0.00000000000E+00 0. -1.
        -13    1    1    2    0    0 -0.14351877412E+03  0.65513718189E+02 -0.36649363267E+02  0.16196565311E+03  0.10566000000E+00 0.  1.
         13    1    1    2    0    0  0.83424521213E+02 -0.34166780442E+02 -0.13360227335E+03  0.16117257284E+03  0.10566000000E+00 0. -1.
         -4    1    1    2    0  502  0.60094252906E+02 -0.31346937747E+02  0.47524443023E+02  0.82779963899E+02  0.00000000000E+00 0. -1.
</event>
<event>
 5    1  0.6336319E-005  0.9335914E+03  0.7818608E-02  0.8839621E-01
         -4   -1    0    0    0  501 -0.00000000000E+00  0.00000000000E+00  0.17252673051E+04  0.17252673051E+04  0.00000000000E+00 0. -1.
         21   -1    0    0  501  502  0.00000000000E+00 -0.00000000000E+00 -0.11906097170E+04  0.11906097170E+04  0.00000000000E+00 0.  1.
        -13    1    1    2    0    0 -0.44932445082E+03 -0.82376822016E+03  0.43339146995E+03  0.10335931115E+04  0.10566000000E+00 0.  1.
         13    1    1    2    0    0  0.38575715832E+03  0.84748862062E+03  0.77112398932E+03  0.12089986623E+04  0.10566000000E+00 0. -1.
         -4    1    1    2    0  502  0.63567292502E+02 -0.23720400464E+02 -0.66985787124E+03  0.67328524841E+03  0.00000000000E+00 0. -1.
</event>
<event>
 5    1  0.6336319E-005  0.2981404E+03  0.7818608E-02  0.1020732E+00
         21   -1    0    0  501  502  0.00000000000E+00  0.00000000000E+00  0.19182508664E+04  0.19182508664E+04  0.00000000000E+00 0.  1.
          4   -1    0    0  502    0 -0.00000000000E+00 -0.00000000000E+00 -0.21911661879E+03  0.21911661879E+03  0.00000000000E+00 0.  1.
        -13    1    1    2    0    0 -0.18896282764E+03  0.26165842906E+03  0.47869226251E+02  0.32628753840E+03  0.10566000000E+00 0.  1.
         13    1    1    2    0    0 -0.99322474669E+02 -0.17267115938E+03  0.85945114842E+02  0.21694897369E+03  0.10566000000E+00 0. -1.
          4    1    1    2  501    0  0.28828530231E+03 -0.88987269683E+02  0.15653199065E+04  0.15941309731E+04  0.00000000000E+00 0.  1.
</event>
<event>
 5    1  0.6336319E-005  0.4962941E+03  0.7818608E-02  0.9812833E-01
         21   -1    0    0  501  502  0.00000000000E+00  0.00000000000E+00  0.39286384505E+03  0.39286384505E+03  0.00000000000E+00 0. -1.
         -4   -1    0    0    0  501 -0.00000000000E+00 -0.00000000000E+00 -0.13260033634E+04  0.13260033634E+04  0.00000000000E+00 0. -1.
        -13    1    1    2    0    0  0.71966788861E+02 -0.13960330329E+03 -0.63822915692E+03  0.65727069682E+03  0.10566000000E+00 0.  1.
         13    1    1    2    0    0  0.44586712734E+03 -0.83858519266E+02 -0.97416147162E+02  0.46402549864E+03  0.10566000000E+00 0. -1.
         -4    1    1    2    0  502 -0.51783391620E+03  0.22346182256E+03 -0.19749421428E+03  0.59757101300E+03  0.00000000000E+00 0. -1.
</event>
<event>
 5    1  0.6336319E-005  0.3999438E+03  0.7818608E-02  0.9867269E-01
          4   -1    0    0  502    0 -0.00000000000E+00  0.00000000000E+00  0.53006912934E+03  0.53006912934E+03  0.00000000000E+00 0.  1.
         21   -1    0    0  501  502  0.00000000000E+00 -0.00000000000E+00 -0.78492138258E+03  0.78492138258E+03  0.00000000000E+00 0.  1.
        -13    1    1    2    0    0  0.34124245987E+03  0.85254118047E+02 -0.31214685519E+03  0.47026625590E+03  0.10566000000E+00 0.  1.
         13    1    1    2    0    0  0.24823984928E+03 -0.25942156500E+02  0.33042335822E+02  0.25176938927E+03  0.10566000000E+00 0. -1.
          4    1    1    2  501    0 -0.58948230915E+03 -0.59311961547E+02  0.24252266137E+02  0.59295486675E+03  0.00000000000E+00 0.  1.
</event>
<event>
 5    1  0.6336319E-005  0.1202431E+03  0.7818608E-02  0.1134827E+00
         21   -1    0    0  501  502  0.00000000000E+00  0.00000000000E+00  0.22948975565E+02  0.22948975565E+02  0.00000000000E+00 0.  1.
         -4   -1    0    0    0  501 -0.00000000000E+00 -0.00000000000E+00 -0.92519973014E+03  0.92519973014E+03  0.00000000000E+00 0. -1.
        -13    1    1    2    0    0 -0.52930931706E+02 -0.10302039143E+03 -0.47264412749E+03  0.48662857191E+03  0.10566000000E+00 0.  1.
         13    1    1    2    0    0  0.39804558295E+02  0.12067907590E+03 -0.41749134210E+03  0.43640219307E+03  0.10566000000E+00 0. -1.
         -4    1    1    2    0  502  0.13126373411E+02 -0.17658684473E+02 -0.12115284986E+02  0.25117940730E+02  0.00000000000E+00 0. -1.
</event>
<event>
 5    1  0.6336319E-005  0.5644116E+03  0.7818608E-02  0.9346969E-01
          4   -1    0    0  502    0 -0.00000000000E+00  0.00000000000E+00  0.15238417465E+04  0.15238417465E+04  0.00000000000E+00 0.  1.
         21   -1    0    0  501  502  0.00000000000E+00 -0.00000000000E+00 -0.52875599874E+03  0.52875599874E+03  0.00000000000E+00 0. -1.
        -13    1    1    2    0    0 -0.69720285089E+03 -0.30988027652E+03  0.13888559326E+03  0.77550423612E+03  0.10566000000E+00 0.  1.
         13    1    1    2    0    0  0.52475936561E+03 -0.17745952375E+02  0.70053258438E+03  0.87546172022E+03  0.10566000000E+00 0. -1.
          4    1    1    2  501    0  0.17244348528E+03  0.32762622890E+03  0.15566757011E+03  0.40163178891E+03  0.00000000000E+00 0.  1.
</event>
<event>
 5    1  0.6336319E-005  0.4582668E+03  0.7818608E-02  0.1005609E+00
         -4   -1    0    0    0  501 -0.00000000000E+00  0.00000000000E+00  0.71316818222E+03  0.71316818222E+03  0.00000000000E+00 0. -1.
         21   -1    0    0  501  502  0.00000000000E+00 -0.00000000000E+00 -0.47357093845E+03  0.47357093845E+03  0.00000000000E+00 0. -1.
        -13    1    1    2    0    0  0.30939425758E+02  0.83357196726E+02  0.19709344236E+03  0.21622096684E+03  0.10566000000E+00 0.  1.
         13    1    1    2    0    0  0.31829943368E+03 -0.34768138895E+03 -0.14631212950E+03  0.49356268914E+03  0.10566000000E+00 0. -1.
         -4    1    1    2    0  502 -0.34923885944E+03  0.26432419222E+03  0.18881593090E+03  0.47695546469E+03  0.00000000000E+00 0. -1.
</event>
<event>
 5    1  0.6336319E-005  0.4314398E+03  0.7818608E-02  0.9642407E-01
         21   -1    0    0  501  502  0.00000000000E+00  0.00000000000E+00  0.10212972659E+03  0.10212972659E+03  0.00000000000E+00 0.  1.
         -4   -1    0    0    0  501 -0.00000000000E+00 -0.00000000000E+00 -0.21608713407E+04  0.21608713407E+04  0.00000000000E+00 0. -1.
        -13    1    1    2    0    0  0.39311622295E+03 -0.18294726009E+03 -0.13659714518E+04  0.14331392406E+04  0.10566000000E+00 0.  1.
         13    1    1    2    0    0 -0.38177744674E+03  0.19275760833E+03 -0.69358794275E+03  0.81484585039E+03  0.10566000000E+00 0. -1.
         -4    1    1    2    0  502 -0.11338776216E+02 -0.98103482434E+01  0.81778044153E+00  0.15015976278E+02  0.00000000000E+00 0. -1.
</event>
<event>
 5    1  0.6336319E-005  0.4110533E+03  0.7818608E-02  0.9697655E-01
         -4   -1    0    0    0  501 -0.00000000000E+00  0.00000000000E+00  0.14073127889E+04  0.14073127889E+04  0.00000000000E+00 0. -1.
         21   -1    0    0  501  502  0.00000000000E+00 -0.00000000000E+00 -0.19948728146E+03  0.19948728146E+03  0.00000000000E+00 0.  1.
        -13    1    1    2    0    0  0.24788598898E+03  0.32867516185E+03  0.99256956077E+03  0.10745553358E+04  0.10566000000E+00 0.  1.
         13    1    1    2    0    0 -0.30336411797E+03 -0.28162008060E+03  0.17927533502E+03  0.45108681513E+03  0.10566000000E+00 0. -1.
         -4    1    1    2    0  502  0.55478128990E+02 -0.47055081254E+02  0.35980611608E+02  0.81157919390E+02  0.00000000000E+00 0. -1.
</event>
<event>
 5    1  0.6336319E-005  0.4556192E+03  0.7818608E-02  0.9721006E-01
          4   -1    0    0  502    0 -0.00000000000E+00  0.00000000000E+00  0.26605590618E+04  0.26605590618E+04  0.00000000000E+00 0.  1.
         21   -1    0    0  501  502  0.00000000000E+00 -0.00000000000E+00 -0.16815893484E+03  0.16815893484E+03  0.00000000000E+00 0.  1.
        -13    1    1    2    0    0  0.51033221670E+03  0.68148351480E+02  0.43345538137E+03  0.67302804400E+03  0.10566000000E+00 0.  1.
         13    1    1    2    0    0 -0.19357034348E+03 -0.19997231155E+03  0.68106457644E+03  0.73573593885E+03  0.10566000000E+00 0. -1.
          4    1    1    2  501    0 -0.31676187321E+03  0.13182396007E+03  0.13778801692E+04  0.14199540138E+04  0.00000000000E+00 0.  1.
</event>
<event>
 5    1  0.6336319E-005  0.5192032E+03  0.7818608E-02  0.9720630E-01
          4   -1    0    0  502    0 -0.00000000000E+00  0.00000000000E+00  0.79942360920E+03  0.79942360920E+03  0.00000000000E+00 0.  1.
         21   -1    0    0  501  502  0.00000000000E+00 -0.00000000000E+00 -0.74082013313E+03  0.74082013313E+03  0.00000000000E+00 0.  1.
        -13    1    1    2    0    0  0.25333052675E+02 -0.47702108619E+03  0.12890231622E+03  0.49477944432E+03  0.10566000000E+00 0.  1.
         13    1    1    2    0    0  0.18631503785E+03 -0.27401799605E+02  0.32150540952E+03  0.37259883449E+03  0.10566000000E+00 0. -1.
          4    1    1    2  501    0 -0.21164809052E+03  0.50442288580E+03 -0.39180424967E+03  0.67286546352E+03  0.00000000000E+00 0.  1.
</event>
<event>
 5    1  0.6336319E-005  0.4779394E+03  0.7818608E-02  0.9944938E-01
         21   -1    0    0  501  502  0.00000000000E+00  0.00000000000E+00  0.33787158486E+03  0.33787158486E+03  0.00000000000E+00 0.  1.
          4   -1    0    0  502    0 -0.00000000000E+00 -0.00000000000E+00 -0.13302231630E+04  0.13302231630E+04  0.00000000000E+00 0.  1.
        -13    1    1    2    0    0 -0.33002535725E+03  0.36850970393E+03 -0.36405303569E+03  0.61420742610E+03  0.10566000000E+00 0.  1.
         13    1    1    2    0    0  0.10275656311E+03  0.46587774447E+02 -0.56532656299E+03  0.57647503500E+03  0.10566000000E+00 0. -1.
          4    1    1    2  501    0  0.22726879414E+03 -0.41509747837E+03 -0.62971979433E+02  0.47741228674E+03  0.00000000000E+00 0.  1.
</event>
<event>
 5    1  0.6336319E-005  0.2682725E+03  0.7818608E-02  0.1033216E+00
         -4   -1    0    0    0  501 -0.00000000000E+00  0.00000000000E+00  0.49880501468E+03  0.49880501468E+03  0.00000000000E+00 0. -1.
         21   -1    0    0  501  502  0.00000000000E+00 -0.00000000000E+00 -0.72095614592E+03  0.72095614592E+03  0.00000000000E+00 0.  1.
        -13    1    1    2    0    0  0.84487271618E+02 -0.16510881900E+03 -0.10927675559E+03  0.21526830155E+03  0.10566000000E+00 0.  1.
         13    1    1    2    0    0 -0.66765633425E+02 -0.24805381895E+03 -0.41796073985E+03  0.49059100901E+03  0.10566000000E+00 0. -1.
         -4    1    1    2    0  502 -0.17721638193E+02  0.41316263795E+03  0.30508636420E+03  0.51390185004E+03  0.00000000000E+00 0. -1.
</event>
<event>
 5    1  0.6336319E-005  0.4944983E+03  0.7818608E-02  0.9635158E-01
          4   -1    0    0  502    0 -0.00000000000E+00  0.00000000000E+00  0.93425163129E+03  0.93425163129E+03  0.00000000000E+00 0.  1.
         21   -1    0    0  501  502  0.00000000000E+00 -0.00000000000E+00 -0.48539090663E+03  0.48539090663E+03  0.00000000000E+00 0.  1.
        -13    1    1    2    0    0  0.39159869179E+03  0.14790109897E+03  0.23095865649E+03  0.47808595740E+03  0.10566000000E+00 0.  1.
         13    1    1    2    0    0 -0.65857515675E+01  0.29388951330E+03  0.19947243295E+03  0.35525157399E+03  0.10566000000E+00 0. -1.
          4    1    1    2  501    0 -0.38501294022E+03 -0.44179061227E+03  0.18429635215E+02  0.58630500653E+03  0.00000000000E+00 0.  1.
</event>
<event>
 5    1  0.6336319E-005  0.4742102E+03  0.7818608E-02  0.9575361E-01
         21   -1    0    0  501  502  0.00000000000E+00  0.00000000000E+00  0.21168653029E+04  0.21168653029E+04  0.00000000000E+00 0. -1.
         -4   -1    0    0    0  501 -0.00000000000E+00 -0.00000000000E+00 -0.29509774541E+03  0.29509774541E+03  0.00000000000E+00 0. -1.
        -13    1    1    2    0    0 -0.33350476640E+03  0.24232139449E+03  0.21207530847E+03  0.46359576688E+03  0.10566000000E+00 0.  1.
         13    1    1    2    0    0  0.49343407022E+03  0.22734486062E+03  0.52461087366E+03  0.75523469678E+03  0.10566000000E+00 0. -1.
         -4    1    1    2    0  502 -0.15992930382E+03 -0.46966625511E+03  0.10850813754E+04  0.11931325847E+04  0.00000000000E+00 0. -1.
</event>
<event>
 5    1  0.6336319E-005  0.4505726E+03  0.7818608E-02  0.1022922E+00
         -4   -1    0    0    0  501 -0.00000000000E+00  0.00000000000E+00  0.84405919984E+03  0.84405919984E+03  0.00000000000E+00 0. -1.
         21   -1    0    0  501  502  0.00000000000E+00 -0.00000000000E+00 -0.31202298281E+03  0.31202298281E+03  0.00000000000E+00 0. -1.
        -13    1    1    2    0    0  0.51324360230E+02  0.16378836988E+02  0.23316008102E+02  0.58703523335E+02  0.10566000000E+00 0.  1.
         13    1    1    2    0    0 -0.14916319773E+03  0.42468829734E+03  0.45897637278E+03  0.64286011806E+03  0.10566000000E+00 0. -1.
         -4    1    1    2    0  502  0.97838837498E+02 -0.44106713433E+03  0.49743836150E+02  0.45451854125E+03  0.00000000000E+00 0. -1.
</event>
<event>
 5    1  0.6336319E-005  0.3898956E+03  0.7818608E-02  0.9976981E-01
          4   -1    0    0  502    0 -0.00000000000E+00  0.00000000000E+00  0.22943908078E+04  0.22943908078E+04  0.00000000000E+00 0.  1.
         21   -1    0    0  501  502  0.00000000000E+00 -0.00000000000E+00 -0.15622641672E+03  0.15622641672E+03  0.00000000000E+00 0.  1.
        -13    1    1    2    0    0  0.29272847443E+03  0.32729264634E+02  0.13584176213E+04  0.13899854709E+04  0.10566000000E+00 0.  1.
         13    1    1    2    0    0  0.73201053934E+02  0.17201099679E+03  0.55341402159E+03  0.58413463155E+03  0.10566000000E+00 0. -1.
          4    1    1    2  501    0 -0.36592952837E+03 -0.20474026143E+03  0.22633274822E+03  0.47649712202E+03  0.00000000000E+00 0.  1.
</event>
<event>
 5    1  0.6336319E-005  0.1346457E+04  0.7818608E-02  0.8503749E-01
         21   -1    0    0  501  502  0.00000000000E+00  0.00000000000E+00  0.13959062125E+04  0.13959062125E+04  0.00000000000E+00 0.  1.
         -4   -1    0    0    0  501 -0.00000000000E+00 -0.00000000000E+00 -0.22562654800E+04  0.22562654800E+04  0.00000000000E+00 0. -1.
        -13    1    1    2    0    0  0.10958298985E+04  0.80768241534E+03 -0.67958508649E+03  0.15215222481E+04  0.10566000000E+00 0.  1.
         13    1    1    2    0    0 -0.10783582646E+04 -0.78342902709E+03 -0.77089529090E+03  0.15397717844E+04  0.10566000000E+00 0. -1.
         -4    1    1    2    0  502 -0.17471633874E+02 -0.24253388248E+02  0.59012110989E+03  0.59087766007E+03  0.00000000000E+00 0. -1.
</event>
<event>
 5    1  0.6336319E-005  0.9225204E+02  0.7818608E-02  0.1178053E+00
         -4   -1    0    0    0  501 -0.00000000000E+00  0.00000000000E+00  0.20592012132E+03  0.20592012132E+03  0.00000000000E+00 0. -1.
         21   -1    0    0  501  502  0.00000000000E+00 -0.00000000000E+00 -0.44205707977E+03  0.44205707977E+03  0.00000000000E+00 0. -1.
        -13    1    1    2    0    0  0.83520488154E+02  0.27757037156E+02  0.42511067168E+02  0.97741122609E+02  0.10566000000E+00 0.  1.
         13    1    1    2    0    0 -0.85627911001E+02 -0.41361649562E+02  0.11901203583E+03  0.15233778597E+03  0.10566000000E+00 0. -1.
         -4    1    1    2    0  502  0.21074228477E+01  0.13604612406E+02 -0.39766006145E+03  0.39789829251E+03  0.00000000000E+00 0. -1.
</event>
<event>
 5    1  0.6336319E-005  0.5616100E+03  0.7818608E-02  0.9352279E-01
         21   -1    0    0  501  502  0.00000000000E+00  0.00000000000E+00  0.63515504340E+03  0.63515504340E+03  0.00000000000E+00 0. -1.
          4   -1    0    0  502    0 -0.00000000000E+00 -0.00000000000E+00 -0.10730338397E+04  0.10730338397E+04  0.00000000000E+00 0.  1.
        -13    1    1    2    0    0  0.58883188677E+03 -0.50379040703E+02 -0.60280015889E+03  0.84417360853E+03  0.10566000000E+00 0.  1.
         13    1    1    2    0    0 -0.51590730452E+03 -0.58161411786E+01 -0.14887706201E+03  0.53699028400E+03  0.10566000000E+00 0. -1.
          4    1    1    2  501    0 -0.72924582250E+02  0.56195181882E+02  0.31379842461E+03  0.32702499056E+03  0.00000000000E+00 0.  1.
</event>
<event>
 5    1  0.6336319E-005  0.6656966E+02  0.7818608E-02  0.1236026E+00
         -4   -1    0    0    0  501 -0.00000000000E+00  0.00000000000E+00  0.14655142950E+03  0.14655142950E+03  0.00000000000E+00 0. -1.
         21   -1    0    0  501  502  0.00000000000E+00 -0.00000000000E+00 -0.70070911317E+02  0.70070911317E+02  0.00000000000E+00 0. -1.
        -13    1    1    2    0    0 -0.54042234745E+02 -0.18294325698E+02 -0.11126493082E+01  0.57065704600E+02  0.10566000000E+00 0.  1.
         13    1    1    2    0    0  0.71767238041E+02 -0.15947621006E+02  0.92552956349E+02  0.11819866313E+03  0.10566000000E+00 0. -1.
         -4    1    1    2    0  502 -0.17725003295E+02  0.34241946704E+02 -0.14959788854E+02  0.41357973094E+02  0.00000000000E+00 0. -1.
</event>
<event>
 5    1  0.6336319E-005  0.1248418E+03  0.7818608E-02  0.1128961E+00
         21   -1    0    0  501  502  0.00000000000E+00  0.00000000000E+00  0.86565189376E+03  0.86565189376E+03  0.00000000000E+00 0.  1.
          4   -1    0    0  502    0 -0.00000000000E+00 -0.00000000000E+00 -0.98085865939E+03  0.98085865939E+03  0.00000000000E+00 0.  1.
        -13    1    1    2    0    0 -0.11566240530E+03  0.46552915301E+02 -0.28143525183E+03  0.30781614327E+03  0.10566000000E+00 0.  1.
         13    1    1    2    0    0  0.10848140202E+03 -0.62682459790E+02 -0.68042150260E+03  0.69186034553E+03  0.10566000000E+00 0. -1.
          4    1    1    2  501    0  0.71810032786E+01  0.16129544489E+02  0.84664998880E+03  0.84683406435E+03  0.00000000000E+00 0.  1.
</event>
<event>
 5    1  0.6336319E-005  0.3836870E+03  0.7818608E-02  0.1015100E+00
         21   -1    0    0  501  502  0.00000000000E+00  0.00000000000E+00  0.10848478643E+03  0.10848478643E+03  0.00000000000E+00 0. -1.
         -4   -1    0    0    0  501 -0.00000000000E+00 -0.00000000000E+00 -0.30331491579E+04  0.30331491579E+04  0.00000000000E+00 0. -1.
        -13    1    1    2    0    0  0.59494400847E+01  0.11153525410E+03 -0.64641499845E+03  0.65599380343E+03  0.10566000000E+00 0.  1.
         13    1    1    2    0    0  0.29488742341E+03 -0.26480119007E+03 -0.35216344682E+03  0.53018616277E+03  0.10566000000E+00 0. -1.
         -4    1    1    2    0  502 -0.30083686350E+03  0.15326593596E+03 -0.19260859262E+04  0.19554539781E+04  0.00000000000E+00 0. -1.
</event>
<event>
 5    1  0.6336319E-005  0.3723664E+03  0.7818608E-02  0.9812431E-01
         -4   -1    0    0    0  501 -0.00000000000E+00  0.00000000000E+00  0.26683332041E+04  0.26683332041E+04  0.00000000000E+00 0. -1.
         21   -1    0    0  501  502  0.00000000000E+00 -0.00000000000E+00 -0.29902830837E+03  0.29902830837E+03  0.00000000000E+00 0. -1.
        -13    1    1    2    0    0  0.28654935505E+03 -0.23178910392E+03  0.16504227321E+04  0.16910741933E+04  0.10566000000E+00 0.  1.
         13    1    1    2    0    0 -0.47620911474E+03 -0.31032248280E+02  0.80954769565E+03  0.93973698665E+03  0.10566000000E+00 0. -1.
         -4    1    1    2    0  502  0.18965975968E+03  0.26282135220E+03 -0.90665532001E+02  0.33655033250E+03  0.00000000000E+00 0. -1.
</event>
<event>
 5    1  0.6336319E-005  0.4863143E+03  0.7818608E-02  0.9807111E-01
          4   -1    0    0  502    0 -0.00000000000E+00  0.00000000000E+00  0.18873200671E+04  0.18873200671E+04  0.00000000000E+00 0.  1.
         21   -1    0    0  501  502  0.00000000000E+00 -0.00000000000E+00 -0.21210514423E+03  0.21210514423E+03  0.00000000000E+00 0.  1.
        -13    1    1    2    0    0 -0.32248056017E+03 -0.36054113265E+03  0.58463218838E+03  0.75880065028E+03  0.10566000000E+00 0.  1.
         13    1    1    2    0    0 -0.12388194086E+03  0.11673458224E+03  0.42179623270E+02  0.17536484752E+03  0.10566000000E+00 0. -1.
          4    1    1    2  501    0  0.44636250103E+03  0.24380655041E+03  0.10484031113E+04  0.11652597136E+04  0.00000000000E+00 0.  1.
</event>
<event>
 5    1  0.6336319E-005  0.3728260E+03  0.7818608E-02  0.9923564E-01
         -4   -1    0    0    0  501 -0.00000000000E+00  0.00000000000E+00  0.82444170947E+03  0.82444170947E+03  0.00000000000E+00 0. -1.
         21   -1    0    0  501  502  0.00000000000E+00 -0.00000000000E+00 -0.76916109960E+03  0.76916109960E+03  0.00000000000E+00 0.  1.
        -13    1    1    2    0    0 -0.10563123074E+03 -0.23228625864E+03 -0.38423229101E+03  0.46124757720E+03  0.10566000000E+00 0.  1.
         13    1    1    2    0    0  0.41145177688E+03  0.83405737981E+01  0.59433411655E+03  0.72290745129E+03  0.10566000000E+00 0. -1.
         -4    1    1    2    0  502 -0.30582054614E+03  0.22394568484E+03 -0.15482121567E+03  0.40944778058E+03  0.00000000000E+00 0. -1.
</event>
<event>
 5    1  0.6336319E-005  0.4918766E+03  0.7818608E-02  0.9791237E-01
         21   -1    0    0  501  502  0.00000000000E+00  0.00000000000E+00  0.15981650595E+03  0.15981650595E+03  0.00000000000E+00 0. -1.
         -4   -1    0    0    0  501 -0.00000000000E+00 -0.00000000000E+00 -0.22073177811E+04  0.22073177811E+04  0.00000000000E+00 0. -1.
        -13    1    1    2    0    0 -0.11038518392E+03  0.13407590683E+03 -0.40721899260E+03  0.44270594837E+03  0.10566000000E+00 0.  1.
         13    1    1    2    0    0  0.14856368587E+03  0.42280137660E+03 -0.71692357353E+03  0.84546531228E+03  0.10566000000E+00 0. -1.
         -4    1    1    2    0  502 -0.38178501949E+02 -0.55687728343E+03 -0.92335870898E+03  0.10789630264E+04  0.00000000000E+00 0. -1.
</event>
<event>
 5    1  0.6336319E-005  0.4618460E+03  0.7818608E-02  0.9565763E-01
          4   -1    0    0  502    0 -0.00000000000E+00  0.00000000000E+00  0.18331708377E+04  0.18331708377E+04  0.00000000000E+00 0.  1.
         21   -1    0    0  501  502  0.00000000000E+00 -0.00000000000E+00 -0.43105595850E+03  0.43105595850E+03  0.00000000000E+00 0.  1.
        -13    1    1    2    0    0  0.34410165399E+03  0.27560261656E+03  0.12199107127E+04  0.12971294881E+04  0.10566000000E+00 0.  1.
         13    1    1    2    0    0 -0.51115099407E+03 -0.21507559685E+03  0.40165733731E+03  0.68473460471E+03  0.10566000000E+00 0. -1.
          4    1    1    2  501    0  0.16704934008E+03 -0.60527019703E+02 -0.21945317082E+03  0.28236270349E+03  0.00000000000E+00 0.  1.
</event>
<event>
 5    1  0.6336319E-005  0.1863622E+03  0.7818608E-02  0.1069910E+00
         -4   -1    0    0    0  501 -0.00000000000E+00  0.00000000000E+00  0.30309315356E+03  0.30309315356E+03  0.00000000000E+00 0. -1.
         21   -1    0    0  501  502  0.00000000000E+00 -0.00000000000E+00 -0.65170190807E+03  0.65170190807E+03  0.00000000000E+00 0. -1.
        -13    1    1    2    0    0  0.18111365227E+03 -0.31374805044E+02 -0.75013463080E+02  0.19852849729E+03  0.10566000000E+00 0.  1.
         13    1    1    2    0    0 -0.18617411307E+03  0.18932027017E+02  0.20495073977E+03  0.27753205026E+03  0.10566000000E+00 0. -1.
         -4    1    1    2    0  502  0.50604608036E+01  0.12442778027E+02 -0.47854603120E+03  0.47873451407E+03  0.00000000000E+00 0. -1.
</event>
<event>
 5    1  0.6336319E-005  0.5499839E+03  0.7818608E-02  0.9654339E-01
          4   -1    0    0  502    0 -0.00000000000E+00  0.00000000000E+00  0.22605657310E+04  0.22605657310E+04  0.00000000000E+00 0.  1.
         21   -1    0    0  501  502  0.00000000000E+00 -0.00000000000E+00 -0.46005697373E+03  0.46005697373E+03  0.00000000000E+00 0.  1.
        -13    1    1    2    0    0 -0.43798889484E+03 -0.53073759415E+03  0.17772831074E+04  0.19058467727E+04  0.10566000000E+00 0.  1.
         13    1    1    2    0    0  0.18672200249E+03  0.70826325396E+02 -0.16384485994E+03  0.25831497029E+03  0.10566000000E+00 0. -1.
          4    1    1    2  501    0  0.25126689235E+03  0.45991126876E+03  0.18707050979E+03  0.55646096175E+03  0.00000000000E+00 0.  1.
</event>
<event>
 5    1  0.6336319E-005  0.2895244E+03  0.7818608E-02  0.1094136E+00
         21   -1    0    0  501  502  0.00000000000E+00  0.00000000000E+00  0.25747531046E+03  0.25747531046E+03  0.00000000000E+00 0.  1.
          4   -1    0    0  502    0 -0.00000000000E+00 -0.00000000000E+00 -0.93295727027E+03  0.93295727027E+03  0.00000000000E+00 0.  1.
        -13    1    1    2    0    0 -0.14863880986E+03  0.26912026652E+03 -0.76567310785E+03  0.82509062102E+03  0.10566000000E+00 0.  1.
         13    1    1    2    0    0  0.22889824018E+02 -0.10588348175E+02 -0.41940734327E+02  0.48939692690E+02  0.10566000000E+00 0. -1.
          4    1    1    2  501    0  0.12574898584E+03 -0.25853191834E+03  0.13213188236E+03  0.31640226702E+03  0.00000000000E+00 0.  1.
</event>
<event>
 5    1  0.6336319E-005  0.8823470E+02  0.7818608E-02  0.1185641E+00
          4   -1    0    0  502    0 -0.00000000000E+00  0.00000000000E+00  0.15623564693E+03  0.15623564693E+03  0.00000000000E+00 0.  1.
         21   -1    0    0  501  502  0.00000000000E+00 -0.00000000000E+00 -0.73711875182E+02  0.73711875182E+02  0.00000000000E+00 0. -1.
        -13    1    1    2    0    0 -0.81025300830E+02 -0.39495776073E+02  0.18571357703E+02  0.92032180204E+02  0.10566000000E+00 0.  1.
         13    1    1    2    0    0  0.72964993396E+02  0.48286819312E+02  0.79568738846E+02  0.11826539031E+03  0.10566000000E+00 0. -1.
          4    1    1    2  501    0  0.80603074337E+01 -0.87910432392E+01 -0.15616324803E+02  0.19649951591E+02  0.00000000000E+00 0.  1.
</event>
<event>
 5    1  0.6336319E-005  0.2610982E+03  0.7818608E-02  0.1033590E+00
         21   -1    0    0  501  502  0.00000000000E+00  0.00000000000E+00  0.16854913568E+03  0.16854913568E+03  0.00000000000E+00 0.  1.
          4   -1    0    0  502    0 -0.00000000000E+00 -0.00000000000E+00 -0.22851056827E+04  0.22851056827E+04  0.00000000000E+00 0.  1.
        -13    1    1    2    0    0 -0.34621128547E+03 -0.13905489613E+03 -0.15965136915E+04  0.16395287422E+04  0.10566000000E+00 0.  1.
         13    1    1    2    0    0  0.18876374032E+03 -0.62645122327E+02 -0.52161419782E+03  0.55824505689E+03  0.10566000000E+00 0. -1.
          4    1    1    2  501    0  0.15744754515E+03  0.20170001846E+03  0.15713422497E+01  0.25588101930E+03  0.00000000000E+00 0.  1.
</event>
<event>
 5    1  0.6336319E-005  0.4893567E+03  0.7818608E-02  0.9816837E-01
         21   -1    0    0  501  502  0.00000000000E+00  0.00000000000E+00  0.70109349841E+03  0.70109349841E+03  0.00000000000E+00 0.  1.
          4   -1    0    0  502    0 -0.00000000000E+00 -0.00000000000E+00 -0.11713563532E+04  0.11713563532E+04  0.00000000000E+00 0.  1.
        -13    1    1    2    0    0  0.59059589415E+02  0.43351726125E+03  0.71604995912E+02  0.44334246075E+03  0.10566000000E+00 0.  1.
         13    1    1    2    0    0  0.14544772324E+03  0.70467142704E+02 -0.80770839435E+03  0.82371932105E+03  0.10566000000E+00 0. -1.
          4    1    1    2  501    0 -0.20450731265E+03 -0.50398440395E+03  0.26584054368E+03  0.60538806977E+03  0.00000000000E+00 0.  1.
</event>
<event>
 5    1  0.6336319E-005  0.4790308E+03  0.7818608E-02  0.9915218E-01
         -4   -1    0    0    0  501 -0.00000000000E+00  0.00000000000E+00  0.15214370310E+04  0.15214370310E+04  0.00000000000E+00 0. -1.
         21   -1    0    0  501  502  0.00000000000E+00 -0.00000000000E+00 -0.30290078098E+03  0.30290078098E+03  0.00000000000E+00 0. -1.
        -13    1    1    2    0    0  0.12098876225E+03 -0.25725355043E+02  0.66705875564E+03  0.67843015051E+03  0.10566000000E+00 0.  1.
         13    1    1    2    0    0 -0.40360283690E+03 -0.30692179439E+03  0.97887658903E+02  0.51640898787E+03  0.10566000000E+00 0. -1.
         -4    1    1    2    0  502  0.28261407465E+03  0.33264714944E+03  0.45358983550E+03  0.62949867362E+03  0.00000000000E+00 0. -1.
</event>
<event>
 5    1  0.6336319E-005  0.5495047E+03  0.7818608E-02  0.9375603E-01
          4   -1    0    0  502    0 -0.00000000000E+00  0.00000000000E+00  0.98213388375E+03  0.98213388375E+03  0.00000000000E+00 0.  1.
         21   -1    0    0  501  502  0.00000000000E+00 -0.00000000000E+00 -0.78226968425E+03  0.78226968425E+03  0.00000000000E+00 0.  1.
        -13    1    1    2    0    0  0.27017572123E+03 -0.71484423734E+03 -0.11958617187E+03  0.77349729648E+03  0.10566000000E+00 0.  1.
         13    1    1    2    0    0 -0.34884898444E+03  0.36002326778E+03  0.37122974848E+03  0.62379796778E+03  0.10566000000E+00 0. -1.
          4    1    1    2  501    0  0.78673263201E+02  0.35482096956E+03 -0.51779377113E+02  0.36710830374E+03  0.00000000000E+00 0.  1.
</event>
<event>
 5    1  0.6336319E-005  0.3636357E+02  0.7818608E-02  0.1360058E+00
          4   -1    0    0  502    0 -0.00000000000E+00  0.00000000000E+00  0.10313990044E+02  0.10313990044E+02  0.00000000000E+00 0.  1.
         21   -1    0    0  501  502  0.00000000000E+00 -0.00000000000E+00 -0.28462798603E+03  0.28462798603E+03  0.00000000000E+00 0. -1.
        -13    1    1    2    0    0  0.16844579130E+01 -0.35869413874E+02 -0.35395095726E+02  0.50420989832E+02  0.10566000000E+00 0.  1.
         13    1    1    2    0    0 -0.12984186439E+02  0.37139055731E+02 -0.15890219729E+03  0.16370039104E+03  0.10566000000E+00 0. -1.
          4    1    1    2  501    0  0.11299728526E+02 -0.12696418567E+01 -0.80016702969E+02  0.80820595205E+02  0.00000000000E+00 0.  1.
</event>
<event>
 5    1  0.6336319E-005  0.5573805E+03  0.7818608E-02  0.9634995E-01
          4   -1    0    0  502    0 -0.00000000000E+00  0.00000000000E+00  0.17256484742E+04  0.17256484742E+04  0.00000000000E+00 0.  1.
         21   -1    0    0  501  502  0.00000000000E+00 -0.00000000000E+00 -0.52783817430E+03  0.52783817430E+03  0.00000000000E+00 0. -1.
        -13    1    1    2    0    0 -0.17493393453E+03 -0.58548266193E+02  0.78519406870E+03  0.80657269829E+03  0.10566000000E+00 0.  1.
         13    1    1    2    0    0  0.60827459594E+03 -0.29200687833E+03  0.55269279182E+03  0.87220142992E+03  0.10566000000E+00 0. -1.
          4    1    1    2  501    0 -0.43334066141E+03  0.35055514453E+03 -0.14007656060E+03  0.57471252032E+03  0.00000000000E+00 0.  1.
</event>
<event>
 5    1  0.6336319E-005  0.4280234E+03  0.7818608E-02  0.9898287E-01
         21   -1    0    0  501  502  0.00000000000E+00  0.00000000000E+00  0.19260760568E+03  0.19260760568E+03  0.00000000000E+00 0. -1.
         -4   -1    0    0    0  501 -0.00000000000E+00 -0.00000000000E+00 -0.23694312718E+04  0.23694312718E+04  0.00000000000E+00 0. -1.
        -13    1    1    2    0    0  0.16603637089E+03 -0.78092556737E+02 -0.95331539333E+03  0.97081242998E+03  0.10566000000E+00 0.  1.
         13    1    1    2    0    0 -0.36071627143E+03 -0.29866752031E+03 -0.10167607851E+04  0.11194288818E+04  0.10566000000E+00 0. -1.
         -4    1    1    2    0  502  0.19467990054E+03  0.37676007705E+03 -0.20674748771E+03  0.47179756570E+03  0.00000000000E+00 0. -1.
</event>
<event>
 5    1  0.6336319E-005  0.1256434E+03  0.7818608E-02  0.1127966E+00
         21   -1    0    0  501  502  0.00000000000E+00  0.00000000000E+00  0.46515099631E+03  0.46515099631E+03  0.00000000000E+00 0. -1.
          4   -1    0    0  502    0 -0.00000000000E+00 -0.00000000000E+00 -0.13859045083E+03  0.13859045083E+03  0.00000000000E+00 0.  1.
        -13    1    1    2    0    0 -0.36131222227E+02  0.12120627787E+03 -0.97920178519E+02  0.15995249151E+03  0.10566000000E+00 0.  1.
         13    1    1    2    0    0  0.28805927290E+02 -0.11101489149E+03  0.40201337445E+03  0.41805364725E+03  0.10566000000E+00 0. -1.
          4    1    1    2  501    0  0.73252949370E+01 -0.10191386379E+02  0.22467349552E+02  0.25735308394E+02  0.00000000000E+00 0.  1.
</event>
<event>
 5    1  0.6336319E-005  0.2017290E+03  0.7818608E-02  0.1083514E+00
         21   -1    0    0  501  502  0.00000000000E+00  0.00000000000E+00  0.15077255373E+04  0.15077255373E+04  0.00000000000E+00 0. -1.
         -4   -1    0    0    0  501 -0.00000000000E+00 -0.00000000000E+00 -0.57504415290E+03  0.57504415290E+03  0.00000000000E+00 0. -1.
        -13    1    1    2    0    0 -0.21745876199E+03 -0.31614411957E+03 -0.27007814650E+03  0.46923089613E+03  0.10566000000E+00 0.  1.
         13    1    1    2    0    0  0.23609984827E+02  0.10519772155E+03 -0.17541671394E+03  0.20590052622E+03  0.10566000000E+00 0. -1.
         -4    1    1    2    0  502  0.19384877716E+03  0.21094639802E+03  0.13781762449E+04  0.14076382679E+04  0.00000000000E+00 0. -1.
</event>
<event>
 5    1  0.6336319E-005  0.5634782E+03  0.7818608E-02  0.9348734E-01
         21   -1    0    0  501  502  0.00000000000E+00  0.00000000000E+00  0.53194130241E+03  0.53194130241E+03  0.00000000000E+00 0.  1.
          4   -1    0    0  502    0 -0.00000000000E+00 -0.00000000000E+00 -0.19987530164E+04  0.19987530164E+04  0.00000000000E+00 0.  1.
        -13    1    1    2    0    0  0.55749087031E+03  0.26961263666E+03 -0.44939977400E+03  0.76514522305E+03  0.10566000000E+00 0.  1.
         13    1    1    2    0    0 -0.26392718114E+03 -0.51293162414E+03 -0.12084546138E+04  0.13390739235E+04  0.10566000000E+00 0. -1.
          4    1    1    2  501    0 -0.29356368917E+03  0.24331898748E+03  0.19104267382E+03  0.42647517218E+03  0.00000000000E+00 0.  1.
</event>
<event>
 5    1  0.6336319E-005  0.4533195E+03  0.7818608E-02  0.9860469E-01
         21   -1    0    0  501  502  0.00000000000E+00  0.00000000000E+00  0.27049838036E+03  0.27049838036E+03  0.00000000000E+00 0. -1.
         -4   -1    0    0    0  501 -0.00000000000E+00 -0.00000000000E+00 -0.17114167299E+04  0.17114167299E+04  0.00000000000E+00 0. -1.
        -13    1    1    2    0    0 -0.17496166624E+03 -0.12020966358E+02 -0.71035495592E+03  0.73168317108E+03  0.10566000000E+00 0.  1.
         13    1    1    2    0    0  0.57332940038E+03 -0.53463876462E+02 -0.58561458449E+03  0.82128523678E+03  0.10566000000E+00 0. -1.
         -4    1    1    2    0  502 -0.39836773413E+03  0.65484842820E+02 -0.14494880914E+03  0.42894670241E+03  0.00000000000E+00 0. -1.
</event>
<event>
 5    1  0.6336319E-005  0.3336406E+02  0.7818608E-02  0.1379770E+00
         21   -1    0    0  501  502  0.00000000000E+00  0.00000000000E+00  0.14366691254E+03  0.14366691254E+03  0.00000000000E+00 0. -1.
         -4   -1    0    0    0  501 -0.00000000000E+00 -0.00000000000E+00 -0.70170262271E+02  0.70170262271E+02  0.00000000000E+00 0. -1.
        -13    1    1    2    0    0 -0.47787192119E+02  0.35620307544E+01  0.40281641592E+02  0.62601322726E+02  0.10566000000E+00 0.  1.
         13    1    1    2    0    0  0.31569480244E+02 -0.59927032355E+01 -0.53812662893E+02  0.62676617862E+02  0.10566000000E+00 0. -1.
         -4    1    1    2    0  502  0.16217711875E+02  0.24306724811E+01  0.87027671573E+02  0.88559234225E+02  0.00000000000E+00 0. -1.
</event>
<event>
 5    1  0.6336319E-005  0.4061419E+03  0.7818608E-02  0.9747815E-01
         -4   -1    0    0    0  501 -0.00000000000E+00  0.00000000000E+00  0.18564932363E+04  0.18564932363E+04  0.00000000000E+00 0. -1.
         21   -1    0    0  501  502  0.00000000000E+00 -0.00000000000E+00 -0.30248592346E+03  0.30248592346E+03  0.00000000000E+00 0. -1.
        -13    1    1    2    0    0 -0.46043523851E+02  0.35515237561E+03  0.49662232497E+03  0.61228013263E+03  0.10566000000E+00 0.  1.
         13    1    1    2    0    0  0.40945984041E+03 -0.45749684037E+03  0.98739146247E+03  0.11627134777E+04  0.10566000000E+00 0. -1.
         -4    1    1    2    0  502 -0.36341631656E+03  0.10234446477E+03  0.69993525438E+02  0.38398554949E+03  0.00000000000E+00 0. -1.
</event>
<event>
 5    1  0.6336319E-005  0.1682494E+03  0.7818608E-02  0.1084387E+00
         21   -1    0    0  501  502  0.00000000000E+00  0.00000000000E+00  0.17553818389E+03  0.17553818389E+03  0.00000000000E+00 0.  1.
         -4   -1    0    0    0  501 -0.00000000000E+00 -0.00000000000E+00 -0.52040339986E+03  0.52040339986E+03  0.00000000000E+00 0. -1.
        -13    1    1    2    0    0 -0.84158755589E+02  0.15045867839E+03  0.10405643143E+03  0.20136599050E+03  0.10566000000E+00 0.  1.
         13    1    1    2    0    0  0.67755678464E+02 -0.15362735565E+03 -0.44731805750E+03  0.47779247807E+03  0.10566000000E+00 0. -1.
         -4    1    1    2    0  502  0.16403077125E+02  0.31686772573E+01 -0.16035899039E+01  0.16783115184E+02  0.00000000000E+00 0. -1.
</event>
<event>
 5    1  0.6336319E-005  0.5084956E+03  0.7818608E-02  0.9459543E-01
         21   -1    0    0  501  502  0.00000000000E+00  0.00000000000E+00  0.50535616854E+03  0.50535616854E+03  0.00000000000E+00 0.  1.
         -4   -1    0    0    0  501 -0.00000000000E+00 -0.00000000000E+00 -0.72558460700E+03  0.72558460700E+03  0.00000000000E+00 0. -1.
        -13    1    1    2    0    0 -0.17150578933E+03  0.47191022419E+03 -0.28774805283E+03  0.57871620726E+03  0.10566000000E+00 0.  1.
         13    1    1    2    0    0  0.18847815028E+03 -0.48325463084E+03 -0.60828091721E+02  0.52226345772E+03  0.10566000000E+00 0. -1.
         -4    1    1    2    0  502 -0.16972360952E+02  0.11344406649E+02  0.12834770610E+03  0.12996111057E+03  0.00000000000E+00 0. -1.
</event>
<event>
 5    1  0.6336319E-005  0.1800805E+03  0.7818608E-02  0.1074722E+00
          4   -1    0    0  502    0 -0.00000000000E+00  0.00000000000E+00  0.30526925092E+03  0.30526925092E+03  0.00000000000E+00 0.  1.
         21   -1    0    0  501  502  0.00000000000E+00 -0.00000000000E+00 -0.33619188674E+03  0.33619188674E+03  0.00000000000E+00 0. -1.
        -13    1    1    2    0    0  0.50319832168E+02 -0.16961253825E+03  0.20701490173E+03  0.27231540416E+03  0.10566000000E+00 0.  1.
         13    1    1    2    0    0 -0.54845134599E+01  0.21171108858E+03 -0.21933341853E+03  0.30489149638E+03  0.10566000000E+00 0. -1.
          4    1    1    2  501    0 -0.44835318709E+02 -0.42098550332E+02 -0.18604119016E+02  0.64254237122E+02  0.00000000000E+00 0.  1.
</event>
<event>
 5    1  0.6336319E-005  0.4407360E+03  0.7818608E-02  0.9618281E-01
         -4   -1    0    0    0  501 -0.00000000000E+00  0.00000000000E+00  0.21315080822E+04  0.21315080822E+04  0.00000000000E+00 0. -1.
         21   -1    0    0  501  502  0.00000000000E+00 -0.00000000000E+00 -0.56536705777E+03  0.56536705777E+03  0.00000000000E+00 0. -1.
        -13    1    1    2    0    0  0.46759112589E+03  0.55399509717E+02  0.15394810192E+04  0.16098796186E+04  0.10566000000E+00 0.  1.
         13    1    1    2    0    0 -0.36437608696E+03  0.24500001618E+03  0.40198390313E+03  0.59530329263E+03  0.10566000000E+00 0. -1.
         -4    1    1    2    0  502 -0.10321503893E+03 -0.30039952589E+03 -0.37532389794E+03  0.49169222872E+03  0.00000000000E+00 0. -1.
</event>
<event>
 5    1  0.6336319E-005  0.8755753E+03  0.7818608E-02  0.8901202E-01
         -4   -1    0    0    0  501 -0.00000000000E+00  0.00000000000E+00  0.26261804332E+04  0.26261804332E+04  0.00000000000E+00 0. -1.
         21   -1    0    0  501  502  0.00000000000E+00 -0.00000000000E+00 -0.53758054980E+03  0.53758054980E+03  0.00000000000E+00 0.  1.
        -13    1    1    2    0    0 -0.82200212878E+03 -0.30155531836E+03  0.14193484381E+04  0.16676849552E+04  0.10566000000E+00 0.  1.
         13    1    1    2    0    0  0.93406262241E+03 -0.81426993843E+02  0.43793651245E+03  0.10348389913E+04  0.10566000000E+00 0. -1.
         -4    1    1    2    0  502 -0.11206049363E+03  0.38298231220E+03  0.23131493286E+03  0.46123703652E+03  0.00000000000E+00 0. -1.
</event>
<event>
 5    1  0.6336319E-005  0.1283209E+03  0.7818608E-02  0.1124703E+00
         21   -1    0    0  501  502  0.00000000000E+00  0.00000000000E+00  0.65682779357E+02  0.65682779357E+02  0.00000000000E+00 0.  1.
          4   -1    0    0  502    0 -0.00000000000E+00 -0.00000000000E+00 -0.70936949855E+03  0.70936949855E+03  0.00000000000E+00 0.  1.
        -13    1    1    2    0    0 -0.30278404869E+02  0.12869158437E+03 -0.46499556210E+03  0.48342444045E+03  0.10566000000E+00 0.  1.
         13    1    1    2    0    0  0.29837629617E+02 -0.11796113573E+03 -0.21866368149E+03  0.25023774785E+03  0.10566000000E+00 0. -1.
          4    1    1    2  501    0  0.44077525232E+00 -0.10730448638E+02  0.39972524394E+02  0.41390089602E+02  0.00000000000E+00 0.  1.
</event>
<event>
 5    1  0.6336319E-005  0.3172767E+02  0.7818608E-02  0.1391550E+00
          4   -1    0    0  502    0 -0.00000000000E+00  0.00000000000E+00  0.95731723208E+01  0.95731723208E+01  0.00000000000E+00 0.  1.
         21   -1    0    0  501  502  0.00000000000E+00 -0.00000000000E+00 -0.27300321866E+03  0.27300321866E+03  0.00000000000E+00 0. -1.
        -13    1    1    2    0    0 -0.23542472435E+02  0.40997858219E+02 -0.17791906792E+03  0.18409312393E+03  0.10566000000E+00 0.  1.
         13    1    1    2    0    0  0.17550688093E+02 -0.20442743692E+02 -0.54537842406E+02  0.60830254319E+02  0.10566000000E+00 0. -1.
          4    1    1    2  501    0  0.59917843429E+01 -0.20555114527E+02 -0.30973136014E+02  0.37653012726E+02  0.00000000000E+00 0.  1.
</event>
<event>
 5    1  0.6336319E-005  0.1892302E+03  0.7818608E-02  0.1101698E+00
         -4   -1    0    0    0  501 -0.00000000000E+00  0.00000000000E+00  0.10498677637E+03  0.10498677637E+03  0.00000000000E+00 0. -1.
         21   -1    0    0  501  502  0.00000000000E+00 -0.00000000000E+00 -0.61037221262E+03  0.61037221262E+03  0.00000000000E+00 0. -1.
        -13    1    1    2    0    0 -0.19613679672E+02  0.70872971873E+02 -0.17315635840E+03  0.18812445400E+03  0.10566000000E+00 0.  1.
         13    1    1    2    0    0 -0.40189439319E+02 -0.22910657780E+03 -0.14134150862E+03  0.27218091088E+03  0.10566000000E+00 0. -1.
         -4    1    1    2    0  502  0.59803118992E+02  0.15823360592E+03 -0.19088756923E+03  0.25505362411E+03  0.00000000000E+00 0. -1.
</event>
<event>
 5    1  0.6336319E-005  0.6507959E+03  0.7818608E-02  0.9197585E-01
         21   -1    0    0  501  502  0.00000000000E+00  0.00000000000E+00  0.79819226566E+03  0.79819226566E+03  0.00000000000E+00 0. -1.
          4   -1    0    0  502    0 -0.00000000000E+00 -0.00000000000E+00 -0.10592651629E+04  0.10592651629E+04  0.00000000000E+00 0.  1.
        -13    1    1    2    0    0 -0.59854177538E+03  0.46013849402E+03  0.14704364798E+03  0.76915637951E+03  0.10566000000E+00 0.  1.
         13    1    1    2    0    0  0.62666969416E+03 -0.84821604722E+02 -0.24747963407E+03  0.67908452394E+03  0.10566000000E+00 0. -1.
          4    1    1    2  501    0 -0.28127918775E+02 -0.37531688930E+03 -0.16063691116E+03  0.40921652512E+03  0.00000000000E+00 0.  1.
</event>
<event>
 5    1  0.6336319E-005  0.4843758E+03  0.7818608E-02  0.9569971E-01
         21   -1    0    0  501  502  0.00000000000E+00  0.00000000000E+00  0.16027789923E+04  0.16027789923E+04  0.00000000000E+00 0. -1.
         -4   -1    0    0    0  501 -0.00000000000E+00 -0.00000000000E+00 -0.46065541003E+03  0.46065541003E+03  0.00000000000E+00 0. -1.
        -13    1    1    2    0    0  0.25764101985E+03  0.29856843577E+03 -0.10975690434E+03  0.40935143234E+03  0.10566000000E+00 0.  1.
         13    1    1    2    0    0  0.38632467575E+03 -0.17258244812E+03  0.53793024073E+03  0.68439784595E+03  0.10566000000E+00 0. -1.
         -4    1    1    2    0  502 -0.64396569560E+03 -0.12598598765E+03  0.71395024588E+03  0.96968512404E+03  0.00000000000E+00 0. -1.
</event>
<event>
 5    1  0.6336319E-005  0.1623613E+03  0.7818608E-02  0.1089522E+00
         -4   -1    0    0    0  501 -0.00000000000E+00  0.00000000000E+00  0.43204016345E+02  0.43204016345E+02  0.00000000000E+00 0. -1.
         21   -1    0    0  501  502  0.00000000000E+00 -0.00000000000E+00 -0.11040368659E+04  0.11040368659E+04  0.00000000000E+00 0.  1.
        -13    1    1    2    0    0  0.59642695536E+02 -0.15475152627E+03 -0.31486168430E+03  0.35586960732E+03  0.10566000000E+00 0.  1.
         13    1    1    2    0    0 -0.65107903145E+02  0.14565275525E+03 -0.25840001998E+03  0.30368461544E+03  0.10566000000E+00 0. -1.
         -4    1    1    2    0  502  0.54652076086E+01  0.90987710183E+01 -0.48757114527E+03  0.48768665947E+03  0.00000000000E+00 0. -1.
</event>
<event>
 5    1  0.6336319E-005  0.1569833E+03  0.7818608E-02  0.1094422E+00
         -4   -1    0    0    0  501 -0.00000000000E+00  0.00000000000E+00  0.38315442547E+03  0.38315442547E+03  0.00000000000E+00 0. -1.
         21   -1    0    0  501  502  0.00000000000E+00 -0.00000000000E+00 -0.16844843588E+03  0.16844843588E+03  0.00000000000E+00 0.  1.
        -13    1    1    2    0    0  0.10083372373E+03  0.95170184627E+02  0.25347816629E+02  0.14095150533E+03  0.10566000000E+00 0.  1.
         13    1    1    2    0    0 -0.13120973497E+03 -0.99116361165E+02  0.27460129327E+03  0.32007175607E+03  0.10566000000E+00 0. -1.
         -4    1    1    2    0  502  0.30376011243E+02  0.39461765382E+01 -0.85243120304E+02  0.90579599952E+02  0.00000000000E+00 0. -1.
</event>
<event>
 5    1  0.6336319E-005  0.2610254E+03  0.7818608E-02  0.1060908E+00
         21   -1    0    0  501  502  0.00000000000E+00  0.00000000000E+00  0.56770632594E+03  0.56770632594E+03  0.00000000000E+00 0.  1.
          4   -1    0    0  502    0 -0.00000000000E+00 -0.00000000000E+00 -0.80530763460E+03  0.80530763460E+03  0.00000000000E+00 0.  1.
        -13    1    1    2    0    0  0.26287539301E+03  0.21220185756E+03 -0.35316260391E+03  0.48872992190E+03  0.10566000000E+00 0.  1.
         13    1    1    2    0    0 -0.81728493907E+02 -0.32523744599E+02 -0.34594076436E+03  0.35694868579E+03  0.10566000000E+00 0. -1.
          4    1    1    2  501    0 -0.18114689910E+03 -0.17967811296E+03  0.46150205961E+03  0.52733535284E+03  0.00000000000E+00 0.  1.
</event>
<event>
 5    1  0.6336319E-005  0.1063745E+03  0.7818608E-02  0.1154419E+00
         21   -1    0    0  501  502  0.00000000000E+00  0.00000000000E+00  0.10865430682E+03  0.10865430682E+03  0.00000000000E+00 0.  1.
          4   -1    0    0  502    0 -0.00000000000E+00 -0.00000000000E+00 -0.20163136191E+03  0.20163136191E+03  0.00000000000E+00 0.  1.
        -13    1    1    2    0    0  0.15603855898E+02 -0.11665037424E+03 -0.64702429076E+02  0.13430266424E+03  0.10566000000E+00 0.  1.
         13    1    1    2    0    0 -0.23553936907E+02  0.95837583585E+02 -0.75174752021E+02  0.12406000515E+03  0.10566000000E+00 0. -1.
          4    1    1    2  501    0  0.79500810091E+01  0.20812790651E+02  0.46900126007E+02  0.51922999357E+02  0.00000000000E+00 0.  1.
</event>
<event>
 5    1  0.6336319E-005  0.4520900E+03  0.7818608E-02  0.9603227E-01
         -4   -1    0    0    0  501 -0.00000000000E+00  0.00000000000E+00  0.24337006600E+04  0.24337006600E+04  0.00000000000E+00 0. -1.
         21   -1    0    0  501  502  0.00000000000E+00 -0.00000000000E+00 -0.30372866688E+03  0.30372866688E+03  0.00000000000E+00 0. -1.
        -13    1    1    2    0    0 -0.32535975713E+03 -0.42255111708E+03  0.10371152809E+04  0.11661974684E+04  0.10566000000E+00 0.  1.
         13    1    1    2    0    0 -0.12668926846E+03  0.42863417709E+03  0.10195721046E+04  0.11132406371E+04  0.10566000000E+00 0. -1.
         -4    1    1    2    0  502  0.45204902559E+03 -0.60830600057E+01  0.73284607586E+02  0.45799122138E+03  0.00000000000E+00 0. -1.
</event>
<event>
 5    1  0.6336319E-005  0.9537501E+02  0.7818608E-02  0.1172443E+00
          4   -1    0    0  502    0 -0.00000000000E+00  0.00000000000E+00  0.11896910513E+03  0.11896910513E+03  0.00000000000E+00 0.  1.
         21   -1    0    0  501  502  0.00000000000E+00 -0.00000000000E+00 -0.54955450289E+03  0.54955450289E+03  0.00000000000E+00 0.  1.
        -13    1    1    2    0    0 -0.10095448159E+03 -0.54805561519E+01  0.86235313927E+02  0.13288485384E+03  0.10566000000E+00 0.  1.
         13    1    1    2    0    0  0.65116216769E+02 -0.35778753187E+01 -0.11566088270E+03  0.13277941794E+03  0.10566000000E+00 0. -1.
          4    1    1    2  501    0  0.35838264820E+02  0.90584314706E+01 -0.40115982898E+03  0.40285933624E+03  0.00000000000E+00 0.  1.
</event>
<event>
 5    1  0.6336319E-005  0.4814962E+03  0.7818608E-02  0.9845650E-01
         21   -1    0    0  501  502  0.00000000000E+00  0.00000000000E+00  0.73753696486E+03  0.73753696486E+03  0.00000000000E+00 0. -1.
         -4   -1    0    0    0  501 -0.00000000000E+00 -0.00000000000E+00 -0.52240542176E+03  0.52240542176E+03  0.00000000000E+00 0. -1.
        -13    1    1    2    0    0 -0.13955015987E+03 -0.64807251727E+02 -0.12561986357E+03  0.19863179072E+03  0.10566000000E+00 0.  1.
         13    1    1    2    0    0 -0.42460350723E+03  0.88035925112E+02  0.20966662663E+03  0.48166229658E+03  0.10566000000E+00 0. -1.
         -4    1    1    2    0  502  0.56415366709E+03 -0.23228673385E+02  0.13108478005E+03  0.57964829933E+03  0.00000000000E+00 0. -1.
</event>
<event>
 5    1  0.6336319E-005  0.3324149E+03  0.7818608E-02  0.9947579E-01
         21   -1    0    0  501  502  0.00000000000E+00  0.00000000000E+00  0.29365218620E+03  0.29365218620E+03  0.00000000000E+00 0. -1.
         -4   -1    0    0    0  501 -0.00000000000E+00 -0.00000000000E+00 -0.14344344538E+04  0.14344344538E+04  0.00000000000E+00 0. -1.
        -13    1    1    2    0    0 -0.11857355564E+03  0.24106184528E+03 -0.29711500068E+03  0.40055940401E+03  0.10566000000E+00 0.  1.
         13    1    1    2    0    0 -0.13309331695E+02 -0.39406755386E+03 -0.99816386595E+03  0.10732182862E+04  0.10566000000E+00 0. -1.
         -4    1    1    2    0  502  0.13188288734E+03  0.15300570858E+03  0.15449659905E+03  0.25430894980E+03  0.00000000000E+00 0. -1.
</event>
<event>
 5    1  0.6336319E-005  0.4930806E+03  0.7818608E-02  0.9760538E-01
         21   -1    0    0  501  502  0.00000000000E+00  0.00000000000E+00  0.21541776390E+03  0.21541776390E+03  0.00000000000E+00 0.  1.
          4   -1    0    0  502    0 -0.00000000000E+00 -0.00000000000E+00 -0.16838855075E+04  0.16838855075E+04  0.00000000000E+00 0.  1.
        -13    1    1    2    0    0 -0.21908219505E+03 -0.42103897123E+03 -0.56498560448E+03  0.73788858774E+03  0.10566000000E+00 0.  1.
         13    1    1    2    0    0 -0.17992388739E+03  0.65708557653E+02 -0.18739644798E+03  0.26796951260E+03  0.10566000000E+00 0. -1.
          4    1    1    2  501    0  0.39900608245E+03  0.35533041358E+03 -0.71608569110E+03  0.89344517103E+03  0.00000000000E+00 0.  1.
</event>
<event>
 5    1  0.6336319E-005  0.1879374E+03  0.7818608E-02  0.1068735E+00
         21   -1    0    0  501  502  0.00000000000E+00  0.00000000000E+00  0.33803822742E+03  0.33803822742E+03  0.00000000000E+00 0.  1.
          4   -1    0    0  502    0 -0.00000000000E+00 -0.00000000000E+00 -0.16777871408E+04  0.16777871408E+04  0.00000000000E+00 0.  1.
        -13    1    1    2    0    0 -0.97608966131E+02 -0.14152197857E+03 -0.85676144234E+03  0.87383989434E+03  0.10566000000E+00 0.  1.
         13    1    1    2    0    0  0.13543915998E+03  0.16704918096E+03 -0.79657499059E+03  0.82509449260E+03  0.10566000000E+00 0. -1.
          4    1    1    2  501    0 -0.37830193853E+02 -0.25527202386E+02  0.31358751953E+03  0.31689098131E+03  0.00000000000E+00 0.  1.
</event>
<event>
 5    1  0.6336319E-005  0.1278884E+03  0.7818608E-02  0.1125224E+00
          4   -1    0    0  502    0 -0.00000000000E+00  0.00000000000E+00  0.11038938663E+04  0.11038938663E+04  0.00000000000E+00 0.  1.
         21   -1    0    0  501  502  0.00000000000E+00 -0.00000000000E+00 -0.25249337294E+02  0.25249337294E+02  0.00000000000E+00 0.  1.
        -13    1    1    2    0    0 -0.93639308945E+02 -0.13208286046E+03  0.48043227829E+03  0.50698065781E+03  0.10566000000E+00 0.  1.
         13    1    1    2    0    0  0.78783835255E+02  0.78886066727E+02  0.46011575865E+03  0.47343048776E+03  0.10566000000E+00 0. -1.
          4    1    1    2  501    0  0.14855473690E+02  0.53196793734E+02  0.13809649207E+03  0.14873205803E+03  0.00000000000E+00 0.  1.
</event>
<event>
 5    1  0.6336319E-005  0.4029016E+03  0.7818608E-02  0.9728771E-01
         -4   -1    0    0    0  501 -0.00000000000E+00  0.00000000000E+00  0.91687438075E+03  0.91687438075E+03  0.00000000000E+00 0. -1.
         21   -1    0    0  501  502  0.00000000000E+00 -0.00000000000E+00 -0.64433839033E+03  0.64433839033E+03  0.00000000000E+00 0. -1.
        -13    1    1    2    0    0  0.32480169729E+03  0.29267069553E+03  0.11953699830E+03  0.45325642159E+03  0.10566000000E+00 0.  1.
         13    1    1    2    0    0 -0.42500985961E+03  0.97570284749E+02  0.43518171353E+03  0.61606531812E+03  0.10566000000E+00 0. -1.
         -4    1    1    2    0  502  0.10020816232E+03 -0.39024098028E+03 -0.28218272141E+03  0.49189103137E+03  0.00000000000E+00 0. -1.
</event>
<event>
 5    1  0.6336319E-005  0.3344799E+03  0.7818608E-02  0.9940107E-01
         21   -1    0    0  501  502  0.00000000000E+00  0.00000000000E+00  0.77203441016E+02  0.77203441016E+02  0.00000000000E+00 0.  1.
          4   -1    0    0  502    0 -0.00000000000E+00 -0.00000000000E+00 -0.29910155531E+04  0.29910155531E+04  0.00000000000E+00 0.  1.
        -13    1    1    2    0    0  0.20774678007E+03 -0.27664941570E+03 -0.18411035954E+04  0.18733275432E+04  0.10566000000E+00 0.  1.
         13    1    1    2    0    0 -0.20438449483E+03  0.24450615135E+03 -0.11045013747E+04  0.11495562525E+04  0.10566000000E+00 0. -1.
          4    1    1    2  501    0 -0.33622852366E+01  0.32143264349E+02  0.31792857970E+02  0.45335198499E+02  0.00000000000E+00 0.  1.
</event>
<event>
 5    1  0.6336319E-005  0.3885603E+03  0.7818608E-02  0.9886596E-01
         -4   -1    0    0    0  501 -0.00000000000E+00  0.00000000000E+00  0.80176208943E+03  0.80176208943E+03  0.00000000000E+00 0. -1.
         21   -1    0    0  501  502  0.00000000000E+00 -0.00000000000E+00 -0.63553401801E+03  0.63553401801E+03  0.00000000000E+00 0. -1.
        -13    1    1    2    0    0 -0.17175635800E+03 -0.18855797898E+03  0.29778437862E+03  0.39208405383E+03  0.10566000000E+00 0.  1.
         13    1    1    2    0    0  0.19200615934E+03 -0.23104493435E+03  0.31281300996E+03  0.43370510405E+03  0.10566000000E+00 0. -1.
         -4    1    1    2    0  502 -0.20249801340E+02  0.41960291333E+03 -0.44436931716E+03  0.61150694956E+03  0.00000000000E+00 0. -1.
</event>
<event>
 5    1  0.6336319E-005  0.9502863E+02  0.7818608E-02  0.1173053E+00
         21   -1    0    0  501  502  0.00000000000E+00  0.00000000000E+00  0.27458845611E+03  0.27458845611E+03  0.00000000000E+00 0.  1.
          4   -1    0    0  502    0 -0.00000000000E+00 -0.00000000000E+00 -0.28998617586E+03  0.28998617586E+03  0.00000000000E+00 0.  1.
        -13    1    1    2    0    0 -0.74911994430E+01  0.95537196512E+02 -0.25073869601E+03  0.26842760444E+03  0.10566000000E+00 0.  1.
         13    1    1    2    0    0  0.50174070520E+02 -0.82742136794E+02  0.56962616180E+02  0.11228735174E+03  0.10566000000E+00 0. -1.
          4    1    1    2  501    0 -0.42682871077E+02 -0.12795059717E+02  0.17837836008E+03  0.18385967579E+03  0.00000000000E+00 0.  1.
</event>
<event>
 5    1  0.6336319E-005  0.9064230E+02  0.7818608E-02  0.1181041E+00
         21   -1    0    0  501  502  0.00000000000E+00  0.00000000000E+00  0.44678695180E+03  0.44678695180E+03  0.00000000000E+00 0.  1.
          4   -1    0    0  502    0 -0.00000000000E+00 -0.00000000000E+00 -0.37951407515E+02  0.37951407515E+02  0.00000000000E+00 0.  1.
        -13    1    1    2    0    0 -0.29780953880E+02 -0.11487420316E+03  0.13113087354E+03  0.17685673559E+03  0.10566000000E+00 0.  1.
         13    1    1    2    0    0  0.28715410161E+02  0.65386531841E+02  0.96581859830E+02  0.12011677709E+03  0.10566000000E+00 0. -1.
          4    1    1    2  501    0  0.10655437193E+01  0.49487671316E+02  0.18112281092E+03  0.18776484663E+03  0.00000000000E+00 0.  1.
</event>
<event>
 5    1  0.6336319E-005  0.1726692E+03  0.7818608E-02  0.1080680E+00
         21   -1    0    0  501  502  0.00000000000E+00  0.00000000000E+00  0.19282609000E+04  0.19282609000E+04  0.00000000000E+00 0. -1.
         -4   -1    0    0    0  501 -0.00000000000E+00 -0.00000000000E+00 -0.43170771714E+02  0.43170771714E+02  0.00000000000E+00 0. -1.
        -13    1    1    2    0    0  0.17597891018E+03 -0.69806195826E+02  0.58411974774E+03  0.61403369017E+03  0.10566000000E+00 0.  1.
         13    1    1    2    0    0 -0.14816103324E+03  0.74978447580E+02  0.21790763735E+03  0.27396570762E+03  0.10566000000E+00 0. -1.
         -4    1    1    2    0  502 -0.27817876940E+02 -0.51722517534E+01  0.10830627432E+04  0.10834322739E+04  0.00000000000E+00 0. -1.
</event>
<event>
 5    1  0.6758143E-005  0.4879074E+03  0.7818608E-02  0.9504878E-01
          4   -1    0    0  502    0 -0.00000000000E+00  0.00000000000E+00  0.15160802769E+04  0.15160802769E+04  0.00000000000E+00 0.  1.
         21   -1    0    0  501  502  0.00000000000E+00 -0.00000000000E+00 -0.65603090301E+03  0.65603090301E+03  0.00000000000E+00 0. -1.
        -13    1    1    2    0    0 -0.23539080791E+03  0.33004774337E+03  0.58215910746E+03  0.70940086193E+03  0.10566000000E+00 0.  1.
         13    1    1    2    0    0  0.42260930815E+03 -0.50201080467E+03  0.70659186913E+03  0.96430573784E+03  0.10566000000E+00 0. -1.
          4    1    1    2  501    0 -0.18721850024E+03  0.17196306129E+03 -0.42870160273E+03  0.49840458010E+03  0.00000000000E+00 0.  1.
</event>
<event>
 5    1  0.6336319E-005  0.3431482E+03  0.7818608E-02  0.1000909E+00
          4   -1    0    0  502    0 -0.00000000000E+00  0.00000000000E+00  0.18036376236E+04  0.18036376236E+04  0.00000000000E+00 0.  1.
         21   -1    0    0  501  502  0.00000000000E+00 -0.00000000000E+00 -0.21279048961E+03  0.21279048961E+03  0.00000000000E+00 0.  1.
        -13    1    1    2    0    0 -0.46623341135E+03  0.13711419713E+03  0.11661869212E+04  0.12633945714E+04  0.10566000000E+00 0.  1.
         13    1    1    2    0    0  0.23070979307E+03  0.87626217515E+02  0.33365550897E+03  0.41500767757E+03  0.10566000000E+00 0. -1.
          4    1    1    2  501    0  0.23552361828E+03 -0.22474041465E+03  0.91004703883E+02  0.33802586421E+03  0.00000000000E+00 0.  1.
</event>
<event>
 5    1  0.6336319E-005  0.4333439E+03  0.7818608E-02  0.9678346E-01
         21   -1    0    0  501  502  0.00000000000E+00  0.00000000000E+00  0.20241025464E+03  0.20241025464E+03  0.00000000000E+00 0.  1.
          4   -1    0    0  502    0 -0.00000000000E+00 -0.00000000000E+00 -0.26855769110E+04  0.26855769110E+04  0.00000000000E+00 0.  1.
        -13    1    1    2    0    0  0.68397754289E+02  0.26779373624E+03 -0.16395620878E+04  0.16626952784E+04  0.10566000000E+00 0.  1.
         13    1    1    2    0    0 -0.33533715176E+03  0.16850161727E+03 -0.39649214562E+03  0.54593940422E+03  0.10566000000E+00 0. -1.
          4    1    1    2  501    0  0.26693939747E+03 -0.43629535351E+03 -0.44711242294E+03  0.67935248301E+03  0.00000000000E+00 0.  1.
</event>
<event>
 5    1  0.6336319E-005  0.8047084E+02  0.7818608E-02  0.1201656E+00
         21   -1    0    0  501  502  0.00000000000E+00  0.00000000000E+00  0.72365418745E+03  0.72365418745E+03  0.00000000000E+00 0. -1.
         -4   -1    0    0    0  501 -0.00000000000E+00 -0.00000000000E+00 -0.31767323260E+02  0.31767323260E+02  0.00000000000E+00 0. -1.
        -13    1    1    2    0    0 -0.58137946897E+02 -0.39331559696E+02  0.18248855041E+03  0.19552256814E+03  0.10566000000E+00 0.  1.
         13    1    1    2    0    0  0.74082048802E+02  0.40477178658E+02  0.45833681401E+02  0.96058781283E+02  0.10566000000E+00 0. -1.
         -4    1    1    2    0  502 -0.15944101905E+02 -0.11456189623E+01  0.46356463238E+03  0.46384016129E+03  0.00000000000E+00 0. -1.
</event>
<event>
 5    1  0.6336319E-005  0.4959367E+03  0.7818608E-02  0.9637046E-01
         21   -1    0    0  501  502  0.00000000000E+00  0.00000000000E+00  0.51640156713E+03  0.51640156713E+03  0.00000000000E+00 0. -1.
         -4   -1    0    0    0  501 -0.00000000000E+00 -0.00000000000E+00 -0.11210052402E+04  0.11210052402E+04  0.00000000000E+00 0. -1.
        -13    1    1    2    0    0  0.18800355409E+03 -0.22011694795E+03 -0.52337588131E+03  0.59809625598E+03  0.10566000000E+00 0.  1.
         13    1    1    2    0    0  0.46187447975E+02  0.57931725629E+03  0.68369575087E+02  0.58516337355E+03  0.10566000000E+00 0. -1.
         -4    1    1    2    0  502 -0.23419100206E+03 -0.35920030834E+03 -0.14959736688E+03  0.45414717784E+03  0.00000000000E+00 0. -1.
</event>
<event>
 5    1  0.6336319E-005  0.1737404E+03  0.7818608E-02  0.1079799E+00
         21   -1    0    0  501  502  0.00000000000E+00  0.00000000000E+00  0.19130461624E+04  0.19130461624E+04  0.00000000000E+00 0. -1.
         -4   -1    0    0    0  501 -0.00000000000E+00 -0.00000000000E+00 -0.19028784138E+03  0.19028784138E+03  0.00000000000E+00 0. -1.
        -13    1    1    2    0    0 -0.13597926105E+03 -0.14676803891E+03  0.38894405398E+03  0.43738850576E+03  0.10566000000E+00 0.  1.
         13    1    1    2    0    0  0.17722815857E+03  0.18598339034E+01 -0.11372501779E+03  0.21058649057E+03  0.10566000000E+00 0. -1.
         -4    1    1    2    0  502 -0.41248897523E+02  0.14490820501E+03  0.14475392848E+04  0.14553590075E+04  0.00000000000E+00 0. -1.
</event>
<event>
 5    1  0.6336319E-005  0.2413323E+02  0.7818608E-02  0.1459349E+00
         21   -1    0    0  501  502  0.00000000000E+00  0.00000000000E+00  0.24390101127E+02  0.24390101127E+02  0.00000000000E+00 0.  1.
         -4   -1    0    0    0  501 -0.00000000000E+00 -0.00000000000E+00 -0.15637923080E+03  0.15637923080E+03  0.00000000000E+00 0. -1.
        -13    1    1    2    0    0 -0.17657449033E+02  0.15477988261E+02  0.11862522010E+02  0.26307493599E+02  0.10566000000E+00 0.  1.
         13    1    1    2    0    0  0.94664359562E+01 -0.22368925563E+02 -0.14141242512E+03  0.14348333486E+03  0.10566000000E+00 0. -1.
         -4    1    1    2    0  502  0.81910130767E+01  0.68909373020E+01 -0.24392265613E+01  0.10978503465E+02  0.00000000000E+00 0. -1.
</event>
<event>
 5    1  0.6336319E-005  0.3844108E+03  0.7818608E-02  0.9965362E-01
         -4   -1    0    0    0  501 -0.00000000000E+00  0.00000000000E+00  0.29998202469E+04  0.29998202469E+04  0.00000000000E+00 0. -1.
         21   -1    0    0  501  502  0.00000000000E+00 -0.00000000000E+00 -0.14626723856E+03  0.14626723856E+03  0.00000000000E+00 0. -1.
        -13    1    1    2    0    0 -0.10717893172E+03  0.17201352238E+03  0.11229140539E+04  0.11410573863E+04  0.10566000000E+00 0.  1.
         13    1    1    2    0    0 -0.36343887162E+03 -0.62568650733E+02  0.24489026213E+03  0.44268939576E+03  0.10566000000E+00 0. -1.
         -4    1    1    2    0  502  0.47061780335E+03 -0.10944487164E+03  0.14857486923E+04  0.15623407034E+04  0.00000000000E+00 0. -1.
</event>
<event>
 5    1  0.6336319E-005  0.2747200E+03  0.7818608E-02  0.1018323E+00
         -4   -1    0    0    0  501 -0.00000000000E+00  0.00000000000E+00  0.16627196235E+04  0.16627196235E+04  0.00000000000E+00 0. -1.
         21   -1    0    0  501  502  0.00000000000E+00 -0.00000000000E+00 -0.27912760215E+03  0.27912760215E+03  0.00000000000E+00 0. -1.
        -13    1    1    2    0    0  0.26970773535E+03  0.14012640576E+03  0.47469509180E+03  0.56366045936E+03  0.10566000000E+00 0.  1.
         13    1    1    2    0    0 -0.12537190124E+03 -0.30079705546E+02 -0.20904499912E+03  0.24560685074E+03  0.10566000000E+00 0. -1.
         -4    1    1    2    0  502 -0.14433583411E+03 -0.11004670021E+03  0.11179419287E+04  0.11325799156E+04  0.00000000000E+00 0. -1.
</event>
<event>
 5    1  0.6336319E-005  0.4768246E+03  0.7818608E-02  0.9597247E-01
         21   -1    0    0  501  502  0.00000000000E+00  0.00000000000E+00  0.13430469529E+04  0.13430469529E+04  0.00000000000E+00 0.  1.
          4   -1    0    0  502    0 -0.00000000000E+00 -0.00000000000E+00 -0.43134746696E+03  0.43134746696E+03  0.00000000000E+00 0.  1.
        -13    1    1    2    0    0  0.68541306808E+03 -0.70933762755E+02  0.58353379964E+03  0.90295868072E+03  0.10566000000E+00 0.  1.
         13    1    1    2    0    0 -0.35705288477E+03 -0.11475959772E+03  0.55775749603E+01  0.37508352176E+03  0.10566000000E+00 0. -1.
          4    1    1    2  501    0 -0.32836018331E+03  0.18569336047E+03  0.32258811134E+03  0.49635221737E+03  0.00000000000E+00 0.  1.
</event>
<event>
 5    1  0.6336319E-005  0.5081065E+03  0.7818608E-02  0.9570716E-01
         21   -1    0    0  501  502  0.00000000000E+00  0.00000000000E+00  0.86015027117E+03  0.86015027117E+03  0.00000000000E+00 0.  1.
         -4   -1    0    0    0  501 -0.00000000000E+00 -0.00000000000E+00 -0.75125991873E+03  0.75125991873E+03  0.00000000000E+00 0. -1.
        -13    1    1    2    0    0 -0.21457601691E+02 -0.34006159012E+03  0.36919494523E+03  0.50240146546E+03  0.10566000000E+00 0.  1.
         13    1    1    2    0    0  0.16871391285E+03 -0.33170167062E+03 -0.18963250250E+03  0.41767317349E+03  0.10566000000E+00 0. -1.
         -4    1    1    2    0  502 -0.14725631116E+03  0.67176326074E+03 -0.70672090282E+02  0.69133555095E+03  0.00000000000E+00 0. -1.
</event>
<event>
 5    1  0.6336319E-005  0.5180730E+03  0.7818608E-02  0.9439216E-01
         21   -1    0    0  501  502  0.00000000000E+00  0.00000000000E+00  0.13510419930E+04  0.13510419930E+04  0.00000000000E+00 0. -1.
         -4   -1    0    0    0  501 -0.00000000000E+00 -0.00000000000E+00 -0.45264541217E+03  0.45264541217E+03  0.00000000000E+00 0. -1.
        -13    1    1    2    0    0 -0.96965845354E+02 -0.42357767485E+03  0.10464031476E+03  0.44695640552E+03  0.10566000000E+00 0.  1.
         13    1    1    2    0    0  0.36182594637E+03  0.65370617437E+03  0.49886804178E+03  0.89839808112E+03  0.10566000000E+00 0. -1.
         -4    1    1    2    0  502 -0.26486010101E+03 -0.23012849952E+03  0.29488822433E+03  0.45833291857E+03  0.00000000000E+00 0. -1.
</event>
<event>
 5    1  0.6336319E-005  0.1512915E+03  0.7818608E-02  0.1099845E+00
          4   -1    0    0  502    0 -0.00000000000E+00  0.00000000000E+00  0.11101581826E+04  0.11101581826E+04  0.00000000000E+00 0.  1.
         21   -1    0    0  501  502  0.00000000000E+00 -0.00000000000E+00 -0.34385205823E+02  0.34385205823E+02  0.00000000000E+00 0.  1.
        -13    1    1    2    0    0 -0.13789124894E+03  0.51130032237E+02  0.48545398866E+03  0.50724142477E+03  0.10566000000E+00 0.  1.
         13    1    1    2    0    0  0.14877129057E+03 -0.44449227702E+02  0.60095197062E+03  0.62068664630E+03  0.10566000000E+00 0. -1.
          4    1    1    2  501    0 -0.10880041631E+02 -0.66808045343E+01 -0.10632982478E+02  0.16615317376E+02  0.00000000000E+00 0.  1.
</event>
<event>
 5    1  0.6336319E-005  0.4446466E+03  0.7818608E-02  0.9942802E-01
         -4   -1    0    0    0  501 -0.00000000000E+00  0.00000000000E+00  0.34604092839E+04  0.34604092839E+04  0.00000000000E+00 0. -1.
         21   -1    0    0  501  502  0.00000000000E+00 -0.00000000000E+00 -0.98714521049E+02  0.98714521049E+02  0.00000000000E+00 0. -1.
        -13    1    1    2    0    0  0.13097149575E+03  0.52516197237E+02  0.73753143168E+03  0.75090885436E+03  0.10566000000E+00 0.  1.
         13    1    1    2    0    0 -0.50641367206E+03 -0.20462473555E+03  0.19165083974E+04  0.19928197455E+04  0.10566000000E+00 0. -1.
         -4    1    1    2    0  502  0.37544217631E+03  0.15210853831E+03  0.70765493379E+03  0.81539520510E+03  0.00000000000E+00 0. -1.
</event>
<event>
 5    1  0.6336319E-005  0.2717663E+03  0.7818608E-02  0.1019692E+00
         -4   -1    0    0    0  501 -0.00000000000E+00  0.00000000000E+00  0.13607799154E+04  0.13607799154E+04  0.00000000000E+00 0. -1.
         21   -1    0    0  501  502  0.00000000000E+00 -0.00000000000E+00 -0.27733436730E+03  0.27733436730E+03  0.00000000000E+00 0. -1.
        -13    1    1    2    0    0 -0.13386769470E+03 -0.16803142891E+03  0.22876987917E+03  0.31383242275E+03  0.10566000000E+00 0.  1.
         13    1    1    2    0    0  0.51742472384E+02  0.30952358662E+03  0.10345722566E+04  0.10811206683E+04  0.10566000000E+00 0. -1.
         -4    1    1    2    0  502  0.82125222317E+02 -0.14149215771E+03 -0.17989658772E+03  0.24316119162E+03  0.00000000000E+00 0. -1.
</event>
<event>
 5    1  0.6336319E-005  0.5555827E+03  0.7818608E-02  0.9363815E-01
         -4   -1    0    0    0  501 -0.00000000000E+00  0.00000000000E+00  0.27204315932E+04  0.27204315932E+04  0.00000000000E+00 0. -1.
         21   -1    0    0  501  502  0.00000000000E+00 -0.00000000000E+00 -0.23872832921E+03  0.23872832921E+03  0.00000000000E+00 0.  1.
        -13    1    1    2    0    0 -0.35312905742E+03  0.35481949476E+03  0.81386935165E+03  0.95550004593E+03  0.10566000000E+00 0.  1.
         13    1    1    2    0    0  0.43405445532E+03 -0.40455155836E+03  0.17684231015E+04  0.18653111029E+04  0.10566000000E+00 0. -1.
         -4    1    1    2    0  502 -0.80925397899E+02  0.49732063599E+02 -0.10058918915E+03  0.13834877357E+03  0.00000000000E+00 0. -1.
</event>
<event>
 5    1  0.6336319E-005  0.7829060E+02  0.7818608E-02  0.1206515E+00
         21   -1    0    0  501  502  0.00000000000E+00  0.00000000000E+00  0.16898816779E+03  0.16898816779E+03  0.00000000000E+00 0.  1.
          4   -1    0    0  502    0 -0.00000000000E+00 -0.00000000000E+00 -0.29628974729E+03  0.29628974729E+03  0.00000000000E+00 0.  1.
        -13    1    1    2    0    0 -0.14856932646E+02  0.85155011260E+02 -0.26301843971E+03  0.27685883620E+03  0.10566000000E+00 0.  1.
         13    1    1    2    0    0  0.92851274980E+01 -0.47902812166E+02  0.12865291972E+01  0.48811467172E+02  0.10566000000E+00 0. -1.
          4    1    1    2  501    0  0.55718051481E+01 -0.37252199093E+02  0.13443033101E+03  0.13960761170E+03  0.00000000000E+00 0.  1.
</event>
<event>
 5    1  0.6336319E-005  0.5149847E+03  0.7818608E-02  0.9445720E-01
         21   -1    0    0  501  502  0.00000000000E+00  0.00000000000E+00  0.87807411506E+03  0.87807411506E+03  0.00000000000E+00 0.  1.
          4   -1    0    0  502    0 -0.00000000000E+00 -0.00000000000E+00 -0.69812119896E+03  0.69812119896E+03  0.00000000000E+00 0.  1.
        -13    1    1    2    0    0  0.74877201454E+03  0.43224659011E+02  0.12865808902E+03  0.76097359740E+03  0.10566000000E+00 0.  1.
         13    1    1    2    0    0 -0.41786394890E+03 -0.98945266860E+02 -0.10944078719E+03  0.44314528395E+03  0.10566000000E+00 0. -1.
          4    1    1    2  501    0 -0.33090806564E+03  0.55720607849E+02  0.16073561428E+03  0.37207643266E+03  0.00000000000E+00 0.  1.
</event>
<event>
 5    1  0.6336319E-005  0.1987232E+03  0.7818608E-02  0.1061015E+00
         21   -1    0    0  501  502  0.00000000000E+00  0.00000000000E+00  0.11672305304E+04  0.11672305304E+04  0.00000000000E+00 0.  1.
         -4   -1    0    0    0  501 -0.00000000000E+00 -0.00000000000E+00 -0.66649455380E+02  0.66649455380E+02  0.00000000000E+00 0. -1.
        -13    1    1    2    0    0 -0.13624952514E+03  0.11931494306E+02  0.54191933811E+03  0.55891222373E+03  0.10566000000E+00 0.  1.
         13    1    1    2    0    0  0.21829471775E+03 -0.66948515672E+02  0.20193274913E+03  0.30481393322E+03  0.10566000000E+00 0. -1.
         -4    1    1    2    0  502 -0.82045192618E+02  0.55017021366E+02  0.35672898776E+03  0.37015382881E+03  0.00000000000E+00 0. -1.
</event>
<event>
 5    1  0.6336319E-005  0.1243474E+03  0.7818608E-02  0.1129578E+00
         21   -1    0    0  501  502  0.00000000000E+00  0.00000000000E+00  0.24113687434E+02  0.24113687434E+02  0.00000000000E+00 0. -1.
         -4   -1    0    0    0  501 -0.00000000000E+00 -0.00000000000E+00 -0.12190359255E+04  0.12190359255E+04  0.00000000000E+00 0. -1.
        -13    1    1    2    0    0  0.53182584370E+02 -0.97114870997E+02 -0.40005310118E+03  0.41509297799E+03  0.10566000000E+00 0.  1.
         13    1    1    2    0    0 -0.55473031123E+02  0.12290809810E+03 -0.79034938044E+03  0.80177042355E+03  0.10566000000E+00 0. -1.
         -4    1    1    2    0  502  0.22904467532E+01 -0.25793227108E+02 -0.45197564480E+01  0.26286211391E+02  0.00000000000E+00 0. -1.
</event>
<event>
 5    1  0.6336319E-005  0.1850338E+03  0.7818608E-02  0.1070910E+00
         21   -1    0    0  501  502  0.00000000000E+00  0.00000000000E+00  0.68010758002E+03  0.68010758002E+03  0.00000000000E+00 0. -1.
         -4   -1    0    0    0  501 -0.00000000000E+00 -0.00000000000E+00 -0.12290147303E+03  0.12290147303E+03  0.00000000000E+00 0. -1.
        -13    1    1    2    0    0  0.11105858619E+03 -0.14637705014E+03  0.64617624415E+01  0.18385324558E+03  0.10566000000E+00 0.  1.
         13    1    1    2    0    0 -0.93750344369E+02  0.16513900828E+03  0.23387485318E+03  0.30125981684E+03  0.10566000000E+00 0. -1.
         -4    1    1    2    0  502 -0.17308241817E+02 -0.18761958137E+02  0.31686949136E+03  0.31789599064E+03  0.00000000000E+00 0. -1.
</event>
<event>
 5    1  0.6336319E-005  0.1686903E+03  0.7818608E-02  0.1108299E+00
          4   -1    0    0  502    0 -0.00000000000E+00  0.00000000000E+00  0.36725208816E+03  0.36725208816E+03  0.00000000000E+00 0.  1.
         21   -1    0    0  501  502  0.00000000000E+00 -0.00000000000E+00 -0.28032014759E+03  0.28032014759E+03  0.00000000000E+00 0.  1.
        -13    1    1    2    0    0 -0.38426806205E+02  0.22400921885E+03  0.22740975581E+03  0.32151509727E+03  0.10566000000E+00 0.  1.
         13    1    1    2    0    0  0.60215968541E+02 -0.62719085425E+02  0.28448651617E+02  0.91482148460E+02  0.10566000000E+00 0. -1.
          4    1    1    2  501    0 -0.21789162336E+02 -0.16129013343E+03 -0.16892646687E+03  0.23457499002E+03  0.00000000000E+00 0.  1.
</event>
<event>
 5    1  0.6336319E-005  0.5681755E+02  0.7818608E-02  0.1303351E+00
          4   -1    0    0  502    0 -0.00000000000E+00  0.00000000000E+00  0.42342971202E+02  0.42342971202E+02  0.00000000000E+00 0.  1.
         21   -1    0    0  501  502  0.00000000000E+00 -0.00000000000E+00 -0.21863186978E+03  0.21863186978E+03  0.00000000000E+00 0.  1.
        -13    1    1    2    0    0  0.58298178108E+02  0.12115562206E+02 -0.17610024054E+03  0.18589451390E+03  0.10566000000E+00 0.  1.
         13    1    1    2    0    0 -0.22320348121E+02  0.15553222024E+02 -0.93714076540E+01  0.28773861420E+02  0.10566000000E+00 0. -1.
          4    1    1    2  501    0 -0.35977829987E+02 -0.27668784230E+02  0.91827496129E+01  0.46306465659E+02  0.00000000000E+00 0.  1.
</event>
<event>
 5    1  0.6336319E-005  0.6865185E+02  0.7818608E-02  0.1230310E+00
         -4   -1    0    0    0  501 -0.00000000000E+00  0.00000000000E+00  0.35646958045E+02  0.35646958045E+02  0.00000000000E+00 0. -1.
         21   -1    0    0  501  502  0.00000000000E+00 -0.00000000000E+00 -0.22448534448E+03  0.22448534448E+03  0.00000000000E+00 0.  1.
        -13    1    1    2    0    0 -0.71556723922E+02  0.56497211743E+01 -0.59097980816E+02  0.92977774701E+02  0.10566000000E+00 0.  1.
         13    1    1    2    0    0  0.62461078870E+02 -0.25554514166E+02 -0.48731828353E+02  0.83241947518E+02  0.10566000000E+00 0. -1.
         -4    1    1    2    0  502  0.90956450517E+01  0.19904792992E+02 -0.81008577266E+02  0.83912580306E+02  0.00000000000E+00 0. -1.
</event>
<event>
 5    1  0.6336319E-005  0.6720568E+02  0.7818608E-02  0.1281719E+00
          4   -1    0    0  502    0 -0.00000000000E+00  0.00000000000E+00  0.19285316978E+03  0.19285316978E+03  0.00000000000E+00 0.  1.
         21   -1    0    0  501  502  0.00000000000E+00 -0.00000000000E+00 -0.10389356878E+03  0.10389356878E+03  0.00000000000E+00 0.  1.
        -13    1    1    2    0    0  0.64061907930E+02 -0.57050274475E+02  0.15988658908E+03  0.18144529313E+03  0.10566000000E+00 0.  1.
         13    1    1    2    0    0 -0.73027814554E+01  0.24049565423E+02 -0.17072162303E+02  0.30383911924E+02  0.10566000000E+00 0. -1.
          4    1    1    2  501    0 -0.56759126475E+02  0.33000709051E+02 -0.53854825785E+02  0.84917533504E+02  0.00000000000E+00 0.  1.
</event>
<event>
 5    1  0.6336319E-005  0.6074356E+03  0.7818608E-02  0.9269297E-01
          4   -1    0    0  502    0 -0.00000000000E+00  0.00000000000E+00  0.12215835018E+04  0.12215835018E+04  0.00000000000E+00 0.  1.
         21   -1    0    0  501  502  0.00000000000E+00 -0.00000000000E+00 -0.67108725881E+03  0.67108725881E+03  0.00000000000E+00 0. -1.
        -13    1    1    2    0    0  0.69159423345E+03 -0.13601763839E+02  0.23425442910E+03  0.73031687673E+03  0.10566000000E+00 0.  1.
         13    1    1    2    0    0 -0.48180822260E+03 -0.37564318776E+03  0.37414281407E+03  0.71640060327E+03  0.10566000000E+00 0. -1.
          4    1    1    2  501    0 -0.20978601086E+03  0.38924495160E+03 -0.57901000156E+02  0.44595328064E+03  0.00000000000E+00 0.  1.
</event>
<event>
 5    1  0.6336319E-005  0.5276593E+03  0.7818608E-02  0.9465647E-01
         21   -1    0    0  501  502  0.00000000000E+00  0.00000000000E+00  0.38305034502E+03  0.38305034502E+03  0.00000000000E+00 0.  1.
         -4   -1    0    0    0  501 -0.00000000000E+00 -0.00000000000E+00 -0.24026192567E+04  0.24026192567E+04  0.00000000000E+00 0. -1.
        -13    1    1    2    0    0  0.50952172772E+02 -0.57230154082E+03 -0.15871701324E+03  0.59608412074E+03  0.10566000000E+00 0.  1.
         13    1    1    2    0    0  0.39222033520E+03  0.12287411943E+03 -0.12314014748E+04  0.12981850576E+04  0.10566000000E+00 0. -1.
         -4    1    1    2    0  502 -0.44317250797E+03  0.44942742139E+03 -0.62945042366E+03  0.89140042336E+03  0.00000000000E+00 0. -1.
</event>
<event>
 5    1  0.6336319E-005  0.1664749E+03  0.7818608E-02  0.1085911E+00
         21   -1    0    0  501  502  0.00000000000E+00  0.00000000000E+00  0.49199255157E+02  0.49199255157E+02  0.00000000000E+00 0.  1.
         -4   -1    0    0    0  501 -0.00000000000E+00 -0.00000000000E+00 -0.88012511517E+03  0.88012511517E+03  0.00000000000E+00 0. -1.
        -13    1    1    2    0    0  0.95004749070E+02 -0.14394468881E+03 -0.22414539426E+03  0.28281998641E+03  0.10566000000E+00 0.  1.
         13    1    1    2    0    0 -0.82730123429E+02  0.14198567711E+03 -0.61150995248E+03  0.63320505287E+03  0.10566000000E+00 0. -1.
         -4    1    1    2    0  502 -0.12274625641E+02  0.19590116951E+01  0.47294867343E+01  0.13299331044E+02  0.00000000000E+00 0. -1.
</event>
<event>
 5    1  0.6336319E-005  0.2561332E+02  0.7818608E-02  0.1444040E+00
         21   -1    0    0  501  502  0.00000000000E+00  0.00000000000E+00  0.83658805160E+02  0.83658805160E+02  0.00000000000E+00 0. -1.
         -4   -1    0    0    0  501 -0.00000000000E+00 -0.00000000000E+00 -0.51534917084E+02  0.51534917084E+02  0.00000000000E+00 0. -1.
        -13    1    1    2    0    0 -0.14505145064E+02  0.22137041185E+02  0.23483091233E+02  0.35382404718E+02  0.10566000000E+00 0.  1.
         13    1    1    2    0    0  0.38606255031E+01 -0.25484008645E+02 -0.41275927014E+02  0.48662639065E+02  0.10566000000E+00 0. -1.
         -4    1    1    2    0  502  0.10644519561E+02  0.33469674599E+01  0.49916723856E+02  0.51148678462E+02  0.00000000000E+00 0. -1.
</event>
<event>
 5    1  0.6336319E-005  0.4285512E+03  0.7818608E-02  0.9949887E-01
         21   -1    0    0  501  502  0.00000000000E+00  0.00000000000E+00  0.46514853609E+03  0.46514853609E+03  0.00000000000E+00 0.  1.
          4   -1    0    0  502    0 -0.00000000000E+00 -0.00000000000E+00 -0.11443555422E+04  0.11443555422E+04  0.00000000000E+00 0.  1.
        -13    1    1    2    0    0  0.30144828344E+02 -0.32034189094E+03 -0.31338213523E+03  0.44915032184E+03  0.10566000000E+00 0.  1.
         13    1    1    2    0    0 -0.40812908922E+02 -0.14844630890E+03 -0.61177991673E+03  0.63085392750E+03  0.10566000000E+00 0. -1.
          4    1    1    2  501    0  0.10668080579E+02  0.46878819983E+03  0.24595504587E+03  0.52949982893E+03  0.00000000000E+00 0.  1.
</event>
<event>
 5    1  0.6336319E-005  0.4157981E+03  0.7818608E-02  0.9872487E-01
         21   -1    0    0  501  502  0.00000000000E+00  0.00000000000E+00  0.31704278209E+03  0.31704278209E+03  0.00000000000E+00 0.  1.
          4   -1    0    0  502    0 -0.00000000000E+00 -0.00000000000E+00 -0.14398968576E+04  0.14398968576E+04  0.00000000000E+00 0.  1.
        -13    1    1    2    0    0 -0.10110199247E+03  0.40799363056E+03  0.30461704591E+02  0.42143604743E+03  0.10566000000E+00 0.  1.
         13    1    1    2    0    0 -0.20139355741E+03 -0.84100419675E+02 -0.50546520024E+03  0.55057000043E+03  0.10566000000E+00 0. -1.
          4    1    1    2  501    0  0.30249554988E+03 -0.32389321089E+03 -0.64785057984E+03  0.78493359181E+03  0.00000000000E+00 0.  1.
</event>
<event>
 5    1  0.6336319E-005  0.5050343E+02  0.7818608E-02  0.1289753E+00
         21   -1    0    0  501  502  0.00000000000E+00  0.00000000000E+00  0.54980385246E+02  0.54980385246E+02  0.00000000000E+00 0.  1.
          4   -1    0    0  502    0 -0.00000000000E+00 -0.00000000000E+00 -0.10822773886E+03  0.10822773886E+03  0.00000000000E+00 0.  1.
        -13    1    1    2    0    0  0.32156598904E+02  0.50812296156E+02 -0.32555873688E+02  0.68380058272E+02  0.10566000000E+00 0.  1.
         13    1    1    2    0    0  0.10139150822E+02 -0.48048044247E+02 -0.18194568979E+02  0.52368601659E+02  0.10566000000E+00 0. -1.
          4    1    1    2  501    0 -0.42295749726E+02 -0.27642519091E+01 -0.24969109428E+01  0.42459464172E+02  0.00000000000E+00 0.  1.
</event>
<event>
 5    1  0.7266291E-005  0.1070802E+04  0.7818608E-02  0.8710770E-01
         21   -1    0    0  501  502  0.00000000000E+00  0.00000000000E+00  0.74601364112E+03  0.74601364112E+03  0.00000000000E+00 0.  1.
         -4   -1    0    0    0  501 -0.00000000000E+00 -0.00000000000E+00 -0.21059781527E+04  0.21059781527E+04  0.00000000000E+00 0. -1.
        -13    1    1    2    0    0  0.61411119603E+02 -0.10443036421E+04 -0.42999045690E+03  0.11310319300E+04  0.10566000000E+00 0.  1.
         13    1    1    2    0    0  0.14377123205E+03  0.10859806857E+04 -0.10164916621E+04  0.14944161158E+04  0.10566000000E+00 0. -1.
         -4    1    1    2    0  502 -0.20518235165E+03 -0.41677043578E+02  0.86517607395E+02  0.22654374805E+03  0.00000000000E+00 0. -1.
</event>
<event>
 5    1  0.6336319E-005  0.5062959E+03  0.7818608E-02  0.9830276E-01
         21   -1    0    0  501  502  0.00000000000E+00  0.00000000000E+00  0.78386408561E+03  0.78386408561E+03  0.00000000000E+00 0. -1.
         -4   -1    0    0    0  501 -0.00000000000E+00 -0.00000000000E+00 -0.79573879514E+03  0.79573879514E+03  0.00000000000E+00 0. -1.
        -13    1    1    2    0    0 -0.12907877248E+03 -0.52691757600E+02 -0.42945146049E+03  0.45151557992E+03  0.10566000000E+00 0.  1.
         13    1    1    2    0    0  0.49395360154E+03 -0.25773616018E+03  0.14020391736E+03  0.57452174749E+03  0.10566000000E+00 0. -1.
         -4    1    1    2    0  502 -0.36487482906E+03  0.31042791778E+03  0.27737283361E+03  0.55356555334E+03  0.00000000000E+00 0. -1.
</event>
<event>
 5    1  0.6336319E-005  0.1000469E+04  0.7818608E-02  0.8774151E-01
         21   -1    0    0  501  502  0.00000000000E+00  0.00000000000E+00  0.46122307206E+03  0.46122307206E+03  0.00000000000E+00 0.  1.
         -4   -1    0    0    0  501 -0.00000000000E+00 -0.00000000000E+00 -0.29746317716E+04  0.29746317716E+04  0.00000000000E+00 0. -1.
        -13    1    1    2    0    0  0.40079561574E+03 -0.83825954768E+03 -0.70120407751E+03  0.11640461178E+04  0.10566000000E+00 0.  1.
         13    1    1    2    0    0 -0.68638055107E+03  0.82533570123E+03 -0.13068630097E+04  0.16912090994E+04  0.10566000000E+00 0. -1.
         -4    1    1    2    0  502  0.28558493533E+03  0.12923846446E+02 -0.50534161238E+03  0.58059962651E+03  0.00000000000E+00 0. -1.
</event>
<event>
 5    1  0.6336319E-005  0.2858053E+03  0.7818608E-02  0.1038680E+00
          4   -1    0    0  502    0 -0.00000000000E+00  0.00000000000E+00  0.29566224915E+04  0.29566224915E+04  0.00000000000E+00 0.  1.
         21   -1    0    0  501  502  0.00000000000E+00 -0.00000000000E+00 -0.11056234419E+03  0.11056234419E+03  0.00000000000E+00 0.  1.
        -13    1    1    2    0    0  0.17762907748E+03 -0.21184879188E+03  0.13884004889E+03  0.30936801729E+03  0.10566000000E+00 0.  1.
         13    1    1    2    0    0  0.38006524578E+01 -0.12976304955E+03  0.47934971463E+03  0.49661761353E+03  0.10566000000E+00 0. -1.
          4    1    1    2  501    0 -0.18142972993E+03  0.34161184143E+03  0.22278703838E+04  0.22611992048E+04  0.00000000000E+00 0.  1.
</event>
<event>
 5    1  0.6336319E-005  0.4440679E+03  0.7818608E-02  0.1005867E+00
         21   -1    0    0  501  502  0.00000000000E+00  0.00000000000E+00  0.96776018138E+03  0.96776018138E+03  0.00000000000E+00 0.  1.
          4   -1    0    0  502    0 -0.00000000000E+00 -0.00000000000E+00 -0.30888384750E+03  0.30888384750E+03  0.00000000000E+00 0.  1.
        -13    1    1    2    0    0 -0.32435444699E+03  0.33994387830E+03  0.61676613350E+03  0.77535032229E+03  0.10566000000E+00 0.  1.
         13    1    1    2    0    0  0.44246608294E+02 -0.86214702607E+02  0.74117270156E+02  0.12200048439E+03  0.10566000000E+00 0. -1.
          4    1    1    2  501    0  0.28010783870E+03 -0.25372917569E+03 -0.32007069773E+02  0.37929322221E+03  0.00000000000E+00 0.  1.
</event>
<event>
 5    1  0.6336319E-005  0.4636207E+03  0.7818608E-02  0.9561483E-01
          4   -1    0    0  502    0 -0.00000000000E+00  0.00000000000E+00  0.90722916351E+03  0.90722916351E+03  0.00000000000E+00 0.  1.
         21   -1    0    0  501  502  0.00000000000E+00 -0.00000000000E+00 -0.56030101579E+03  0.56030101579E+03  0.00000000000E+00 0.  1.
        -13    1    1    2    0    0  0.26762713817E+03  0.64992307018E+03  0.19175888124E+03  0.72855731547E+03  0.10566000000E+00 0.  1.
         13    1    1    2    0    0 -0.88034000677E+02 -0.34709853465E+03  0.14620074172E+03  0.38678423710E+03  0.10566000000E+00 0. -1.
          4    1    1    2  501    0 -0.17959313749E+03 -0.30282453553E+03  0.89685247649E+01  0.35218862672E+03  0.00000000000E+00 0.  1.
</event>
<event>
 5    1  0.6336319E-005  0.4002639E+03  0.7818608E-02  0.9851071E-01
          4   -1    0    0  502    0 -0.00000000000E+00  0.00000000000E+00  0.25604346320E+04  0.25604346320E+04  0.00000000000E+00 0.  1.
         21   -1    0    0  501  502  0.00000000000E+00 -0.00000000000E+00 -0.17223412831E+03  0.17223412831E+03  0.00000000000E+00 0.  1.
        -13    1    1    2    0    0 -0.16865055916E+03 -0.43004446237E+03  0.14225015781E+04  0.14956242849E+04  0.10566000000E+00 0.  1.
         13    1    1    2    0    0 -0.16375562997E+03  0.20576911295E+03  0.72058475008E+03  0.76707185283E+03  0.10566000000E+00 0. -1.
          4    1    1    2  501    0  0.33240618913E+03  0.22427534942E+03  0.24511417551E+03  0.46997262257E+03  0.00000000000E+00 0.  1.
</event>
<event>
 5    1  0.6336319E-005  0.1426647E+03  0.7818608E-02  0.1123218E+00
         -4   -1    0    0    0  501 -0.00000000000E+00  0.00000000000E+00  0.53944122545E+03  0.53944122545E+03  0.00000000000E+00 0. -1.
         21   -1    0    0  501  502  0.00000000000E+00 -0.00000000000E+00 -0.59209859872E+03  0.59209859872E+03  0.00000000000E+00 0. -1.
        -13    1    1    2    0    0 -0.48755623825E+02 -0.83910234276E+02  0.65365870044E+02  0.11700746302E+03  0.10566000000E+00 0.  1.
         13    1    1    2    0    0  0.14367002191E+03  0.99372465324E+00 -0.54797118970E+03  0.56649315847E+03  0.10566000000E+00 0. -1.
         -4    1    1    2    0  502 -0.94914398082E+02  0.82916509623E+02  0.42994794639E+03  0.44803920268E+03  0.00000000000E+00 0. -1.
</event>
<event>
 5    1  0.6336319E-005  0.4469156E+03  0.7818608E-02  0.9815145E-01
         21   -1    0    0  501  502  0.00000000000E+00  0.00000000000E+00  0.47943125504E+03  0.47943125504E+03  0.00000000000E+00 0.  1.
          4   -1    0    0  502    0 -0.00000000000E+00 -0.00000000000E+00 -0.19080556543E+04  0.19080556543E+04  0.00000000000E+00 0.  1.
        -13    1    1    2    0    0 -0.24648703187E+03  0.41273418258E+03  0.25750433823E+03  0.54535663352E+03  0.10566000000E+00 0.  1.
         13    1    1    2    0    0 -0.51757355562E+02 -0.20702746146E+03 -0.12808970612E+04  0.12985516879E+04  0.10566000000E+00 0. -1.
          4    1    1    2  501    0  0.29824438744E+03 -0.20570672112E+03 -0.40523167629E+03  0.54357858790E+03  0.00000000000E+00 0.  1.
</event>
<event>
 5    1  0.6336319E-005  0.2287378E+03  0.7818608E-02  0.1060996E+00
         21   -1    0    0  501  502  0.00000000000E+00  0.00000000000E+00  0.16944360287E+03  0.16944360287E+03  0.00000000000E+00 0.  1.
          4   -1    0    0  502    0 -0.00000000000E+00 -0.00000000000E+00 -0.22939919509E+04  0.22939919509E+04  0.00000000000E+00 0.  1.
        -13    1    1    2    0    0 -0.12937603674E+03  0.18128347722E+03  0.58099662103E+02  0.23016828604E+03  0.10566000000E+00 0.  1.
         13    1    1    2    0    0 -0.85611287089E+01  0.13009850233E+03 -0.69629823562E+03  0.70839971579E+03  0.10566000000E+00 0. -1.
          4    1    1    2  501    0  0.13793716545E+03 -0.31138197955E+03 -0.14863497746E+04  0.15248675520E+04  0.00000000000E+00 0.  1.
</event>
<event>
 5    1  0.6336319E-005  0.5608325E+02  0.7818608E-02  0.1311982E+00
         21   -1    0    0  501  502  0.00000000000E+00  0.00000000000E+00  0.61071571223E+03  0.61071571223E+03  0.00000000000E+00 0. -1.
         -4   -1    0    0    0  501 -0.00000000000E+00 -0.00000000000E+00 -0.15652168919E+02  0.15652168919E+02  0.00000000000E+00 0. -1.
        -13    1    1    2    0    0  0.13481330137E+02 -0.19824292043E+02  0.70398232095E+02  0.74368481653E+02  0.10566000000E+00 0.  1.
         13    1    1    2    0    0  0.18326166642E+02 -0.29946863141E+02  0.13789552527E+02  0.37720364774E+02  0.10566000000E+00 0. -1.
         -4    1    1    2    0  502 -0.31807496778E+02  0.49771155183E+02  0.51087575869E+03  0.51427903472E+03  0.00000000000E+00 0. -1.
</event>
<event>
 5    1  0.6336319E-005  0.1449583E+03  0.7818608E-02  0.1115830E+00
          4   -1    0    0  502    0 -0.00000000000E+00  0.00000000000E+00  0.13277538896E+03  0.13277538896E+03  0.00000000000E+00 0.  1.
         21   -1    0    0  501  502  0.00000000000E+00 -0.00000000000E+00 -0.76152828067E+03  0.76152828067E+03  0.00000000000E+00 0. -1.
        -13    1    1    2    0    0  0.68039437039E+02  0.34834095300E+02 -0.13210994710E+02  0.77571391203E+02  0.10566000000E+00 0.  1.
         13    1    1    2    0    0 -0.16259824544E+03 -0.14470459251E+03 -0.37598928643E+02  0.22088752593E+03  0.10566000000E+00 0. -1.
          4    1    1    2  501    0  0.94558808398E+02  0.10987049721E+03 -0.57794296836E+03  0.59584475250E+03  0.00000000000E+00 0.  1.
</event>
<event>
 5    1  0.6336319E-005  0.7706794E+03  0.7818608E-02  0.9026305E-01
         21   -1    0    0  501  502  0.00000000000E+00  0.00000000000E+00  0.60325368460E+03  0.60325368460E+03  0.00000000000E+00 0. -1.
          4   -1    0    0  502    0 -0.00000000000E+00 -0.00000000000E+00 -0.20106763010E+04  0.20106763010E+04  0.00000000000E+00 0.  1.
        -13    1    1    2    0    0 -0.60528027795E+03 -0.43799746847E+03  0.19346432075E+03  0.77177357550E+03  0.10566000000E+00 0.  1.
         13    1    1    2    0    0  0.55575468545E+03  0.54394676685E+03 -0.12486322215E+04  0.14709941507E+04  0.10566000000E+00 0. -1.
          4    1    1    2  501    0  0.49525592509E+02 -0.10594929838E+03 -0.35225471560E+03  0.37116225940E+03  0.00000000000E+00 0.  1.
</event>
<event>
 5    1  0.6336319E-005  0.4218403E+03  0.7818608E-02  0.1012256E+00
         21   -1    0    0  501  502  0.00000000000E+00  0.00000000000E+00  0.10558670160E+03  0.10558670160E+03  0.00000000000E+00 0.  1.
          4   -1    0    0  502    0 -0.00000000000E+00 -0.00000000000E+00 -0.28956379555E+04  0.28956379555E+04  0.00000000000E+00 0.  1.
        -13    1    1    2    0    0 -0.37096618712E+03  0.17431447286E+03 -0.51289328711E+03  0.65655234564E+03  0.10566000000E+00 0.  1.
         13    1    1    2    0    0 -0.78209785877E+02 -0.48499496721E+02 -0.35793232249E+03  0.36957344390E+03  0.10566000000E+00 0. -1.
          4    1    1    2  501    0  0.44917597300E+03 -0.12581497614E+03 -0.19192256443E+04  0.19750988675E+04  0.00000000000E+00 0.  1.
</event>
<event>
 5    1  0.6336319E-005  0.4512811E+03  0.7818608E-02  0.9591666E-01
         -4   -1    0    0    0  501 -0.00000000000E+00  0.00000000000E+00  0.27611613806E+04  0.27611613806E+04  0.00000000000E+00 0. -1.
         21   -1    0    0  501  502  0.00000000000E+00 -0.00000000000E+00 -0.24997991583E+03  0.24997991583E+03  0.00000000000E+00 0.  1.
        -13    1    1    2    0    0  0.34009375485E+03  0.29495347844E+03  0.13713873303E+04  0.14433864823E+04  0.10566000000E+00 0.  1.
         13    1    1    2    0    0 -0.43316027675E+03 -0.19447459437E+03  0.59170189447E+02  0.47848648434E+03  0.10566000000E+00 0. -1.
         -4    1    1    2    0  502  0.93066521895E+02 -0.10047888408E+03  0.10806239451E+04  0.10892683298E+04  0.00000000000E+00 0. -1.
</event>
<event>
 5    1  0.6336319E-005  0.1588049E+03  0.7818608E-02  0.1092739E+00
         21   -1    0    0  501  502  0.00000000000E+00  0.00000000000E+00  0.51137105905E+03  0.51137105905E+03  0.00000000000E+00 0.  1.
          4   -1    0    0  502    0 -0.00000000000E+00 -0.00000000000E+00 -0.86976540076E+02  0.86976540076E+02  0.00000000000E+00 0.  1.
        -13    1    1    2    0    0  0.41465224198E+02 -0.14971189996E+03  0.55822488036E+02  0.16507325386E+03  0.10566000000E+00 0.  1.
         13    1    1    2    0    0 -0.53828041853E+02  0.15671086562E+03  0.18187334010E+03  0.24603592522E+03  0.10566000000E+00 0. -1.
          4    1    1    2  501    0  0.12362817655E+02 -0.69989656643E+01  0.18669869084E+03  0.18723842004E+03  0.00000000000E+00 0.  1.
</event>
<event>
 5    1  0.6336319E-005  0.2737007E+02  0.7818608E-02  0.1427357E+00
         -4   -1    0    0    0  501 -0.00000000000E+00  0.00000000000E+00  0.15775246529E+03  0.15775246529E+03  0.00000000000E+00 0. -1.
         21   -1    0    0  501  502  0.00000000000E+00 -0.00000000000E+00 -0.14389225108E+03  0.14389225108E+03  0.00000000000E+00 0.  1.
        -13    1    1    2    0    0 -0.34604870365E+02 -0.26043142732E+01 -0.10227573818E+03  0.10800285779E+03  0.10566000000E+00 0.  1.
         13    1    1    2    0    0  0.23040343442E+02  0.14703145243E+02  0.15180256643E+03  0.15424354199E+03  0.10566000000E+00 0. -1.
         -4    1    1    2    0  502  0.11564526923E+02 -0.12098830970E+02 -0.35666614033E+02  0.39398316593E+02  0.00000000000E+00 0. -1.
</event>
<event>
 5    1  0.6336319E-005  0.4561467E+03  0.7818608E-02  0.1026975E+00
          4   -1    0    0  502    0 -0.00000000000E+00  0.00000000000E+00  0.84021467619E+03  0.84021467619E+03  0.00000000000E+00 0.  1.
         21   -1    0    0  501  502  0.00000000000E+00 -0.00000000000E+00 -0.37666005952E+03  0.37666005952E+03  0.00000000000E+00 0.  1.
        -13    1    1    2    0    0  0.45248438858E+03  0.10171758497E+03 -0.91034676579E+02  0.47262661003E+03  0.10566000000E+00 0.  1.
         13    1    1    2    0    0 -0.20519407928E+02 -0.40894315775E+02  0.12026621460E+03  0.12867542385E+03  0.10566000000E+00 0. -1.
          4    1    1    2  501    0 -0.43196498065E+03 -0.60823269193E+02  0.43432307865E+03  0.61557270183E+03  0.00000000000E+00 0.  1.
</event>
<event>
 5    1  0.6336319E-005  0.3525218E+03  0.7818608E-02  0.1048601E+00
         -4   -1    0    0    0  501 -0.00000000000E+00  0.00000000000E+00  0.11626427816E+04  0.11626427816E+04  0.00000000000E+00 0. -1.
         21   -1    0    0  501  502  0.00000000000E+00 -0.00000000000E+00 -0.27012410438E+03  0.27012410438E+03  0.00000000000E+00 0. -1.
        -13    1    1    2    0    0 -0.38971115294E+02 -0.33397662907E+02  0.24920314207E+03  0.25443342724E+03  0.10566000000E+00 0.  1.
         13    1    1    2    0    0  0.31624629075E+03 -0.16211170149E+03 -0.93233235648E+02  0.36740218775E+03  0.10566000000E+00 0. -1.
         -4    1    1    2    0  502 -0.27727517546E+03  0.19550936439E+03  0.73654877084E+03  0.81093127102E+03  0.00000000000E+00 0. -1.
</event>
<event>
 5    1  0.6336319E-005  0.2407430E+03  0.7818608E-02  0.1087057E+00
         21   -1    0    0  501  502  0.00000000000E+00  0.00000000000E+00  0.90143213079E+02  0.90143213079E+02  0.00000000000E+00 0. -1.
         -4   -1    0    0    0  501 -0.00000000000E+00 -0.00000000000E+00 -0.12757148345E+04  0.12757148345E+04  0.00000000000E+00 0. -1.
        -13    1    1    2    0    0 -0.48218990744E+02 -0.22762245816E+02  0.33738692277E+01  0.53428317030E+02  0.10566000000E+00 0.  1.
         13    1    1    2    0    0  0.23705897979E+03 -0.11539674898E+03 -0.91465784772E+03  0.95189934296E+03  0.10566000000E+00 0. -1.
         -4    1    1    2    0  502 -0.18883998905E+03  0.13815899480E+03 -0.27428764292E+03  0.36053038758E+03  0.00000000000E+00 0. -1.
</event>
<event>
 5    1  0.6336319E-005  0.4745519E+03  0.7818608E-02  0.9635511E-01
         21   -1    0    0  501  502  0.00000000000E+00  0.00000000000E+00  0.52023927389E+03  0.52023927389E+03  0.00000000000E+00 0.  1.
          4   -1    0    0  502    0 -0.00000000000E+00 -0.00000000000E+00 -0.19523670161E+04  0.19523670161E+04  0.00000000000E+00 0.  1.
        -13    1    1    2    0    0 -0.46005930733E+03 -0.33587589932E+02  0.11675555018E+03  0.47583039217E+03  0.10566000000E+00 0.  1.
         13    1    1    2    0    0 -0.31150129496E+02  0.33073299457E+03 -0.13483473727E+04  0.13886667321E+04  0.10566000000E+00 0. -1.
          4    1    1    2  501    0  0.49120943682E+03 -0.29714540464E+03 -0.20053591969E+03  0.60810916570E+03  0.00000000000E+00 0.  1.
</event>
<event>
 5    1  0.6336319E-005  0.1558400E+03  0.7818608E-02  0.1095491E+00
         -4   -1    0    0    0  501 -0.00000000000E+00  0.00000000000E+00  0.44698490634E+02  0.44698490634E+02  0.00000000000E+00 0. -1.
         21   -1    0    0  501  502  0.00000000000E+00 -0.00000000000E+00 -0.10140848215E+04  0.10140848215E+04  0.00000000000E+00 0.  1.
        -13    1    1    2    0    0  0.12684909847E+02  0.15504636198E+03 -0.14757764564E+03  0.21442820234E+03  0.10566000000E+00 0.  1.
         13    1    1    2    0    0 -0.46455290583E+02 -0.15279879941E+03 -0.66042376451E+03  0.67945943736E+03  0.10566000000E+00 0. -1.
         -4    1    1    2    0  502  0.33770380736E+02 -0.22475625734E+01 -0.16138492068E+03  0.16489567240E+03  0.00000000000E+00 0. -1.
</event>
<event>
 5    1  0.6336319E-005  0.4899213E+03  0.7818608E-02  0.9500340E-01
         -4   -1    0    0    0  501 -0.00000000000E+00  0.00000000000E+00  0.14665133457E+04  0.14665133457E+04  0.00000000000E+00 0. -1.
         21   -1    0    0  501  502  0.00000000000E+00 -0.00000000000E+00 -0.36875816913E+03  0.36875816913E+03  0.00000000000E+00 0. -1.
        -13    1    1    2    0    0 -0.16980389879E+03 -0.35179684195E+03  0.37748120640E+03  0.54321860646E+03  0.10566000000E+00 0.  1.
         13    1    1    2    0    0  0.47468199442E+03  0.52758454783E+03  0.56617678529E+03  0.90786817011E+03  0.10566000000E+00 0. -1.
         -4    1    1    2    0  502 -0.30487809562E+03 -0.17578770587E+03  0.15409718489E+03  0.38418473827E+03  0.00000000000E+00 0. -1.
</event>
<event>
 5    1  0.6336319E-005  0.4826824E+03  0.7818608E-02  0.9524400E-01
          4   -1    0    0  502    0 -0.00000000000E+00  0.00000000000E+00  0.75461199905E+03  0.75461199905E+03  0.00000000000E+00 0.  1.
         21   -1    0    0  501  502  0.00000000000E+00 -0.00000000000E+00 -0.10205004462E+04  0.10205004462E+04  0.00000000000E+00 0.  1.
        -13    1    1    2    0    0 -0.16320992652E+03 -0.15760486475E+03  0.14083808812E+03  0.26704335179E+03  0.10566000000E+00 0.  1.
         13    1    1    2    0    0 -0.46763111319E+03 -0.42077945012E+02  0.28626701180E+03  0.54990746920E+03  0.10566000000E+00 0. -1.
          4    1    1    2  501    0  0.63084103971E+03  0.19968280976E+03 -0.69299354704E+03  0.95816162422E+03  0.00000000000E+00 0.  1.
</event>
<event>
 5    1  0.6336319E-005  0.4878700E+03  0.7818608E-02  0.9610137E-01
         -4   -1    0    0    0  501 -0.00000000000E+00  0.00000000000E+00  0.18127516273E+04  0.18127516273E+04  0.00000000000E+00 0. -1.
         21   -1    0    0  501  502  0.00000000000E+00 -0.00000000000E+00 -0.25822011157E+03  0.25822011157E+03  0.00000000000E+00 0.  1.
        -13    1    1    2    0    0 -0.48953942485E+02 -0.33085899450E+03  0.39208091063E+03  0.51535581337E+03  0.10566000000E+00 0.  1.
         13    1    1    2    0    0  0.26997944112E+03 -0.24554998237E+03  0.68144368412E+03  0.77301306474E+03  0.10566000000E+00 0. -1.
         -4    1    1    2    0  502 -0.22102549863E+03  0.57640897687E+03  0.48100692101E+03  0.78260286079E+03  0.00000000000E+00 0. -1.
</event>
<event>
 5    1  0.6336319E-005  0.2953650E+03  0.7818608E-02  0.1012905E+00
         21   -1    0    0  501  502  0.00000000000E+00  0.00000000000E+00  0.18379099245E+03  0.18379099245E+03  0.00000000000E+00 0. -1.
         -4   -1    0    0    0  501 -0.00000000000E+00 -0.00000000000E+00 -0.25867029839E+04  0.25867029839E+04  0.00000000000E+00 0. -1.
        -13    1    1    2    0    0 -0.23602481879E+03  0.11508264575E+03 -0.95434679090E+03  0.98981288075E+03  0.10566000000E+00 0.  1.
         13    1    1    2    0    0  0.45162955973E+03 -0.27851378379E+03 -0.14110894547E+04  0.15075518721E+04  0.10566000000E+00 0. -1.
         -4    1    1    2    0  502 -0.21560474094E+03  0.16343113804E+03 -0.37475745926E+02  0.27312922350E+03  0.00000000000E+00 0. -1.
</event>
<event>
 5    1  0.6336319E-005  0.4856843E+03  0.7818608E-02  0.9829706E-01
         -4   -1    0    0    0  501 -0.00000000000E+00  0.00000000000E+00  0.10632061061E+04  0.10632061061E+04  0.00000000000E+00 0. -1.
         21   -1    0    0  501  502  0.00000000000E+00 -0.00000000000E+00 -0.40819880297E+03  0.40819880297E+03  0.00000000000E+00 0. -1.
        -13    1    1    2    0    0  0.85170112683E+02  0.13336323226E+03  0.36474029416E+03  0.39758671150E+03  0.10566000000E+00 0.  1.
         13    1    1    2    0    0  0.40005802515E+03  0.80283945472E+02  0.35351957647E+03  0.53987779867E+03  0.10566000000E+00 0. -1.
         -4    1    1    2    0  502 -0.48522813783E+03 -0.21364717773E+03 -0.63252567488E+02  0.53394039891E+03  0.00000000000E+00 0. -1.
</event>
<event>
 5    1  0.6336319E-005  0.3600314E+03  0.7818608E-02  0.1001436E+00
          4   -1    0    0  502    0 -0.00000000000E+00  0.00000000000E+00  0.95458676925E+03  0.95458676925E+03  0.00000000000E+00 0.  1.
         21   -1    0    0  501  502  0.00000000000E+00 -0.00000000000E+00 -0.39238218051E+03  0.39238218051E+03  0.00000000000E+00 0.  1.
        -13    1    1    2    0    0 -0.21271177712E+03  0.97967859055E+02  0.62840555693E+03  0.67062475102E+03  0.10566000000E+00 0.  1.
         13    1    1    2    0    0 -0.17471046764E+03 -0.11656694179E+03  0.12447369543E+03  0.24414199032E+03  0.10566000000E+00 0. -1.
          4    1    1    2  501    0  0.38742224476E+03  0.18599082737E+02 -0.19067466362E+03  0.43220220841E+03  0.00000000000E+00 0.  1.
</event>
<event>
 5    1  0.6336319E-005  0.2258726E+03  0.7818608E-02  0.1051043E+00
         -4   -1    0    0    0  501 -0.00000000000E+00  0.00000000000E+00  0.45674587066E+03  0.45674587066E+03  0.00000000000E+00 0. -1.
         21   -1    0    0  501  502  0.00000000000E+00 -0.00000000000E+00 -0.67475393821E+03  0.67475393821E+03  0.00000000000E+00 0. -1.
        -13    1    1    2    0    0  0.69680133010E+02  0.16752568461E+03  0.11044308540E+03  0.21240965660E+03  0.10566000000E+00 0.  1.
         13    1    1    2    0    0  0.16215728549E+03 -0.16455755098E+03 -0.55114596499E+03  0.59760861666E+03  0.10566000000E+00 0. -1.
         -4    1    1    2    0  502 -0.23183741850E+03 -0.29681336309E+01  0.22269481204E+03  0.32148153562E+03  0.00000000000E+00 0. -1.
</event>
<event>
 5    1  0.6336319E-005  0.6009559E+02  0.7818608E-02  0.1255395E+00
          4   -1    0    0  502    0 -0.00000000000E+00  0.00000000000E+00  0.34796154507E+03  0.34796154507E+03  0.00000000000E+00 0.  1.
         21   -1    0    0  501  502  0.00000000000E+00 -0.00000000000E+00 -0.33043642455E+02  0.33043642455E+02  0.00000000000E+00 0.  1.
        -13    1    1    2    0    0 -0.20482054648E+01  0.58462297696E+02  0.21832663706E+03  0.22602780141E+03  0.10566000000E+00 0.  1.
         13    1    1    2    0    0  0.14661237277E+02 -0.62689816954E+02  0.11527887621E+03  0.13203861364E+03  0.10566000000E+00 0. -1.
          4    1    1    2  501    0 -0.12613031813E+02  0.42275192585E+01 -0.18687610653E+02  0.22938772472E+02  0.00000000000E+00 0.  1.
</event>
<event>
 5    1  0.6336319E-005  0.2900352E+03  0.7818608E-02  0.1011506E+00
         -4   -1    0    0    0  501 -0.00000000000E+00  0.00000000000E+00  0.11269627957E+04  0.11269627957E+04  0.00000000000E+00 0. -1.
         21   -1    0    0  501  502  0.00000000000E+00 -0.00000000000E+00 -0.83517907925E+03  0.83517907925E+03  0.00000000000E+00 0. -1.
        -13    1    1    2    0    0 -0.24244861761E+03 -0.13283873276E+03  0.77700058993E+03  0.82471655071E+03  0.10566000000E+00 0.  1.
         13    1    1    2    0    0  0.43482045405E+03 -0.29814100056E+02  0.14451350651E+03  0.45917520899E+03  0.10566000000E+00 0. -1.
         -4    1    1    2    0  502 -0.19237183644E+03  0.16265283282E+03 -0.62973037994E+03  0.67825011529E+03  0.00000000000E+00 0. -1.
</event>
<event>
 5    1  0.6336319E-005  0.4912087E+03  0.7818608E-02  0.9595352E-01
         -4   -1    0    0    0  501 -0.00000000000E+00  0.00000000000E+00  0.22391241404E+04  0.22391241404E+04  0.00000000000E+00 0. -1.
         21   -1    0    0  501  502  0.00000000000E+00 -0.00000000000E+00 -0.22578086750E+03  0.22578086750E+03  0.00000000000E+00 0. -1.
        -13    1    1    2    0    0 -0.33782248110E+03 -0.71820307921E+02  0.29543384162E+03  0.45449241061E+03  0.10566000000E+00 0.  1.
         13    1    1    2    0    0  0.45878068312E+03 -0.35334449711E+03  0.76039059508E+03  0.95578549742E+03  0.10566000000E+00 0. -1.
         -4    1    1    2    0  502 -0.12095820202E+03  0.42516480503E+03  0.95751883620E+03  0.10546270999E+04  0.00000000000E+00 0. -1.
</event>
<event>
 5    1  0.6336319E-005  0.5024037E+03  0.7818608E-02  0.9472719E-01
         21   -1    0    0  501  502  0.00000000000E+00  0.00000000000E+00  0.24754816498E+03  0.24754816498E+03  0.00000000000E+00 0.  1.
         -4   -1    0    0    0  501 -0.00000000000E+00 -0.00000000000E+00 -0.13881827879E+04  0.13881827879E+04  0.00000000000E+00 0. -1.
        -13    1    1    2    0    0  0.37311185805E+03 -0.22405893324E+03 -0.26617409310E+03  0.51016029165E+03  0.10566000000E+00 0.  1.
         13    1    1    2    0    0 -0.42787865374E+03  0.34879471040E+03 -0.79498645843E+03  0.96785400375E+03  0.10566000000E+00 0. -1.
         -4    1    1    2    0  502  0.54766795687E+02 -0.12473577716E+03 -0.79474071368E+02  0.15771665744E+03  0.00000000000E+00 0. -1.
</event>
<event>
 5    1  0.6336319E-005  0.2059462E+02  0.7818608E-02  0.1515021E+00
          4   -1    0    0  502    0 -0.00000000000E+00  0.00000000000E+00  0.11529231077E+03  0.11529231077E+03  0.00000000000E+00 0.  1.
         21   -1    0    0  501  502  0.00000000000E+00 -0.00000000000E+00 -0.14217941523E+02  0.14217941523E+02  0.00000000000E+00 0.  1.
        -13    1    1    2    0    0  0.28597607629E+02 -0.85643349549E+00  0.73359971005E+02  0.78741686230E+02  0.10566000000E+00 0.  1.
         13    1    1    2    0    0 -0.12663971573E+02 -0.11355903702E+02  0.25386781326E+02  0.30558673973E+02  0.10566000000E+00 0. -1.
          4    1    1    2  501    0 -0.15933636056E+02  0.12212337197E+02  0.23276169155E+01  0.20209892090E+02  0.00000000000E+00 0.  1.
</event>
<event>
 5    1  0.6336319E-005  0.1891451E+03  0.7818608E-02  0.1068923E+00
          4   -1    0    0  502    0 -0.00000000000E+00  0.00000000000E+00  0.26509158399E+03  0.26509158399E+03  0.00000000000E+00 0.  1.
         21   -1    0    0  501  502  0.00000000000E+00 -0.00000000000E+00 -0.12989278686E+04  0.12989278686E+04  0.00000000000E+00 0.  1.
        -13    1    1    2    0    0  0.14510405602E+03  0.11628969490E+03 -0.98155955110E+03  0.99901834004E+03  0.10566000000E+00 0.  1.
         13    1    1    2    0    0 -0.42625096932E+02  0.17834742206E+03 -0.15127825485E+03  0.23771794926E+03  0.10566000000E+00 0. -1.
          4    1    1    2  501    0 -0.10247895909E+03 -0.29463711697E+03  0.99001521337E+02  0.32728316329E+03  0.00000000000E+00 0.  1.
</event>
<event>
 5    1  0.6336319E-005  0.4082293E+03  0.7818608E-02  0.9966168E-01
         21   -1    0    0  501  502  0.00000000000E+00  0.00000000000E+00  0.24881023312E+03  0.24881023312E+03  0.00000000000E+00 0.  1.
          4   -1    0    0  502    0 -0.00000000000E+00 -0.00000000000E+00 -0.14131192789E+04  0.14131192789E+04  0.00000000000E+00 0.  1.
        -13    1    1    2    0    0 -0.28409943005E+03 -0.18554188399E+03 -0.92571328855E+03  0.98594288913E+03  0.10566000000E+00 0.  1.
         13    1    1    2    0    0 -0.13827429831E+03  0.96777816370E+02 -0.16893941880E+03  0.23880172885E+03  0.10566000000E+00 0. -1.
          4    1    1    2  501    0  0.42237372836E+03  0.88764067624E+02 -0.69656338460E+02  0.43718489406E+03  0.00000000000E+00 0.  1.
</event>
<event>
 5    1  0.6336319E-005  0.2092005E+03  0.7818608E-02  0.1054005E+00
         21   -1    0    0  501  502  0.00000000000E+00  0.00000000000E+00  0.13332909380E+03  0.13332909380E+03  0.00000000000E+00 0. -1.
          4   -1    0    0  502    0 -0.00000000000E+00 -0.00000000000E+00 -0.55620460061E+03  0.55620460061E+03  0.00000000000E+00 0.  1.
        -13    1    1    2    0    0 -0.80326446973E+02  0.18282373722E+03 -0.33613452313E+03  0.39097734689E+03  0.10566000000E+00 0.  1.
         13    1    1    2    0    0  0.75150365069E+02 -0.22718121258E+03 -0.84751108123E+02  0.25385358420E+03  0.10566000000E+00 0. -1.
          4    1    1    2  501    0  0.51760819035E+01  0.44357475361E+02 -0.19898755524E+01  0.44702763326E+02  0.00000000000E+00 0.  1.
</event>
<event>
 5    1  0.6336319E-005  0.6151967E+02  0.7818608E-02  0.1250908E+00
         -4   -1    0    0    0  501 -0.00000000000E+00  0.00000000000E+00  0.70222231288E+02  0.70222231288E+02  0.00000000000E+00 0. -1.
         21   -1    0    0  501  502  0.00000000000E+00 -0.00000000000E+00 -0.11424087317E+03  0.11424087317E+03  0.00000000000E+00 0.  1.
        -13    1    1    2    0    0  0.48331076308E+02  0.38240720364E+02 -0.47640071596E+02  0.77896297838E+02  0.10566000000E+00 0.  1.
         13    1    1    2    0    0 -0.62682594964E+02 -0.10210385996E+02  0.25271037964E+02  0.68352002293E+02  0.10566000000E+00 0. -1.
         -4    1    1    2    0  502  0.14351518655E+02 -0.28030334368E+02 -0.21649608252E+02  0.38214804330E+02  0.00000000000E+00 0. -1.
</event>
<event>
 5    1  0.6336319E-005  0.2132357E+03  0.7818608E-02  0.1051422E+00
          4   -1    0    0  502    0 -0.00000000000E+00  0.00000000000E+00  0.30335930375E+03  0.30335930375E+03  0.00000000000E+00 0.  1.
         21   -1    0    0  501  502  0.00000000000E+00 -0.00000000000E+00 -0.26270559353E+03  0.26270559353E+03  0.00000000000E+00 0. -1.
        -13    1    1    2    0    0 -0.37660412962E+02 -0.21772804416E+03  0.17481271442E+03  0.28175042894E+03  0.10566000000E+00 0.  1.
         13    1    1    2    0    0  0.30324114987E+02  0.19211462928E+03 -0.56982947174E+02  0.20266881893E+03  0.10566000000E+00 0. -1.
          4    1    1    2  501    0  0.73362979745E+01  0.25613414883E+02 -0.77176057025E+02  0.81645649412E+02  0.00000000000E+00 0.  1.
</event>
<event>
 5    1  0.6336319E-005  0.5089074E+03  0.7818608E-02  0.9855420E-01
         21   -1    0    0  501  502  0.00000000000E+00  0.00000000000E+00  0.41330525514E+03  0.41330525514E+03  0.00000000000E+00 0. -1.
         -4   -1    0    0    0  501 -0.00000000000E+00 -0.00000000000E+00 -0.13759336863E+04  0.13759336863E+04  0.00000000000E+00 0. -1.
        -13    1    1    2    0    0  0.73663847884E+02 -0.10232775553E+03 -0.72120709850E+03  0.73214549246E+03  0.10566000000E+00 0.  1.
         13    1    1    2    0    0 -0.13273759209E+03 -0.45230820374E+03 -0.11067564218E+03  0.48420149572E+03  0.10566000000E+00 0. -1.
         -4    1    1    2    0  502  0.59073744202E+02  0.55463595927E+03 -0.13074569052E+03  0.57289195330E+03  0.00000000000E+00 0. -1.
</event>
<event>
 5    1  0.6336319E-005  0.2566884E+02  0.7818608E-02  0.1443489E+00
         21   -1    0    0  501  502  0.00000000000E+00  0.00000000000E+00  0.49676073513E+02  0.49676073513E+02  0.00000000000E+00 0.  1.
          4   -1    0    0  502    0 -0.00000000000E+00 -0.00000000000E+00 -0.79477218965E+02  0.79477218965E+02  0.00000000000E+00 0.  1.
        -13    1    1    2    0    0 -0.12815229119E+02  0.24506199650E+02 -0.69083522657E+02  0.74413225877E+02  0.10566000000E+00 0.  1.
         13    1    1    2    0    0  0.11602599383E+02 -0.13267642886E+02  0.45341301987E+01  0.18199454962E+02  0.10566000000E+00 0. -1.
          4    1    1    2  501    0  0.12126297358E+01 -0.11238556763E+02  0.34748247006E+02  0.36540611640E+02  0.00000000000E+00 0.  1.
</event>
<event>
 5    1  0.6336319E-005  0.8707895E+02  0.7818608E-02  0.1187908E+00
         21   -1    0    0  501  502  0.00000000000E+00  0.00000000000E+00  0.67583307517E+03  0.67583307517E+03  0.00000000000E+00 0. -1.
         -4   -1    0    0    0  501 -0.00000000000E+00 -0.00000000000E+00 -0.48580301968E+02  0.48580301968E+02  0.00000000000E+00 0. -1.
        -13    1    1    2    0    0  0.67605788144E+01 -0.91195935083E+02  0.14983604001E+03  0.17553704467E+03  0.10566000000E+00 0.  1.
         13    1    1    2    0    0 -0.30140409744E+02  0.81115834802E+02  0.17538694364E+02  0.88294053703E+02  0.10566000000E+00 0. -1.
         -4    1    1    2    0  502  0.23379830929E+02  0.10080100281E+02  0.45987803883E+03  0.46058227877E+03  0.00000000000E+00 0. -1.
</event>
<event>
 5    1  0.6336319E-005  0.8373737E+02  0.7818608E-02  0.1194686E+00
         21   -1    0    0  501  502  0.00000000000E+00  0.00000000000E+00  0.90460608421E+03  0.90460608421E+03  0.00000000000E+00 0.  1.
          4   -1    0    0  502    0 -0.00000000000E+00 -0.00000000000E+00 -0.16279122470E+03  0.16279122470E+03  0.00000000000E+00 0.  1.
        -13    1    1    2    0    0 -0.23016236852E+02  0.86404397887E+02 -0.12163805714E+03  0.15096786162E+03  0.10566000000E+00 0.  1.
         13    1    1    2    0    0 -0.18939345786E+02 -0.69679988813E+02  0.24484760301E+02  0.76246405232E+02  0.10566000000E+00 0. -1.
          4    1    1    2  501    0  0.41955582638E+02 -0.16724409074E+02  0.83896815636E+03  0.84018304205E+03  0.00000000000E+00 0.  1.
</event>
<event>
 5    1  0.6336319E-005  0.2869936E+03  0.7818608E-02  0.1028465E+00
         21   -1    0    0  501  502  0.00000000000E+00  0.00000000000E+00  0.33422769139E+03  0.33422769139E+03  0.00000000000E+00 0.  1.
          4   -1    0    0  502    0 -0.00000000000E+00 -0.00000000000E+00 -0.10777347830E+04  0.10777347830E+04  0.00000000000E+00 0.  1.
        -13    1    1    2    0    0 -0.41755941736E+03  0.15248579047E+03 -0.63556699612E+03  0.77559860820E+03  0.10566000000E+00 0.  1.
         13    1    1    2    0    0  0.16886813997E+03 -0.47444387323E+02 -0.26964327401E+03  0.32167518551E+03  0.10566000000E+00 0. -1.
          4    1    1    2  501    0  0.24869127739E+03 -0.10504140315E+03  0.16170317851E+03  0.31468868070E+03  0.00000000000E+00 0.  1.
</event>
<event>
 5    1  0.6336319E-005  0.1453067E+03  0.7818608E-02  0.1105835E+00
          4   -1    0    0  502    0 -0.00000000000E+00  0.00000000000E+00  0.10392427551E+04  0.10392427551E+04  0.00000000000E+00 0.  1.
         21   -1    0    0  501  502  0.00000000000E+00 -0.00000000000E+00 -0.38621126261E+03  0.38621126261E+03  0.00000000000E+00 0.  1.
        -13    1    1    2    0    0  0.51600407553E+02  0.77792546442E+02 -0.35907500520E+03  0.37101098753E+03  0.10566000000E+00 0.  1.
         13    1    1    2    0    0 -0.14883705521E+03  0.10762649266E+02  0.36910497111E+03  0.39812911785E+03  0.10566000000E+00 0. -1.
          4    1    1    2  501    0  0.97236647655E+02 -0.88555195708E+02  0.64300152660E+03  0.65631391235E+03  0.00000000000E+00 0.  1.
</event>
<event>
 5    1  0.6336319E-005  0.5068389E+03  0.7818608E-02  0.9579847E-01
         -4   -1    0    0    0  501 -0.00000000000E+00  0.00000000000E+00  0.19303316726E+04  0.19303316726E+04  0.00000000000E+00 0. -1.
         21   -1    0    0  501  502  0.00000000000E+00 -0.00000000000E+00 -0.62401808034E+03  0.62401808034E+03  0.00000000000E+00 0. -1.
        -13    1    1    2    0    0 -0.25099127808E+02 -0.33132220656E+03  0.14303128213E+04  0.14684002005E+04  0.10566000000E+00 0.  1.
         13    1    1    2    0    0 -0.47040006294E+03  0.44227942075E+02  0.77666407961E+02  0.47881563484E+03  0.10566000000E+00 0. -1.
         -4    1    1    2    0  502  0.49549919075E+03  0.28709426448E+03 -0.20166563705E+03  0.60713391760E+03  0.00000000000E+00 0. -1.
</event>
<event>
 5    1  0.6336319E-005  0.4217708E+03  0.7818608E-02  0.9668196E-01
          4   -1    0    0  502    0 -0.00000000000E+00  0.00000000000E+00  0.17985551130E+04  0.17985551130E+04  0.00000000000E+00 0.  1.
         21   -1    0    0  501  502  0.00000000000E+00 -0.00000000000E+00 -0.36719261880E+03  0.36719261880E+03  0.00000000000E+00 0. -1.
        -13    1    1    2    0    0  0.25043459413E+03 -0.34325533809E+03 -0.78895627108E+02  0.43216460314E+03  0.10566000000E+00 0.  1.
         13    1    1    2    0    0 -0.24070592366E+03  0.34594364019E+03  0.15942358605E+04  0.16490010109E+04  0.10566000000E+00 0. -1.
          4    1    1    2  501    0 -0.97286704726E+01 -0.26883021076E+01 -0.83977739096E+02  0.84582117856E+02  0.00000000000E+00 0.  1.
</event>
<event>
 5    1  0.6336319E-005  0.4658258E+03  0.7818608E-02  0.9556194E-01
         -4   -1    0    0    0  501 -0.00000000000E+00  0.00000000000E+00  0.21065957421E+04  0.21065957421E+04  0.00000000000E+00 0. -1.
         21   -1    0    0  501  502  0.00000000000E+00 -0.00000000000E+00 -0.39171750792E+03  0.39171750792E+03  0.00000000000E+00 0. -1.
        -13    1    1    2    0    0 -0.37456350877E+03  0.27567919174E+03  0.11998434517E+04  0.12868260017E+04  0.10566000000E+00 0.  1.
         13    1    1    2    0    0  0.39181732008E+03 -0.26352524701E+03 -0.18792209456E+03  0.50821362921E+03  0.10566000000E+00 0. -1.
         -4    1    1    2    0  502 -0.17253811314E+02 -0.12153944731E+02  0.70295687699E+03  0.70327361908E+03  0.00000000000E+00 0. -1.
</event>
<event>
 5    1  0.6336319E-005  0.1684948E+02  0.7818608E-02  0.1570714E+00
         21   -1    0    0  501  502  0.00000000000E+00  0.00000000000E+00  0.17834089899E+02  0.17834089899E+02  0.00000000000E+00 0.  1.
          4   -1    0    0  502    0 -0.00000000000E+00 -0.00000000000E+00 -0.54760170283E+02  0.54760170283E+02  0.00000000000E+00 0.  1.
        -13    1    1    2    0    0  0.33555086015E+01  0.21204133130E+02 -0.35117480968E+02  0.41159729510E+02  0.10566000000E+00 0.  1.
         13    1    1    2    0    0  0.96879623111E+01 -0.10681838312E+02  0.94120051512E+00  0.14451827079E+02  0.10566000000E+00 0. -1.
          4    1    1    2  501    0 -0.13043470913E+02 -0.10522294817E+02 -0.27497999305E+01  0.16982703593E+02  0.00000000000E+00 0.  1.
</event>
<event>
 5    1  0.6336319E-005  0.6759890E+02  0.7818608E-02  0.1233172E+00
          4   -1    0    0  502    0 -0.00000000000E+00  0.00000000000E+00  0.36620845407E+02  0.36620845407E+02  0.00000000000E+00 0.  1.
         21   -1    0    0  501  502  0.00000000000E+00 -0.00000000000E+00 -0.25427720524E+03  0.25427720524E+03  0.00000000000E+00 0.  1.
        -13    1    1    2    0    0  0.11071102523E+02  0.73232608911E+02 -0.32697669722E+02  0.80961306118E+02  0.10566000000E+00 0.  1.
         13    1    1    2    0    0 -0.21520112228E+02 -0.55746378952E+02 -0.65132149246E+02  0.88391074357E+02  0.10566000000E+00 0. -1.
          4    1    1    2  501    0  0.10449009705E+02 -0.17486229959E+02 -0.11982654087E+03  0.12154567018E+03  0.00000000000E+00 0.  1.
</event>
<event>
 5    1  0.6336319E-005  0.5048999E+03  0.7818608E-02  0.9730526E-01
         -4   -1    0    0    0  501 -0.00000000000E+00  0.00000000000E+00  0.28054711045E+03  0.28054711045E+03  0.00000000000E+00 0. -1.
         21   -1    0    0  501  502  0.00000000000E+00 -0.00000000000E+00 -0.13798084640E+04  0.13798084640E+04  0.00000000000E+00 0.  1.
        -13    1    1    2    0    0 -0.13198485849E+03 -0.14743102296E+03 -0.88556881830E+02  0.21679077906E+03  0.10566000000E+00 0.  1.
         13    1    1    2    0    0  0.56127751491E+03 -0.65950949135E+01 -0.67126281310E+03  0.87502555359E+03  0.10566000000E+00 0. -1.
         -4    1    1    2    0  502 -0.42929265642E+03  0.15402611787E+03 -0.33944165858E+03  0.56853924176E+03  0.00000000000E+00 0. -1.
</event>
<event>
 5    1  0.6336319E-005  0.4148512E+03  0.7818608E-02  0.9882751E-01
          4   -1    0    0  502    0 -0.00000000000E+00  0.00000000000E+00  0.62615471903E+03  0.62615471903E+03  0.00000000000E+00 0.  1.
         21   -1    0    0  501  502  0.00000000000E+00 -0.00000000000E+00 -0.69520956461E+03  0.69520956461E+03  0.00000000000E+00 0.  1.
        -13    1    1    2    0    0 -0.48034557108E+03  0.19433815105E+03  0.11670420056E+03  0.53114881738E+03  0.10566000000E+00 0.  1.
         13    1    1    2    0    0  0.19688719940E+03  0.79402043084E+02  0.16010673633E+03  0.26590116945E+03  0.10566000000E+00 0. -1.
          4    1    1    2  501    0  0.28345837168E+03 -0.27374019414E+03 -0.34586578246E+03  0.52431429681E+03  0.00000000000E+00 0.  1.
</event>
<event>
 5    1  0.6336319E-005  0.1033818E+03  0.7818608E-02  0.1159078E+00
         21   -1    0    0  501  502  0.00000000000E+00  0.00000000000E+00  0.22054135990E+03  0.22054135990E+03  0.00000000000E+00 0.  1.
          4   -1    0    0  502    0 -0.00000000000E+00 -0.00000000000E+00 -0.19913423889E+03  0.19913423889E+03  0.00000000000E+00 0.  1.
        -13    1    1    2    0    0 -0.84513621909E+02  0.80045650574E+02 -0.13973970087E+03  0.18187098072E+03  0.10566000000E+00 0.  1.
         13    1    1    2    0    0  0.76682386982E+02 -0.22724637079E+02  0.16014622427E+02  0.81566395649E+02  0.10566000000E+00 0. -1.
          4    1    1    2  501    0  0.78312349274E+01 -0.57321013495E+02  0.14513219946E+03  0.15623822243E+03  0.00000000000E+00 0.  1.
</event>
<event>
 5    1  0.6336319E-005  0.3103864E+03  0.7818608E-02  0.1003108E+00
         21   -1    0    0  501  502  0.00000000000E+00  0.00000000000E+00  0.15653793387E+03  0.15653793387E+03  0.00000000000E+00 0.  1.
         -4   -1    0    0    0  501 -0.00000000000E+00 -0.00000000000E+00 -0.16427199044E+04  0.16427199044E+04  0.00000000000E+00 0. -1.
        -13    1    1    2    0    0  0.14965233260E+03  0.21592135153E+03 -0.13296538489E+03  0.29444465599E+03  0.10566000000E+00 0.  1.
         13    1    1    2    0    0 -0.16467455411E+03 -0.27588037465E+03 -0.13941391005E+04  0.14306821914E+04  0.10566000000E+00 0. -1.
         -4    1    1    2    0  502  0.15022221515E+02  0.59959023121E+02  0.40922514874E+02  0.74130990932E+02  0.00000000000E+00 0. -1.
</event>
<event>
 5    1  0.6336319E-005  0.1115500E+03  0.7818608E-02  0.1146742E+00
         21   -1    0    0  501  502  0.00000000000E+00  0.00000000000E+00  0.22785445293E+02  0.22785445293E+02  0.00000000000E+00 0. -1.
         -4   -1    0    0    0  501 -0.00000000000E+00 -0.00000000000E+00 -0.95026820299E+03  0.95026820299E+03  0.00000000000E+00 0. -1.
        -13    1    1    2    0    0 -0.91935870826E+02 -0.38179505698E+02 -0.27340749404E+03  0.29096657534E+03  0.10566000000E+00 0.  1.
         13    1    1    2    0    0  0.11427920143E+03  0.33935925469E+02 -0.64754288684E+03  0.65842477504E+03  0.10566000000E+00 0. -1.
         -4    1    1    2    0  502 -0.22343330604E+02  0.42435802282E+01 -0.65323768107E+01  0.23662297911E+02  0.00000000000E+00 0. -1.
</event>
<event>
 5    1  0.6336319E-005  0.3811554E+03  0.7818608E-02  0.9815393E-01
         -4   -1    0    0    0  501 -0.00000000000E+00  0.00000000000E+00  0.10804611654E+04  0.10804611654E+04  0.00000000000E+00 0. -1.
         21   -1    0    0  501  502  0.00000000000E+00 -0.00000000000E+00 -0.56855995489E+03  0.56855995489E+03  0.00000000000E+00 0. -1.
        -13    1    1    2    0    0 -0.32547662304E+03 -0.23488337432E+03  0.43178683014E+03  0.58952956628E+03  0.10566000000E+00 0.  1.
         13    1    1    2    0    0 -0.88942232649E+02  0.22250652793E+03  0.44615036300E+03  0.50642870504E+03  0.10566000000E+00 0. -1.
         -4    1    1    2    0  502  0.41441885569E+03  0.12376846394E+02 -0.36603598266E+03  0.55306284894E+03  0.00000000000E+00 0. -1.
</event>
<event>
 5    1  0.6336319E-005  0.2187302E+03  0.7818608E-02  0.1100501E+00
         21   -1    0    0  501  502  0.00000000000E+00  0.00000000000E+00  0.34195927352E+03  0.34195927352E+03  0.00000000000E+00 0. -1.
         -4   -1    0    0    0  501 -0.00000000000E+00 -0.00000000000E+00 -0.19926375720E+03  0.19926375720E+03  0.00000000000E+00 0. -1.
        -13    1    1    2    0    0 -0.36139636855E+02 -0.33360165435E+02 -0.46936249864E+01  0.49406631836E+02  0.10566000000E+00 0.  1.
         13    1    1    2    0    0 -0.79201258287E+02 -0.18803410668E+03  0.12923645974E+03  0.24151964367E+03  0.10566000000E+00 0. -1.
         -4    1    1    2    0  502  0.11534089514E+03  0.22139427212E+03  0.18152681560E+02  0.25029675521E+03  0.00000000000E+00 0. -1.
</event>
<event>
 5    1  0.6336319E-005  0.5580961E+02  0.7818608E-02  0.1269787E+00
         -4   -1    0    0    0  501 -0.00000000000E+00  0.00000000000E+00  0.46626021988E+02  0.46626021988E+02  0.00000000000E+00 0. -1.
         21   -1    0    0  501  502  0.00000000000E+00 -0.00000000000E+00 -0.22881813778E+03  0.22881813778E+03  0.00000000000E+00 0.  1.
        -13    1    1    2    0    0 -0.28453414440E+02  0.33667131000E+02 -0.17690319443E+03  0.18231243476E+03  0.10566000000E+00 0.  1.
         13    1    1    2    0    0  0.20581108847E+02 -0.53602798876E+02  0.19241503788E+02  0.60556491979E+02  0.10566000000E+00 0. -1.
         -4    1    1    2    0  502  0.78723055938E+01  0.19935667876E+02 -0.24530425147E+02  0.32575233029E+02  0.00000000000E+00 0. -1.
</event>
<event>
 5    1  0.6336319E-005  0.3797422E+02  0.7818608E-02  0.1350344E+00
          4   -1    0    0  502    0 -0.00000000000E+00  0.00000000000E+00  0.54001039980E+02  0.54001039980E+02  0.00000000000E+00 0.  1.
         21   -1    0    0  501  502  0.00000000000E+00 -0.00000000000E+00 -0.46521472809E+03  0.46521472809E+03  0.00000000000E+00 0.  1.
        -13    1    1    2    0    0  0.32987687080E+02 -0.17943770871E+02  0.43797299146E+02  0.57692122412E+02  0.10566000000E+00 0.  1.
         13    1    1    2    0    0 -0.49143970325E+02  0.18703722962E+02 -0.23009545104E+03  0.23602730101E+03  0.10566000000E+00 0. -1.
          4    1    1    2  501    0  0.16156283245E+02 -0.75995209071E+00 -0.22491553622E+03  0.22549634464E+03  0.00000000000E+00 0.  1.
</event>
<event>
 5    1  0.6336319E-005  0.4267935E+03  0.7818608E-02  0.1022967E+00
         21   -1    0    0  501  502  0.00000000000E+00  0.00000000000E+00  0.45015615848E+03  0.45015615848E+03  0.00000000000E+00 0.  1.
          4   -1    0    0  502    0 -0.00000000000E+00 -0.00000000000E+00 -0.68764721653E+03  0.68764721653E+03  0.00000000000E+00 0.  1.
        -13    1    1    2    0    0  0.42949913748E+03  0.10328061495E+03  0.22319963490E+03  0.49492876529E+03  0.10566000000E+00 0.  1.
         13    1    1    2    0    0 -0.59343797457E+02 -0.22035694984E+02 -0.10797953558E+03  0.12516728573E+03  0.10566000000E+00 0. -1.
          4    1    1    2  501    0 -0.37015534003E+03 -0.81244919971E+02 -0.35271115738E+03  0.51770732399E+03  0.00000000000E+00 0.  1.
</event>
<event>
 5    1  0.6336319E-005  0.2965058E+03  0.7818608E-02  0.1008758E+00
         21   -1    0    0  501  502  0.00000000000E+00  0.00000000000E+00  0.33127886692E+03  0.33127886692E+03  0.00000000000E+00 0.  1.
         -4   -1    0    0    0  501 -0.00000000000E+00 -0.00000000000E+00 -0.13921661002E+04  0.13921661002E+04  0.00000000000E+00 0. -1.
        -13    1    1    2    0    0  0.22032154636E+03  0.16157951173E+03 -0.15391519454E+02  0.27365385515E+03  0.10566000000E+00 0.  1.
         13    1    1    2    0    0 -0.20668365374E+03 -0.21788620129E+03 -0.12249443797E+04  0.12612221350E+04  0.10566000000E+00 0. -1.
         -4    1    1    2    0  502 -0.13637892624E+02  0.56306689566E+02  0.17944866583E+03  0.18856897697E+03  0.00000000000E+00 0. -1.
</event>
<event>
 5    1  0.6336319E-005  0.4616511E+03  0.7818608E-02  0.9704391E-01
         21   -1    0    0  501  502  0.00000000000E+00  0.00000000000E+00  0.14988429058E+03  0.14988429058E+03  0.00000000000E+00 0. -1.
         -4   -1    0    0    0  501 -0.00000000000E+00 -0.00000000000E+00 -0.30216605854E+04  0.30216605854E+04  0.00000000000E+00 0. -1.
        -13    1    1    2    0    0  0.12342284018E+03  0.25515988679E+03 -0.92809871755E+03  0.97041589331E+03  0.10566000000E+00 0.  1.
         13    1    1    2    0    0  0.27549669353E+03 -0.46367688667E+03 -0.13671512312E+04  0.14696928875E+04  0.10566000000E+00 0. -1.
         -4    1    1    2    0  502 -0.39891953371E+03  0.20851699989E+03 -0.57652634599E+03  0.73143609512E+03  0.00000000000E+00 0. -1.
</event>
<event>
 5    1  0.6336319E-005  0.4664482E+03  0.7818608E-02  0.9884522E-01
         -4   -1    0    0    0  501 -0.00000000000E+00  0.00000000000E+00  0.64920287886E+03  0.64920287886E+03  0.00000000000E+00 0. -1.
         21   -1    0    0  501  502  0.00000000000E+00 -0.00000000000E+00 -0.56046966029E+03  0.56046966029E+03  0.00000000000E+00 0. -1.
        -13    1    1    2    0    0 -0.78822798067E+02  0.12581306368E+03  0.15360584827E+03  0.21362754568E+03  0.10566000000E+00 0.  1.
         13    1    1    2    0    0 -0.14287420458E+03 -0.50657161611E+03  0.79699084890E+02  0.53233428959E+03  0.10566000000E+00 0. -1.
         -4    1    1    2    0  502  0.22169700264E+03  0.38075855243E+03 -0.14457171459E+03  0.46371070388E+03  0.00000000000E+00 0. -1.
</event>
<event>
 5    1  0.6336319E-005  0.1593647E+02  0.7818608E-02  0.1575788E+00
         21   -1    0    0  501  502  0.00000000000E+00  0.00000000000E+00  0.29379596509E+02  0.29379596509E+02  0.00000000000E+00 0. -1.
         -4   -1    0    0    0  501 -0.00000000000E+00 -0.00000000000E+00 -0.35871793859E+02  0.35871793859E+02  0.00000000000E+00 0. -1.
        -13    1    1    2    0    0 -0.10718960174E+02  0.79974847346E+01  0.20227909575E+01  0.13526223293E+02  0.10566000000E+00 0.  1.
         13    1    1    2    0    0  0.34309369821E+01 -0.17556610862E+02 -0.25357819159E+02  0.31032822464E+02  0.10566000000E+00 0. -1.
         -4    1    1    2    0  502  0.72880231916E+01  0.95591261270E+01  0.16842830852E+02  0.20692344610E+02  0.00000000000E+00 0. -1.
</event>
<event>
 5    1  0.6336319E-005  0.4354958E+03  0.7818608E-02  0.1008116E+00
         -4   -1    0    0    0  501 -0.00000000000E+00  0.00000000000E+00  0.55368108071E+03  0.55368108071E+03  0.00000000000E+00 0. -1.
         21   -1    0    0  501  502  0.00000000000E+00 -0.00000000000E+00 -0.54166811891E+03  0.54166811891E+03  0.00000000000E+00 0. -1.
        -13    1    1    2    0    0  0.50114108144E+02  0.81339476680E+02  0.40331589662E+02  0.10370237505E+03  0.10566000000E+00 0.  1.
         13    1    1    2    0    0  0.26524399075E+03 -0.37347698786E+03  0.20575750969E+03  0.50217088630E+03  0.10566000000E+00 0. -1.
         -4    1    1    2    0  502 -0.31535809890E+03  0.29213751118E+03 -0.23407613755E+03  0.48947593827E+03  0.00000000000E+00 0. -1.
</event>
<event>
 5    1  0.6336319E-005  0.5238115E+02  0.7818608E-02  0.1282386E+00
          4   -1    0    0  502    0 -0.00000000000E+00  0.00000000000E+00  0.13036262657E+03  0.13036262657E+03  0.00000000000E+00 0.  1.
         21   -1    0    0  501  502  0.00000000000E+00 -0.00000000000E+00 -0.33224787341E+02  0.33224787341E+02  0.00000000000E+00 0.  1.
        -13    1    1    2    0    0 -0.32164710053E+01  0.55137639797E+02  0.73645019190E+02  0.92054902225E+02  0.10566000000E+00 0.  1.
         13    1    1    2    0    0 -0.91398465368E+01 -0.48084144590E+02  0.28271624352E+02  0.56523602709E+02  0.10566000000E+00 0. -1.
          4    1    1    2  501    0  0.12356317542E+02 -0.70534952072E+01 -0.47788043188E+01  0.15008908973E+02  0.00000000000E+00 0.  1.
</event>
<event>
 5    1  0.6336319E-005  0.2637009E+02  0.7818608E-02  0.1459532E+00
          4   -1    0    0  502    0 -0.00000000000E+00  0.00000000000E+00  0.80241694059E+01  0.80241694059E+01  0.00000000000E+00 0.  1.
         21   -1    0    0  501  502  0.00000000000E+00 -0.00000000000E+00 -0.26950468210E+03  0.26950468210E+03  0.00000000000E+00 0.  1.
        -13    1    1    2    0    0  0.26031614466E+02  0.32173484641E+02 -0.98109263720E+02  0.10648106337E+03  0.10566000000E+00 0.  1.
         13    1    1    2    0    0 -0.11439862902E+02 -0.14469650048E+02 -0.26625697347E+02  0.32391050600E+02  0.10566000000E+00 0. -1.
          4    1    1    2  501    0 -0.14591751563E+02 -0.17703834592E+02 -0.13674555163E+03  0.13865673753E+03  0.00000000000E+00 0.  1.
</event>
<event>
 5    1  0.6336319E-005  0.4744607E+03  0.7818608E-02  0.1002933E+00
         21   -1    0    0  501  502  0.00000000000E+00  0.00000000000E+00  0.63503699583E+03  0.63503699583E+03  0.00000000000E+00 0. -1.
         -4   -1    0    0    0  501 -0.00000000000E+00 -0.00000000000E+00 -0.49105621159E+03  0.49105621159E+03  0.00000000000E+00 0. -1.
        -13    1    1    2    0    0 -0.22173361521E+02 -0.84535630566E+02 -0.70119361057E+02  0.11204760932E+03  0.10566000000E+00 0.  1.
         13    1    1    2    0    0  0.90682376473E+02 -0.43661110370E+03  0.19868590019E+03  0.48818915123E+03  0.10566000000E+00 0. -1.
         -4    1    1    2    0  502 -0.68509014952E+02  0.52114673427E+03  0.15414245104E+02  0.52585644687E+03  0.00000000000E+00 0. -1.
</event>
<event>
 5    1  0.6336319E-005  0.2606062E+02  0.7818608E-02  0.1488924E+00
          4   -1    0    0  502    0 -0.00000000000E+00  0.00000000000E+00  0.74224307792E+01  0.74224307792E+01  0.00000000000E+00 0.  1.
         21   -1    0    0  501  502  0.00000000000E+00 -0.00000000000E+00 -0.22392694559E+03  0.22392694559E+03  0.00000000000E+00 0.  1.
        -13    1    1    2    0    0  0.31541732541E+02 -0.12610954359E+02 -0.47880741706E+02  0.58706845017E+02  0.10566000000E+00 0.  1.
         13    1    1    2    0    0 -0.12150528026E+02 -0.16760205584E+01 -0.73516106475E+02  0.74532365127E+02  0.10566000000E+00 0. -1.
          4    1    1    2  501    0 -0.19391204515E+02  0.14286974917E+02 -0.95107666626E+02  0.98110166221E+02  0.00000000000E+00 0.  1.
</event>
<event>
 5    1  0.6336319E-005  0.4015071E+03  0.7818608E-02  0.1016871E+00
          4   -1    0    0  502    0 -0.00000000000E+00  0.00000000000E+00  0.94745523306E+03  0.94745523306E+03  0.00000000000E+00 0.  1.
         21   -1    0    0  501  502  0.00000000000E+00 -0.00000000000E+00 -0.42422864610E+03  0.42422864610E+03  0.00000000000E+00 0.  1.
        -13    1    1    2    0    0  0.20688906242E+03 -0.34939342597E+03 -0.21737204013E+03  0.46057514615E+03  0.10566000000E+00 0.  1.
         13    1    1    2    0    0 -0.88952654212E+02 -0.24025171126E+02  0.33449709395E+03  0.34695547346E+03  0.10566000000E+00 0. -1.
          4    1    1    2  501    0 -0.11793640820E+03  0.37341859709E+03  0.40610153315E+03  0.56415325955E+03  0.00000000000E+00 0.  1.
</event>
<event>
 5    1  0.6336319E-005  0.2002013E+03  0.7818608E-02  0.1059998E+00
         21   -1    0    0  501  502  0.00000000000E+00  0.00000000000E+00  0.44067086649E+03  0.44067086649E+03  0.00000000000E+00 0.  1.
         -4   -1    0    0    0  501 -0.00000000000E+00 -0.00000000000E+00 -0.18516340255E+03  0.18516340255E+03  0.00000000000E+00 0. -1.
        -13    1    1    2    0    0 -0.93494501973E+02  0.14793491042E+03  0.12112524505E+03  0.21283161366E+03  0.10566000000E+00 0.  1.
         13    1    1    2    0    0  0.22690379778E+03 -0.97671969661E+02  0.98862494658E+02  0.26608072294E+03  0.10566000000E+00 0. -1.
         -4    1    1    2    0  502 -0.13340929581E+03 -0.50262940758E+02  0.35519724237E+02  0.14692193244E+03  0.00000000000E+00 0. -1.
</event>
<event>
 5    1  0.6336319E-005  0.3472980E+03  0.7818608E-02  0.1013457E+00
         -4   -1    0    0    0  501 -0.00000000000E+00  0.00000000000E+00  0.12132690527E+04  0.12132690527E+04  0.00000000000E+00 0. -1.
         21   -1    0    0  501  502  0.00000000000E+00 -0.00000000000E+00 -0.35523734072E+03  0.35523734072E+03  0.00000000000E+00 0. -1.
        -13    1    1    2    0    0  0.53117037825E+02  0.14955441422E+03  0.46033156527E+03  0.48692207145E+03  0.10566000000E+00 0.  1.
         13    1    1    2    0    0 -0.37872750916E+03 -0.30229785616E+02  0.57725930371E+03  0.69106923026E+03  0.10566000000E+00 0. -1.
         -4    1    1    2    0  502  0.32561047133E+03 -0.11932462861E+03 -0.17955915696E+03  0.39051509175E+03  0.00000000000E+00 0. -1.
</event>
<event>
 5    1  0.6336319E-005  0.5230235E+03  0.7818608E-02  0.9687593E-01
         21   -1    0    0  501  502  0.00000000000E+00  0.00000000000E+00  0.11270237386E+04  0.11270237386E+04  0.00000000000E+00 0. -1.
         -4   -1    0    0    0  501 -0.00000000000E+00 -0.00000000000E+00 -0.41760980708E+03  0.41760980708E+03  0.00000000000E+00 0. -1.
        -13    1    1    2    0    0 -0.20352800711E+03 -0.35876133010E+02  0.20603204243E+02  0.20769027369E+03  0.10566000000E+00 0.  1.
         13    1    1    2    0    0  0.13668168731E+03  0.52919209323E+03  0.63251899899E+03  0.83594643993E+03  0.10566000000E+00 0. -1.
         -4    1    1    2    0  502  0.66846319797E+02 -0.49331596022E+03  0.56291728293E+02  0.50099683208E+03  0.00000000000E+00 0. -1.
</event>
<event>
 5    1  0.6336319E-005  0.2100050E+03  0.7818608E-02  0.1066736E+00
         -4   -1    0    0    0  501 -0.00000000000E+00  0.00000000000E+00  0.42344567406E+03  0.42344567406E+03  0.00000000000E+00 0. -1.
         21   -1    0    0  501  502  0.00000000000E+00 -0.00000000000E+00 -0.90194238123E+03  0.90194238123E+03  0.00000000000E+00 0. -1.
        -13    1    1    2    0    0  0.13706195234E+03  0.39602461631E+02  0.80369319213E+02  0.16374850345E+03  0.10566000000E+00 0.  1.
         13    1    1    2    0    0 -0.33751177991E+03 -0.75034926758E+02  0.18380861896E+03  0.39157382622E+03  0.10566000000E+00 0. -1.
         -4    1    1    2    0  502  0.20044982757E+03  0.35432465127E+02 -0.74267464535E+03  0.77006572563E+03  0.00000000000E+00 0. -1.
</event>
<event>
 5    1  0.6336319E-005  0.1672530E+03  0.7818608E-02  0.1085240E+00
         -4   -1    0    0    0  501 -0.00000000000E+00  0.00000000000E+00  0.90257286698E+03  0.90257286698E+03  0.00000000000E+00 0. -1.
         21   -1    0    0  501  502  0.00000000000E+00 -0.00000000000E+00 -0.50797931641E+02  0.50797931641E+02  0.00000000000E+00 0.  1.
        -13    1    1    2    0    0  0.43477778597E+01 -0.15625931085E+03  0.15203308741E+03  0.21805950158E+03  0.10566000000E+00 0.  1.
         13    1    1    2    0    0 -0.24762853556E+01  0.17063146756E+03  0.70031474865E+03  0.72080648447E+03  0.10566000000E+00 0. -1.
         -4    1    1    2    0  502 -0.18714925041E+01 -0.14372156704E+02 -0.57290071644E+00  0.14504812572E+02  0.00000000000E+00 0. -1.
</event>
<event>
 5    1  0.6336319E-005  0.4738759E+03  0.7818608E-02  0.9927509E-01
         21   -1    0    0  501  502  0.00000000000E+00  0.00000000000E+00  0.16049268212E+03  0.16049268212E+03  0.00000000000E+00 0. -1.
         -4   -1    0    0    0  501 -0.00000000000E+00 -0.00000000000E+00 -0.20698402638E+04  0.20698402638E+04  0.00000000000E+00 0. -1.
        -13    1    1    2    0    0 -0.10967406719E+03  0.54902655953E+02 -0.57684446348E+03  0.58973913627E+03  0.10566000000E+00 0.  1.
         13    1    1    2    0    0  0.16845592783E+03  0.43182916080E+03 -0.71550969191E+03  0.85253032446E+03  0.10566000000E+00 0. -1.
         -4    1    1    2    0  502 -0.58781860644E+02 -0.48673181675E+03 -0.61699342626E+03  0.78806348515E+03  0.00000000000E+00 0. -1.
</event>
<event>
 5    1  0.6336319E-005  0.3793026E+03  0.7818608E-02  0.9945164E-01
         21   -1    0    0  501  502  0.00000000000E+00  0.00000000000E+00  0.25288436782E+03  0.25288436782E+03  0.00000000000E+00 0. -1.
         -4   -1    0    0    0  501 -0.00000000000E+00 -0.00000000000E+00 -0.21846670887E+04  0.21846670887E+04  0.00000000000E+00 0. -1.
        -13    1    1    2    0    0 -0.19199556576E+03  0.11836192068E+03 -0.11641270083E+04  0.11857755033E+04  0.10566000000E+00 0.  1.
         13    1    1    2    0    0 -0.18689967689E+01 -0.44091523091E+03 -0.75609897592E+03  0.87526876247E+03  0.10566000000E+00 0. -1.
         -4    1    1    2    0  502  0.19386456253E+03  0.32255331024E+03 -0.11556736668E+02  0.37650719078E+03  0.00000000000E+00 0. -1.
</event>
<event>
 5    1  0.6336319E-005  0.4754914E+03  0.7818608E-02  0.9666233E-01
         21   -1    0    0  501  502  0.00000000000E+00  0.00000000000E+00  0.27879240350E+03  0.27879240350E+03  0.00000000000E+00 0.  1.
          4   -1    0    0  502    0 -0.00000000000E+00 -0.00000000000E+00 -0.18393418126E+04  0.18393418126E+04  0.00000000000E+00 0.  1.
        -13    1    1    2    0    0 -0.41925041120E+03 -0.33535086990E+03 -0.24605628003E+03  0.59057160221E+03  0.10566000000E+00 0.  1.
         13    1    1    2    0    0 -0.14403228519E+02  0.29604201254E+03 -0.80229181992E+03  0.85528971796E+03  0.10566000000E+00 0. -1.
          4    1    1    2  501    0  0.43365363972E+03  0.39308857357E+02 -0.51220130915E+03  0.67227289593E+03  0.00000000000E+00 0.  1.
</event>
<event>
 5    1  0.6336319E-005  0.1560624E+03  0.7818608E-02  0.1095282E+00
          4   -1    0    0  502    0 -0.00000000000E+00  0.00000000000E+00  0.12224110079E+03  0.12224110079E+03  0.00000000000E+00 0.  1.
         21   -1    0    0  501  502  0.00000000000E+00 -0.00000000000E+00 -0.38838116052E+03  0.38838116052E+03  0.00000000000E+00 0. -1.
        -13    1    1    2    0    0  0.14343646803E+03 -0.63080946320E+02  0.36591132415E+02  0.16091037346E+03  0.10566000000E+00 0.  1.
         13    1    1    2    0    0 -0.14814146578E+03  0.42873183267E+02 -0.27067852965E+03  0.31152990435E+03  0.10566000000E+00 0. -1.
          4    1    1    2  501    0  0.47049977523E+01  0.20207763053E+02 -0.32052662496E+02  0.38181983507E+02  0.00000000000E+00 0.  1.
</event>
<event>
 5    1  0.6336319E-005  0.5458136E+03  0.7818608E-02  0.9382840E-01
         21   -1    0    0  501  502  0.00000000000E+00  0.00000000000E+00  0.29780759625E+03  0.29780759625E+03  0.00000000000E+00 0.  1.
          4   -1    0    0  502    0 -0.00000000000E+00 -0.00000000000E+00 -0.25374420143E+04  0.25374420143E+04  0.00000000000E+00 0.  1.
        -13    1    1    2    0    0  0.75071838228E+03 -0.75824026067E+01 -0.92202219561E+03  0.11890166200E+04  0.10566000000E+00 0.  1.
         13    1    1    2    0    0 -0.46404397498E+03 -0.13127339097E+03 -0.12219104829E+04  0.13136341779E+04  0.10566000000E+00 0. -1.
          4    1    1    2  501    0 -0.28667440730E+03  0.13885579358E+03 -0.95701739510E+02  0.33259881262E+03  0.00000000000E+00 0.  1.
</event>
<event>
 5    1  0.6336319E-005  0.8055861E+02  0.7818608E-02  0.1201464E+00
         21   -1    0    0  501  502  0.00000000000E+00  0.00000000000E+00  0.10279803996E+03  0.10279803996E+03  0.00000000000E+00 0. -1.
         -4   -1    0    0    0  501 -0.00000000000E+00 -0.00000000000E+00 -0.39825528981E+03  0.39825528981E+03  0.00000000000E+00 0. -1.
        -13    1    1    2    0    0 -0.62751748313E+02  0.40111521844E+02 -0.16080183808E+03  0.17721162037E+03  0.10566000000E+00 0.  1.
         13    1    1    2    0    0  0.78744449456E+02 -0.37077947091E+02 -0.22019206358E+03  0.23676996961E+03  0.10566000000E+00 0. -1.
         -4    1    1    2    0  502 -0.15992701143E+02 -0.30335747528E+01  0.85536651811E+02  0.87071739782E+02  0.00000000000E+00 0. -1.
</event>
<event>
 5    1  0.6336319E-005  0.1829238E+03  0.7818608E-02  0.1096804E+00
         21   -1    0    0  501  502  0.00000000000E+00  0.00000000000E+00  0.30269112737E+03  0.30269112737E+03  0.00000000000E+00 0.  1.
          4   -1    0    0  502    0 -0.00000000000E+00 -0.00000000000E+00 -0.11697176165E+04  0.11697176165E+04  0.00000000000E+00 0.  1.
        -13    1    1    2    0    0 -0.20109798222E+03 -0.23680979960E+02 -0.88808867740E+03  0.91088017728E+03  0.10566000000E+00 0.  1.
         13    1    1    2    0    0  0.49441567314E+02 -0.78733453255E+02 -0.23159591201E+03  0.24955981821E+03  0.10566000000E+00 0. -1.
          4    1    1    2  501    0  0.15165641490E+03  0.10241443321E+03  0.25265810030E+03  0.31196874837E+03  0.00000000000E+00 0.  1.
</event>
<event>
 5    1  0.6336319E-005  0.3661248E+03  0.7818608E-02  0.9832326E-01
         -4   -1    0    0    0  501 -0.00000000000E+00  0.00000000000E+00  0.87457787729E+03  0.87457787729E+03  0.00000000000E+00 0. -1.
         21   -1    0    0  501  502  0.00000000000E+00 -0.00000000000E+00 -0.59894636325E+03  0.59894636325E+03  0.00000000000E+00 0. -1.
        -13    1    1    2    0    0  0.38165817563E+03  0.27952712579E+02  0.20458352707E+03  0.43393403632E+03  0.10566000000E+00 0.  1.
         13    1    1    2    0    0 -0.32989009986E+03 -0.15992269973E+03  0.48159508997E+03  0.60525745739E+03  0.10566000000E+00 0. -1.
         -4    1    1    2    0  502 -0.51768075777E+02  0.13196998715E+03 -0.41054710300E+03  0.43433274682E+03  0.00000000000E+00 0. -1.
</event>
<event>
 5    1  0.6336319E-005  0.5019485E+03  0.7818608E-02  0.9588360E-01
          4   -1    0    0  502    0 -0.00000000000E+00  0.00000000000E+00  0.13848495650E+04  0.13848495650E+04  0.00000000000E+00 0.  1.
         21   -1    0    0  501  502  0.00000000000E+00 -0.00000000000E+00 -0.68986991735E+03  0.68986991735E+03  0.00000000000E+00 0.  1.
        -13    1    1    2    0    0  0.10997071307E+03 -0.32550977165E+03  0.63324751679E+02  0.34937115580E+03  0.10566000000E+00 0.  1.
         13    1    1    2    0    0  0.18198689783E+03 -0.27748737639E+03  0.93335546797E+03  0.99059119509E+03  0.10566000000E+00 0. -1.
          4    1    1    2  501    0 -0.29195761090E+03  0.60299714804E+03 -0.30170057198E+03  0.73475713146E+03  0.00000000000E+00 0.  1.
</event>
<event>
 5    1  0.6336319E-005  0.3383092E+03  0.7818608E-02  0.9926403E-01
          4   -1    0    0  502    0 -0.00000000000E+00  0.00000000000E+00  0.22564161480E+03  0.22564161480E+03  0.00000000000E+00 0.  1.
         21   -1    0    0  501  502  0.00000000000E+00 -0.00000000000E+00 -0.10553754798E+04  0.10553754798E+04  0.00000000000E+00 0.  1.
        -13    1    1    2    0    0 -0.24736152698E+03  0.21808508937E+03 -0.10694387147E+03  0.34667828609E+03  0.10566000000E+00 0.  1.
         13    1    1    2    0    0  0.28809690251E+03 -0.19987232752E+03 -0.18832416402E+03  0.39801353553E+03  0.10566000000E+00 0. -1.
          4    1    1    2  501    0 -0.40735375528E+02 -0.18212761849E+02 -0.53446582948E+03  0.53632527294E+03  0.00000000000E+00 0.  1.
</event>
<event>
 5    1  0.6336319E-005  0.7675865E+02  0.7818608E-02  0.1224923E+00
          4   -1    0    0  502    0 -0.00000000000E+00  0.00000000000E+00  0.85388271756E+02  0.85388271756E+02  0.00000000000E+00 0.  1.
         21   -1    0    0  501  502  0.00000000000E+00 -0.00000000000E+00 -0.45569676190E+03  0.45569676190E+03  0.00000000000E+00 0.  1.
        -13    1    1    2    0    0  0.98791346611E+02  0.82543761439E+02  0.88048163934E+01  0.12903774127E+03  0.10566000000E+00 0.  1.
         13    1    1    2    0    0 -0.40107064892E+02 -0.37957232159E+02 -0.49062708955E+02  0.73868049260E+02  0.10566000000E+00 0. -1.
          4    1    1    2  501    0 -0.58684281718E+02 -0.44586529279E+02 -0.33005059758E+03  0.33817924312E+03  0.00000000000E+00 0.  1.
</event>
<event>
 5    1  0.6336319E-005  0.3090790E+03  0.7818608E-02  0.1003627E+00
          4   -1    0    0  502    0 -0.00000000000E+00  0.00000000000E+00  0.30722672743E+03  0.30722672743E+03  0.00000000000E+00 0.  1.
         21   -1    0    0  501  502  0.00000000000E+00 -0.00000000000E+00 -0.56369024329E+03  0.56369024329E+03  0.00000000000E+00 0. -1.
        -13    1    1    2    0    0 -0.23939159778E+03 -0.17918356193E+03  0.99123802567E+02  0.31502480117E+03  0.10566000000E+00 0.  1.
         13    1    1    2    0    0  0.25296804071E+03  0.22287113812E+03 -0.19621344761E+03  0.39008217341E+03  0.10566000000E+00 0. -1.
          4    1    1    2  501    0 -0.13576442928E+02 -0.43687576195E+02 -0.15937387083E+03  0.16580999614E+03  0.00000000000E+00 0.  1.
</event>
<event>
 5    1  0.6336319E-005  0.4286804E+03  0.7818608E-02  0.9858153E-01
         -4   -1    0    0    0  501 -0.00000000000E+00  0.00000000000E+00  0.14352716584E+04  0.14352716584E+04  0.00000000000E+00 0. -1.
         21   -1    0    0  501  502  0.00000000000E+00 -0.00000000000E+00 -0.28320349482E+03  0.28320349482E+03  0.00000000000E+00 0. -1.
        -13    1    1    2    0    0  0.14367856486E+03  0.15179789404E+03  0.39336122945E+03  0.44544269961E+03  0.10566000000E+00 0.  1.
         13    1    1    2    0    0 -0.24133550764E+03  0.29266948058E+03  0.72311384210E+03  0.81657326182E+03  0.10566000000E+00 0. -1.
         -4    1    1    2    0  502  0.97656942777E+02 -0.44446737462E+03  0.35593092025E+02  0.45645919179E+03  0.00000000000E+00 0. -1.
</event>
<event>
 5    1  0.6336319E-005  0.1340234E+03  0.7818608E-02  0.1118032E+00
          4   -1    0    0  502    0 -0.00000000000E+00  0.00000000000E+00  0.70152274166E+03  0.70152274166E+03  0.00000000000E+00 0.  1.
         21   -1    0    0  501  502  0.00000000000E+00 -0.00000000000E+00 -0.69663773820E+03  0.69663773820E+03  0.00000000000E+00 0.  1.
        -13    1    1    2    0    0  0.11510855345E+03 -0.65022886945E+02  0.64212558003E+03  0.65559379694E+03  0.10566000000E+00 0.  1.
         13    1    1    2    0    0 -0.14613544303E+03  0.93438906381E+02 -0.93211508806E+02  0.19691316227E+03  0.10566000000E+00 0. -1.
          4    1    1    2  501    0  0.31026889585E+02 -0.28416019436E+02 -0.54402906776E+03  0.54565352066E+03  0.00000000000E+00 0.  1.
</event>
<event>
 5    1  0.6336319E-005  0.3963194E+03  0.7818608E-02  0.9894372E-01
          4   -1    0    0  502    0 -0.00000000000E+00  0.00000000000E+00  0.28817374696E+04  0.28817374696E+04  0.00000000000E+00 0.  1.
         21   -1    0    0  501  502  0.00000000000E+00 -0.00000000000E+00 -0.17797916137E+03  0.17797916137E+03  0.00000000000E+00 0.  1.
        -13    1    1    2    0    0 -0.22938516496E+03 -0.31616812793E+03  0.18064173879E+03  0.43036181055E+03  0.10566000000E+00 0.  1.
         13    1    1    2    0    0  0.17913435333E+03 -0.15084147966E+03  0.12633476460E+04  0.12848694698E+04  0.10566000000E+00 0. -1.
          4    1    1    2  501    0  0.50250811628E+02  0.46700960759E+03  0.12597689234E+04  0.13444853506E+04  0.00000000000E+00 0.  1.
</event>
<event>
 5    1  0.6336319E-005  0.1103667E+03  0.7818608E-02  0.1217921E+00
         21   -1    0    0  501  502  0.00000000000E+00  0.00000000000E+00  0.13723007287E+03  0.13723007287E+03  0.00000000000E+00 0. -1.
         -4   -1    0    0    0  501 -0.00000000000E+00 -0.00000000000E+00 -0.19611278001E+03  0.19611278001E+03  0.00000000000E+00 0. -1.
        -13    1    1    2    0    0  0.81992537166E+01 -0.20054975744E+02  0.59854222884E+01  0.22478128428E+02  0.10566000000E+00 0.  1.
         13    1    1    2    0    0  0.77225381830E+02  0.88330956244E+02 -0.13660722271E+03  0.18007682219E+03  0.10566000000E+00 0. -1.
         -4    1    1    2    0  502 -0.85424635547E+02 -0.68275980500E+02  0.71739093284E+02  0.13078790226E+03  0.00000000000E+00 0. -1.
</event>
<event>
 5    1  0.6336319E-005  0.4706365E+02  0.7818608E-02  0.1304229E+00
         21   -1    0    0  501  502  0.00000000000E+00  0.00000000000E+00  0.36176069459E+03  0.36176069459E+03  0.00000000000E+00 0. -1.
         -4   -1    0    0    0  501 -0.00000000000E+00 -0.00000000000E+00 -0.10813741020E+02  0.10813741020E+02  0.00000000000E+00 0. -1.
        -13    1    1    2    0    0 -0.41155811411E+02 -0.35530594111E+01  0.18058260259E+03  0.18524716615E+03  0.10566000000E+00 0.  1.
         13    1    1    2    0    0  0.49213565413E+02 -0.87746508757E+01  0.70742238302E+02  0.86622427596E+02  0.10566000000E+00 0. -1.
         -4    1    1    2    0  502 -0.80577540019E+01  0.12327710287E+02  0.99622112675E+02  0.10070484186E+03  0.00000000000E+00 0. -1.
</event>
<event>
 5    1  0.6336319E-005  0.5769251E+03  0.7818608E-02  0.9323643E-01
         21   -1    0    0  501  502  0.00000000000E+00  0.00000000000E+00  0.43457517355E+03  0.43457517355E+03  0.00000000000E+00 0. -1.
         -4   -1    0    0    0  501 -0.00000000000E+00 -0.00000000000E+00 -0.15646143306E+04  0.15646143306E+04  0.00000000000E+00 0. -1.
        -13    1    1    2    0    0 -0.29360348378E+03 -0.41640330166E+03 -0.47795429581E+03  0.69859504390E+03  0.10566000000E+00 0.  1.
         13    1    1    2    0    0  0.23560026553E+03  0.61364943123E+03 -0.80869547225E+03  0.10421427386E+04  0.10566000000E+00 0. -1.
         -4    1    1    2    0  502  0.58003218254E+02 -0.19724612957E+03  0.15661061100E+03  0.25845172168E+03  0.00000000000E+00 0. -1.
</event>
<event>
 5    1  0.6336319E-005  0.2463977E+03  0.7818608E-02  0.1032276E+00
          4   -1    0    0  502    0 -0.00000000000E+00  0.00000000000E+00  0.25937581268E+04  0.25937581268E+04  0.00000000000E+00 0.  1.
         21   -1    0    0  501  502  0.00000000000E+00 -0.00000000000E+00 -0.66870032720E+02  0.66870032720E+02  0.00000000000E+00 0.  1.
        -13    1    1    2    0    0 -0.25267258843E+03  0.30012017714E+02  0.13784237407E+04  0.14017118742E+04  0.10566000000E+00 0.  1.
         13    1    1    2    0    0  0.23183203077E+03 -0.58887884072E+02  0.11844076310E+04  0.12083192131E+04  0.10566000000E+00 0. -1.
          4    1    1    2  501    0  0.20840557667E+02  0.28875866358E+02 -0.35943277640E+02  0.50597072142E+02  0.00000000000E+00 0.  1.
</event>
<event>
 5    1  0.6336319E-005  0.4805913E+03  0.7818608E-02  0.1005386E+00
          4   -1    0    0  502    0 -0.00000000000E+00  0.00000000000E+00  0.20897157251E+04  0.20897157251E+04  0.00000000000E+00 0.  1.
         21   -1    0    0  501  502  0.00000000000E+00 -0.00000000000E+00 -0.14663452508E+03  0.14663452508E+03  0.00000000000E+00 0.  1.
        -13    1    1    2    0    0 -0.48516020660E+03  0.63490716070E+02  0.11672446888E+04  0.12656506911E+04  0.10566000000E+00 0.  1.
         13    1    1    2    0    0  0.26818198791E+02  0.72870922703E+02  0.24128075384E+03  0.25346755315E+03  0.10566000000E+00 0. -1.
          4    1    1    2  501    0  0.45834200781E+03 -0.13636163877E+03  0.53455575737E+03  0.71723200597E+03  0.00000000000E+00 0.  1.
</event>
<event>
 5    1  0.6336319E-005  0.4072734E+03  0.7818608E-02  0.9719981E-01
         -4   -1    0    0    0  501 -0.00000000000E+00  0.00000000000E+00  0.17641870861E+04  0.17641870861E+04  0.00000000000E+00 0. -1.
         21   -1    0    0  501  502  0.00000000000E+00 -0.00000000000E+00 -0.31140009913E+03  0.31140009913E+03  0.00000000000E+00 0. -1.
        -13    1    1    2    0    0  0.37259910244E+03  0.11868353799E+03  0.62043911278E+03  0.73338978529E+03  0.10566000000E+00 0.  1.
         13    1    1    2    0    0  0.83579764831E+02 -0.39805060012E+03  0.72809843194E+02  0.41319625092E+03  0.10566000000E+00 0. -1.
         -4    1    1    2    0  502 -0.45617886727E+03  0.27936706213E+03  0.75953803097E+03  0.92900114899E+03  0.00000000000E+00 0. -1.
</event>
<event>
 5    1  0.6336319E-005  0.5175604E+03  0.7818608E-02  0.9457101E-01
         21   -1    0    0  501  502  0.00000000000E+00  0.00000000000E+00  0.29857014224E+03  0.29857014224E+03  0.00000000000E+00 0. -1.
          4   -1    0    0  502    0 -0.00000000000E+00 -0.00000000000E+00 -0.26744108799E+04  0.26744108799E+04  0.00000000000E+00 0.  1.
        -13    1    1    2    0    0  0.25775532849E+03 -0.31197267358E+02 -0.10549170025E+04  0.10863981647E+04  0.10566000000E+00 0.  1.
         13    1    1    2    0    0  0.43060041259E+03 -0.31544804018E+03 -0.31657428994E+03  0.62059928585E+03  0.10566000000E+00 0. -1.
          4    1    1    2  501    0 -0.68835574109E+03  0.34664530754E+03 -0.10043494452E+04  0.12659835716E+04  0.00000000000E+00 0.  1.
</event>
<event>
 5    1  0.6336319E-005  0.5357327E+03  0.7818608E-02  0.9456729E-01
         21   -1    0    0  501  502  0.00000000000E+00  0.00000000000E+00  0.83657835758E+03  0.83657835758E+03  0.00000000000E+00 0.  1.
         -4   -1    0    0    0  501 -0.00000000000E+00 -0.00000000000E+00 -0.12004252617E+04  0.12004252617E+04  0.00000000000E+00 0. -1.
        -13    1    1    2    0    0 -0.35090414072E+03 -0.47629747767E+03  0.33669140801E+03  0.68070119627E+03  0.10566000000E+00 0.  1.
         13    1    1    2    0    0 -0.14569081405E+03 -0.26415164944E+02 -0.62884830656E+03  0.64604471832E+03  0.10566000000E+00 0. -1.
         -4    1    1    2    0  502  0.49659495477E+03  0.50271264262E+03 -0.71690005559E+02  0.71025770467E+03  0.00000000000E+00 0. -1.
</event>
<event>
 5    1  0.6336319E-005  0.2613188E+03  0.7818608E-02  0.1024689E+00
         -4   -1    0    0    0  501 -0.00000000000E+00  0.00000000000E+00  0.18127705224E+04  0.18127705224E+04  0.00000000000E+00 0. -1.
         21   -1    0    0  501  502  0.00000000000E+00 -0.00000000000E+00 -0.22182499126E+03  0.22182499126E+03  0.00000000000E+00 0. -1.
        -13    1    1    2    0    0  0.20441828761E+03  0.31708186509E+03  0.63205237569E+03  0.73608285013E+03  0.10566000000E+00 0.  1.
         13    1    1    2    0    0 -0.64673915473E+02 -0.22661763786E+03  0.10717754999E+04  0.10973791516E+04  0.10566000000E+00 0. -1.
         -4    1    1    2    0  502 -0.13974437214E+03 -0.90464227227E+02 -0.11288234438E+03  0.20113351194E+03  0.00000000000E+00 0. -1.
</event>
<event>
 5    1  0.6336319E-005  0.5511165E+03  0.7818608E-02  0.9506141E-01
         -4   -1    0    0    0  501 -0.00000000000E+00  0.00000000000E+00  0.10199238480E+04  0.10199238480E+04  0.00000000000E+00 0. -1.
         21   -1    0    0  501  502  0.00000000000E+00 -0.00000000000E+00 -0.95804209133E+03  0.95804209133E+03  0.00000000000E+00 0.  1.
        -13    1    1    2    0    0  0.68077766220E+03  0.18234689045E+03  0.28437384607E+03  0.75998494018E+03  0.10566000000E+00 0.  1.
         13    1    1    2    0    0  0.18208393435E+03  0.17549999024E+03  0.17577212336E+02  0.25350300843E+03  0.10566000000E+00 0. -1.
         -4    1    1    2    0  502 -0.86286159655E+03 -0.35784688070E+03 -0.24006930179E+03  0.96447799067E+03  0.00000000000E+00 0. -1.
</event>
<event>
 5    1  0.6336319E-005  0.1785883E+03  0.7818608E-02  0.1116354E+00
          4   -1    0    0  502    0 -0.00000000000E+00  0.00000000000E+00  0.78902588200E+03  0.78902588200E+03  0.00000000000E+00 0.  1.
         21   -1    0    0  501  502  0.00000000000E+00 -0.00000000000E+00 -0.47591322006E+03  0.47591322006E+03  0.00000000000E+00 0.  1.
        -13    1    1    2    0    0  0.20593883738E+03  0.11323348135E+03  0.73954143965E+03  0.77598593941E+03  0.10566000000E+00 0.  1.
         13    1    1    2    0    0 -0.47041067370E+02 -0.35936582293E+02 -0.14539769274E+03  0.15698662422E+03  0.10566000000E+00 0. -1.
          4    1    1    2  501    0 -0.15889777001E+03 -0.77296899053E+02 -0.28103108497E+03  0.33196653843E+03  0.00000000000E+00 0.  1.
</event>
<event>
 5    1  0.6336319E-005  0.4562456E+03  0.7818608E-02  0.9784136E-01
         21   -1    0    0  501  502  0.00000000000E+00  0.00000000000E+00  0.70647855950E+03  0.70647855950E+03  0.00000000000E+00 0.  1.
          4   -1    0    0  502    0 -0.00000000000E+00 -0.00000000000E+00 -0.98122643104E+03  0.98122643104E+03  0.00000000000E+00 0.  1.
        -13    1    1    2    0    0 -0.42580967307E+03 -0.54133993682E+02  0.30233805000E+03  0.52502635609E+03  0.10566000000E+00 0.  1.
         13    1    1    2    0    0 -0.54432240657E+02 -0.21622619903E+03 -0.56941107707E+03  0.61151093516E+03  0.10566000000E+00 0. -1.
          4    1    1    2  501    0  0.48024191372E+03  0.27036019271E+03 -0.76748444678E+01  0.55116769929E+03  0.00000000000E+00 0.  1.
</event>
<event>
 5    1  0.6336319E-005  0.2635373E+03  0.7818608E-02  0.1023607E+00
         21   -1    0    0  501  502  0.00000000000E+00  0.00000000000E+00  0.56771891683E+03  0.56771891683E+03  0.00000000000E+00 0. -1.
         -4   -1    0    0    0  501 -0.00000000000E+00 -0.00000000000E+00 -0.41934747238E+03  0.41934747238E+03  0.00000000000E+00 0. -1.
        -13    1    1    2    0    0 -0.51876910942E+02  0.24992440198E+03 -0.24451083326E+03  0.35346708382E+03  0.10566000000E+00 0.  1.
         13    1    1    2    0    0 -0.15497469549E+02 -0.30059564479E+03  0.82677451069E+02  0.31214337300E+03  0.10566000000E+00 0. -1.
         -4    1    1    2    0  502  0.67374380491E+02  0.50671242805E+02  0.31020482664E+03  0.32145593239E+03  0.00000000000E+00 0. -1.
</event>
<event>
 5    1  0.6336319E-005  0.2769549E+03  0.7818608E-02  0.1021586E+00
         21   -1    0    0  501  502  0.00000000000E+00  0.00000000000E+00  0.25668241150E+03  0.25668241150E+03  0.00000000000E+00 0. -1.
         -4   -1    0    0    0  501 -0.00000000000E+00 -0.00000000000E+00 -0.22450368092E+04  0.22450368092E+04  0.00000000000E+00 0. -1.
        -13    1    1    2    0    0  0.17945086132E+02 -0.24124859082E+03 -0.11618190891E+04  0.11867377620E+04  0.10566000000E+00 0.  1.
         13    1    1    2    0    0 -0.34112151653E+02 -0.25455354937E+03  0.90553002799E+02  0.27232518405E+03  0.10566000000E+00 0. -1.
         -4    1    1    2    0  502  0.16167065521E+02  0.49580214020E+03 -0.91708831134E+03  0.10426562746E+04  0.00000000000E+00 0. -1.
</event>
<event>
 5    1  0.6336319E-005  0.4792883E+03  0.7818608E-02  0.9753618E-01
         21   -1    0    0  501  502  0.00000000000E+00  0.00000000000E+00  0.20041534541E+03  0.20041534541E+03  0.00000000000E+00 0.  1.
          4   -1    0    0  502    0 -0.00000000000E+00 -0.00000000000E+00 -0.19550524106E+04  0.19550524106E+04  0.00000000000E+00 0.  1.
        -13    1    1    2    0    0 -0.38957906431E+03 -0.14804062675E+03 -0.96235328413E+03  0.10487190897E+04  0.10566000000E+00 0.  1.
         13    1    1    2    0    0 -0.13434992940E+03  0.16604926016E+03 -0.39473844712E+03  0.44882147133E+03  0.10566000000E+00 0. -1.
          4    1    1    2  501    0  0.52392899371E+03 -0.18008633415E+02 -0.39754533394E+03  0.65792719496E+03  0.00000000000E+00 0.  1.
</event>
<event>
 5    1  0.6336319E-005  0.2490219E+02  0.7818608E-02  0.1451242E+00
         -4   -1    0    0    0  501 -0.00000000000E+00  0.00000000000E+00  0.88380466982E+02  0.88380466982E+02  0.00000000000E+00 0. -1.
         21   -1    0    0  501  502  0.00000000000E+00 -0.00000000000E+00 -0.24264859388E+03  0.24264859388E+03  0.00000000000E+00 0. -1.
        -13    1    1    2    0    0  0.15130827014E+02 -0.32372925093E+02 -0.44241910774E+02  0.56870959533E+02  0.10566000000E+00 0.  1.
         13    1    1    2    0    0 -0.87428518006E+01  0.22899992758E+02  0.80060161785E+02  0.83728655758E+02  0.10566000000E+00 0. -1.
         -4    1    1    2    0  502 -0.63879752135E+01  0.94729323354E+01 -0.19008637790E+03  0.19042944557E+03  0.00000000000E+00 0. -1.
</event>
<event>
 5    1  0.6336319E-005  0.4356498E+03  0.7818608E-02  0.9631402E-01
          4   -1    0    0  502    0 -0.00000000000E+00  0.00000000000E+00  0.15981188517E+04  0.15981188517E+04  0.00000000000E+00 0.  1.
         21   -1    0    0  501  502  0.00000000000E+00 -0.00000000000E+00 -0.61336008258E+03  0.61336008258E+03  0.00000000000E+00 0.  1.
        -13    1    1    2    0    0 -0.35672993876E+03 -0.50758785701E+03  0.27568937868E+03  0.67890082226E+03  0.10566000000E+00 0.  1.
         13    1    1    2    0    0  0.17489547521E+03  0.36263178978E+03  0.10473571581E+04  0.11220727561E+04  0.10566000000E+00 0. -1.
          4    1    1    2  501    0  0.18183446355E+03  0.14495606722E+03 -0.33828776761E+03  0.41050535596E+03  0.00000000000E+00 0.  1.
</event>
<event>
 5    1  0.6336319E-005  0.1367299E+03  0.7818608E-02  0.1167818E+00
          4   -1    0    0  502    0 -0.00000000000E+00  0.00000000000E+00  0.23259958866E+03  0.23259958866E+03  0.00000000000E+00 0.  1.
         21   -1    0    0  501  502  0.00000000000E+00 -0.00000000000E+00 -0.12198723385E+03  0.12198723385E+03  0.00000000000E+00 0.  1.
        -13    1    1    2    0    0  0.85809651654E+02  0.12447422930E+03  0.97122090129E+02  0.17969374400E+03  0.10566000000E+00 0.  1.
         13    1    1    2    0    0  0.76269089663E+01 -0.35348344088E+02 -0.20229648531E+02  0.41435793872E+02  0.10566000000E+00 0. -1.
          4    1    1    2  501    0 -0.93436560620E+02 -0.89125885216E+02  0.33719913212E+02  0.13345728464E+03  0.00000000000E+00 0.  1.
</event>
<event>
 5    1  0.6336319E-005  0.4993537E+03  0.7818608E-02  0.9787796E-01
         -4   -1    0    0    0  501 -0.00000000000E+00  0.00000000000E+00  0.99313952325E+03  0.99313952325E+03  0.00000000000E+00 0. -1.
         21   -1    0    0  501  502  0.00000000000E+00 -0.00000000000E+00 -0.35357327067E+03  0.35357327067E+03  0.00000000000E+00 0. -1.
        -13    1    1    2    0    0  0.16384724023E+03  0.36896483571E+02  0.11674316678E+03  0.20453910820E+03  0.10566000000E+00 0.  1.
         13    1    1    2    0    0 -0.72666255861E+02 -0.51894279097E+03  0.29387698510E+03  0.60078756527E+03  0.10566000000E+00 0. -1.
         -4    1    1    2    0  502 -0.91180984367E+02  0.48204630740E+03  0.22894610070E+03  0.54138612045E+03  0.00000000000E+00 0. -1.
</event>
<event>
 5    1  0.6336319E-005  0.3516032E+03  0.7818608E-02  0.1016543E+00
         -4   -1    0    0    0  501 -0.00000000000E+00  0.00000000000E+00  0.24453171708E+03  0.24453171708E+03  0.00000000000E+00 0. -1.
         21   -1    0    0  501  502  0.00000000000E+00 -0.00000000000E+00 -0.17889404312E+04  0.17889404312E+04  0.00000000000E+00 0. -1.
        -13    1    1    2    0    0  0.10385694971E+03  0.91840874351E+02  0.92436825831E+02  0.16663009974E+03  0.10566000000E+00 0.  1.
         13    1    1    2    0    0  0.32985070011E+03 -0.50039512490E+02 -0.12164911602E+04  0.12614103976E+04  0.10566000000E+00 0. -1.
         -4    1    1    2    0  502 -0.43370764982E+03 -0.41801361861E+02 -0.42035437967E+03  0.60543165086E+03  0.00000000000E+00 0. -1.
</event>
<event>
 5    1  0.6336319E-005  0.5029826E+03  0.7818608E-02  0.9668264E-01
         21   -1    0    0  501  502  0.00000000000E+00  0.00000000000E+00  0.27492000512E+03  0.27492000512E+03  0.00000000000E+00 0.  1.
          4   -1    0    0  502    0 -0.00000000000E+00 -0.00000000000E+00 -0.18822818928E+04  0.18822818928E+04  0.00000000000E+00 0.  1.
        -13    1    1    2    0    0  0.60684268386E+03  0.85255960814E+02 -0.34035437136E+03  0.70097626999E+03  0.10566000000E+00 0.  1.
         13    1    1    2    0    0 -0.20953469796E+03 -0.13382476385E+03 -0.81686378351E+03  0.85386199649E+03  0.10566000000E+00 0. -1.
          4    1    1    2  501    0 -0.39730798590E+03  0.48568803035E+02 -0.45014373277E+03  0.60236363141E+03  0.00000000000E+00 0.  1.
</event>
<event>
 5    1  0.6336319E-005  0.1541053E+03  0.7818608E-02  0.1097132E+00
          4   -1    0    0  502    0 -0.00000000000E+00  0.00000000000E+00  0.40907076348E+03  0.40907076348E+03  0.00000000000E+00 0.  1.
         21   -1    0    0  501  502  0.00000000000E+00 -0.00000000000E+00 -0.16525263448E+03  0.16525263448E+03  0.00000000000E+00 0.  1.
        -13    1    1    2    0    0  0.16266686610E+03  0.20757865209E+02  0.33412127239E+03  0.37219408126E+03  0.10566000000E+00 0.  1.
         13    1    1    2    0    0 -0.11592168749E+03  0.12851087612E+02 -0.33727091354E+02  0.12141052648E+03  0.10566000000E+00 0. -1.
          4    1    1    2  501    0 -0.46745178606E+02 -0.33608952821E+02 -0.56576052028E+02  0.80718790227E+02  0.00000000000E+00 0.  1.
</event>
<event>
 5    1  0.6336319E-005  0.2749418E+03  0.7818608E-02  0.1018221E+00
         21   -1    0    0  501  502  0.00000000000E+00  0.00000000000E+00  0.37324873979E+03  0.37324873979E+03  0.00000000000E+00 0.  1.
          4   -1    0    0  502    0 -0.00000000000E+00 -0.00000000000E+00 -0.23071013767E+04  0.23071013767E+04  0.00000000000E+00 0.  1.
        -13    1    1    2    0    0 -0.19940608799E+03  0.34789556833E+03 -0.65975105465E+03  0.77205283477E+03  0.10566000000E+00 0.  1.
         13    1    1    2    0    0  0.24063819478E+02 -0.25538508470E+03 -0.15485956196E+04  0.15696971087E+04  0.10566000000E+00 0. -1.
          4    1    1    2  501    0  0.17534226851E+03 -0.92510483624E+02  0.27449403727E+03  0.33860017307E+03  0.00000000000E+00 0.  1.
</event>
<event>
 5    1  0.6336319E-005  0.4848180E+03  0.7818608E-02  0.9582533E-01
         21   -1    0    0  501  502  0.00000000000E+00  0.00000000000E+00  0.35539174046E+03  0.35539174046E+03  0.00000000000E+00 0. -1.
         -4   -1    0    0    0  501 -0.00000000000E+00 -0.00000000000E+00 -0.21784536482E+04  0.21784536482E+04  0.00000000000E+00 0. -1.
        -13    1    1    2    0    0 -0.31682962354E+03  0.20249264171E+03 -0.12277704011E+04  0.12840578060E+04  0.10566000000E+00 0.  1.
         13    1    1    2    0    0 -0.14116837802E+03  0.35184824433E+03 -0.18398058805E+03  0.42139597285E+03  0.10566000000E+00 0. -1.
         -4    1    1    2    0  502  0.45799800156E+03 -0.55434088604E+03 -0.41131091861E+03  0.82839160977E+03  0.00000000000E+00 0. -1.
</event>
<event>
 5    1  0.6336319E-005  0.1465575E+03  0.7818608E-02  0.1104557E+00
          4   -1    0    0  502    0 -0.00000000000E+00  0.00000000000E+00  0.27746552945E+03  0.27746552945E+03  0.00000000000E+00 0.  1.
         21   -1    0    0  501  502  0.00000000000E+00 -0.00000000000E+00 -0.25127887654E+03  0.25127887654E+03  0.00000000000E+00 0. -1.
        -13    1    1    2    0    0  0.88361053326E+02 -0.11741077979E+03  0.18461160393E+03  0.23595428037E+03  0.10566000000E+00 0.  1.
         13    1    1    2    0    0 -0.97541762419E+02  0.10834264114E+03 -0.12523808233E+02  0.14631944588E+03  0.10566000000E+00 0. -1.
          4    1    1    2  501    0  0.91807090933E+01  0.90681386463E+01 -0.14590114279E+03  0.14647067974E+03  0.00000000000E+00 0.  1.
</event>
<event>
 5    1  0.6336319E-005  0.4288526E+03  0.7818608E-02  0.9739080E-01
          4   -1    0    0  502    0 -0.00000000000E+00  0.00000000000E+00  0.12319692340E+04  0.12319692340E+04  0.00000000000E+00 0.  1.
         21   -1    0    0  501  502  0.00000000000E+00 -0.00000000000E+00 -0.44939628812E+03  0.44939628812E+03  0.00000000000E+00 0.  1.
        -13    1    1    2    0    0  0.38544593879E+03  0.85200074742E+02  0.42517006661E+03  0.58016999334E+03  0.10566000000E+00 0.  1.
         13    1    1    2    0    0  0.21678842829E+02 -0.31275220825E+03  0.52005944873E+03  0.60724439673E+03  0.10566000000E+00 0. -1.
          4    1    1    2  501    0 -0.40712478162E+03  0.22755213350E+03 -0.16265656945E+03  0.49395113206E+03  0.00000000000E+00 0.  1.
</event>
<event>
 5    1  0.6336319E-005  0.3992403E+03  0.7818608E-02  0.9960042E-01
         -4   -1    0    0    0  501 -0.00000000000E+00  0.00000000000E+00  0.16368110490E+04  0.16368110490E+04  0.00000000000E+00 0. -1.
         21   -1    0    0  501  502  0.00000000000E+00 -0.00000000000E+00 -0.23547021862E+03  0.23547021862E+03  0.00000000000E+00 0. -1.
        -13    1    1    2    0    0  0.76317288174E+01 -0.18396530867E+03  0.44865883865E+03  0.48497035244E+03  0.10566000000E+00 0.  1.
         13    1    1    2    0    0 -0.81251057536E+02  0.53861505610E+03  0.85221771350E+03  0.10114261987E+04  0.10566000000E+00 0. -1.
         -4    1    1    2    0  502  0.73619328718E+02 -0.35464974744E+03  0.10046427827E+03  0.37588471654E+03  0.00000000000E+00 0. -1.
</event>
<event>
 5    1  0.6336319E-005  0.1737576E+03  0.7818608E-02  0.1079785E+00
         21   -1    0    0  501  502  0.00000000000E+00  0.00000000000E+00  0.40635199909E+03  0.40635199909E+03  0.00000000000E+00 0.  1.
          4   -1    0    0  502    0 -0.00000000000E+00 -0.00000000000E+00 -0.12563321458E+03  0.12563321458E+03  0.00000000000E+00 0.  1.
        -13    1    1    2    0    0 -0.18633215659E+03  0.46630084422E+02  0.61532922816E+02  0.20169370121E+03  0.10566000000E+00 0.  1.
         13    1    1    2    0    0  0.15850546920E+03  0.27173795684E+02  0.10703309616E+03  0.19317995180E+03  0.10566000000E+00 0. -1.
          4    1    1    2  501    0  0.27826687388E+02 -0.73803880106E+02  0.11215276554E+03  0.13711156067E+03  0.00000000000E+00 0.  1.
</event>
<event>
 5    1  0.6336319E-005  0.3625179E+02  0.7818608E-02  0.1360754E+00
         21   -1    0    0  501  502  0.00000000000E+00  0.00000000000E+00  0.20097081950E+03  0.20097081950E+03  0.00000000000E+00 0.  1.
         -4   -1    0    0    0  501 -0.00000000000E+00 -0.00000000000E+00 -0.47741401389E+02  0.47741401389E+02  0.00000000000E+00 0. -1.
        -13    1    1    2    0    0 -0.27382190151E+02  0.25149943291E+02  0.17237509237E+03  0.17633912674E+03  0.10566000000E+00 0.  1.
         13    1    1    2    0    0  0.35293853944E+02 -0.89274035216E+01 -0.33375630082E+02  0.49389254977E+02  0.10566000000E+00 0. -1.
         -4    1    1    2    0  502 -0.79116637933E+01 -0.16222539769E+02  0.14229955829E+02  0.22983839180E+02  0.00000000000E+00 0. -1.
</event>
<event>
 5    1  0.6336319E-005  0.4812356E+03  0.7818608E-02  0.9655885E-01
         21   -1    0    0  501  502  0.00000000000E+00  0.00000000000E+00  0.80881021829E+03  0.80881021829E+03  0.00000000000E+00 0. -1.
         -4   -1    0    0    0  501 -0.00000000000E+00 -0.00000000000E+00 -0.76681798480E+03  0.76681798480E+03  0.00000000000E+00 0. -1.
        -13    1    1    2    0    0  0.11838097007E+03 -0.27182512782E+03 -0.34874656953E+03  0.45774134084E+03  0.10566000000E+00 0.  1.
         13    1    1    2    0    0  0.75500853265E+02  0.63155051070E+03  0.19867027412E+03  0.66635299609E+03  0.10566000000E+00 0. -1.
         -4    1    1    2    0  502 -0.19388182333E+03 -0.35972538288E+03  0.19206852890E+03  0.45153386617E+03  0.00000000000E+00 0. -1.
</event>
<event>
 5    1  0.6336319E-005  0.5802093E+03  0.7818608E-02  0.9317625E-01
         -4   -1    0    0    0  501 -0.00000000000E+00  0.00000000000E+00  0.16255993043E+04  0.16255993043E+04  0.00000000000E+00 0. -1.
         21   -1    0    0  501  502  0.00000000000E+00 -0.00000000000E+00 -0.45594250107E+03  0.45594250107E+03  0.00000000000E+00 0.  1.
        -13    1    1    2    0    0 -0.23539127949E+03 -0.49607850972E+03  0.47569470579E+03  0.72649047244E+03  0.10566000000E+00 0.  1.
         13    1    1    2    0    0 -0.15854559318E+03  0.68447984165E+03  0.55946407015E+03  0.89813663532E+03  0.10566000000E+00 0. -1.
         -4    1    1    2    0  502  0.39393687267E+03 -0.18840133193E+03  0.13449802725E+03  0.45691469757E+03  0.00000000000E+00 0. -1.
</event>
<event>
 5    1  0.6336319E-005  0.5722530E+03  0.7818608E-02  0.9450958E-01
         21   -1    0    0  501  502  0.00000000000E+00  0.00000000000E+00  0.12286256205E+04  0.12286256205E+04  0.00000000000E+00 0. -1.
         -4   -1    0    0    0  501 -0.00000000000E+00 -0.00000000000E+00 -0.14267585645E+04  0.14267585645E+04  0.00000000000E+00 0. -1.
        -13    1    1    2    0    0  0.67209638754E+03 -0.23931427371E+03 -0.97054384244E+03  0.12045498068E+04  0.10566000000E+00 0.  1.
         13    1    1    2    0    0  0.28941360348E+02 -0.32377904127E+03  0.15531816081E+03  0.36026963812E+03  0.10566000000E+00 0. -1.
         -4    1    1    2    0  502 -0.70103774789E+03  0.56309331499E+03  0.61709273767E+03  0.10905647400E+04  0.00000000000E+00 0. -1.
</event>
<event>
 5    1  0.6336319E-005  0.5090919E+03  0.7818608E-02  0.9603742E-01
         21   -1    0    0  501  502  0.00000000000E+00  0.00000000000E+00  0.26069254243E+03  0.26069254243E+03  0.00000000000E+00 0. -1.
         -4   -1    0    0    0  501 -0.00000000000E+00 -0.00000000000E+00 -0.20995447805E+04  0.20995447805E+04  0.00000000000E+00 0. -1.
        -13    1    1    2    0    0  0.19434056879E+03 -0.23000529805E+03 -0.87679520719E+03  0.92706016004E+03  0.10566000000E+00 0.  1.
         13    1    1    2    0    0  0.41007439350E+03  0.18229496261E+03 -0.49265956429E+03  0.66641272425E+03  0.10566000000E+00 0. -1.
         -4    1    1    2    0  502 -0.60441496229E+03  0.47710335440E+02 -0.46939746662E+03  0.76676443867E+03  0.00000000000E+00 0. -1.
</event>
<event>
 5    1  0.6336319E-005  0.4766455E+03  0.7818608E-02  0.9530684E-01
         21   -1    0    0  501  502  0.00000000000E+00  0.00000000000E+00  0.10026905068E+04  0.10026905068E+04  0.00000000000E+00 0.  1.
          4   -1    0    0  502    0 -0.00000000000E+00 -0.00000000000E+00 -0.78568059642E+03  0.78568059642E+03  0.00000000000E+00 0.  1.
        -13    1    1    2    0    0  0.18866930001E+03  0.63466180192E+03  0.10795012002E+03  0.67085389405E+03  0.10566000000E+00 0.  1.
         13    1    1    2    0    0 -0.27517650486E+03 -0.33909388720E+03 -0.35347963278E+03  0.56183150065E+03  0.10566000000E+00 0. -1.
          4    1    1    2  501    0  0.86507204848E+02 -0.29556791471E+03  0.46253942314E+03  0.55568570852E+03  0.00000000000E+00 0.  1.
</event>
<event>
 5    1  0.6336319E-005  0.4518588E+03  0.7818608E-02  0.9590230E-01
         21   -1    0    0  501  502  0.00000000000E+00  0.00000000000E+00  0.58326739238E+03  0.58326739238E+03  0.00000000000E+00 0.  1.
         -4   -1    0    0    0  501 -0.00000000000E+00 -0.00000000000E+00 -0.18378467645E+04  0.18378467645E+04  0.00000000000E+00 0. -1.
        -13    1    1    2    0    0 -0.55542464418E+03  0.22088790110E+03  0.14437710418E+03  0.61492500323E+03  0.10566000000E+00 0.  1.
         13    1    1    2    0    0  0.42941198834E+03 -0.97859648582E+02 -0.15264864479E+04  0.15887517281E+04  0.10566000000E+00 0. -1.
         -4    1    1    2    0  502  0.12601265584E+03 -0.12302825252E+03  0.12752997167E+03  0.21743742554E+03  0.00000000000E+00 0. -1.
</event>
<event>
 5    1  0.6336319E-005  0.3498948E+03  0.7818608E-02  0.9960891E-01
          4   -1    0    0  502    0 -0.00000000000E+00  0.00000000000E+00  0.68375803579E+03  0.68375803579E+03  0.00000000000E+00 0.  1.
         21   -1    0    0  501  502  0.00000000000E+00 -0.00000000000E+00 -0.64487618609E+03  0.64487618609E+03  0.00000000000E+00 0.  1.
        -13    1    1    2    0    0  0.20564268259E+03  0.17477279526E+03  0.44523379644E+03  0.52064151537E+03  0.10566000000E+00 0.  1.
         13    1    1    2    0    0  0.16699772591E+03 -0.21566145283E+03 -0.26073539543E+02  0.27400354619E+03  0.10566000000E+00 0. -1.
          4    1    1    2  501    0 -0.37264040850E+03  0.40888657567E+02 -0.38027840720E+03  0.53398916033E+03  0.00000000000E+00 0.  1.
</event>
<event>
 5    1  0.6336319E-005  0.4922113E+03  0.7818608E-02  0.1015689E+00
          4   -1    0    0  502    0 -0.00000000000E+00  0.00000000000E+00  0.79930185137E+03  0.79930185137E+03  0.00000000000E+00 0.  1.
         21   -1    0    0  501  502  0.00000000000E+00 -0.00000000000E+00 -0.48656829287E+03  0.48656829287E+03  0.00000000000E+00 0.  1.
        -13    1    1    2    0    0 -0.35665224177E+03  0.36069492952E+03 -0.71086731416E+02  0.51220600181E+03  0.10566000000E+00 0.  1.
         13    1    1    2    0    0 -0.19930562859E+01 -0.51884776477E+02  0.28562829186E+03  0.29030937735E+03  0.10566000000E+00 0. -1.
          4    1    1    2  501    0  0.35864529805E+03 -0.30881015305E+03  0.98191998057E+02  0.48335476508E+03  0.00000000000E+00 0.  1.
</event>
<event>
 5    1  0.6336319E-005  0.1564196E+03  0.7818608E-02  0.1094948E+00
         -4   -1    0    0    0  501 -0.00000000000E+00  0.00000000000E+00  0.88312663390E+02  0.88312663390E+02  0.00000000000E+00 0. -1.
         21   -1    0    0  501  502  0.00000000000E+00 -0.00000000000E+00 -0.63403606754E+03  0.63403606754E+03  0.00000000000E+00 0. -1.
        -13    1    1    2    0    0 -0.78037882658E+02  0.11364502038E+03 -0.68484068882E+02  0.15393238984E+03  0.10566000000E+00 0.  1.
         13    1    1    2    0    0  0.10598988632E+03 -0.16015757131E+03 -0.17019571743E+03  0.25661429626E+03  0.10566000000E+00 0. -1.
         -4    1    1    2    0  502 -0.27952003667E+02  0.46512550938E+02 -0.30704361784E+03  0.31180204483E+03  0.00000000000E+00 0. -1.
</event>
<event>
 5    1  0.6336319E-005  0.1883184E+03  0.7818608E-02  0.1068453E+00
          4   -1    0    0  502    0 -0.00000000000E+00  0.00000000000E+00  0.43870730053E+03  0.43870730053E+03  0.00000000000E+00 0.  1.
         21   -1    0    0  501  502  0.00000000000E+00 -0.00000000000E+00 -0.71360480276E+03  0.71360480276E+03  0.00000000000E+00 0.  1.
        -13    1    1    2    0    0 -0.92429650701E+02  0.12425263927E+03 -0.60042548653E+03  0.62007478156E+03  0.10566000000E+00 0.  1.
         13    1    1    2    0    0  0.20018786753E+03 -0.43744954949E+01  0.39763114472E+02  0.20414562194E+03  0.10566000000E+00 0. -1.
          4    1    1    2  501    0 -0.10775821683E+03 -0.11987814378E+03  0.28576486982E+03  0.32809169979E+03  0.00000000000E+00 0.  1.
</event>
<event>
 5    1  0.6336319E-005  0.2474992E+03  0.7818608E-02  0.1031697E+00
         21   -1    0    0  501  502  0.00000000000E+00  0.00000000000E+00  0.30149116994E+03  0.30149116994E+03  0.00000000000E+00 0.  1.
          4   -1    0    0  502    0 -0.00000000000E+00 -0.00000000000E+00 -0.33882350790E+03  0.33882350790E+03  0.00000000000E+00 0.  1.
        -13    1    1    2    0    0  0.67596388720E+02  0.23461952964E+03  0.20938938946E+02  0.24505926995E+03  0.10566000000E+00 0.  1.
         13    1    1    2    0    0 -0.83230795704E+02 -0.23507376423E+03 -0.15740488570E+03  0.29489548859E+03  0.10566000000E+00 0. -1.
          4    1    1    2  501    0  0.15634406984E+02  0.45423458916E+00  0.99133608797E+02  0.10035991931E+03  0.00000000000E+00 0.  1.
</event>
<event>
 5    1  0.6336319E-005  0.2680008E+02  0.7818608E-02  0.1432607E+00
         21   -1    0    0  501  502  0.00000000000E+00  0.00000000000E+00  0.39133208445E+03  0.39133208445E+03  0.00000000000E+00 0.  1.
         -4   -1    0    0    0  501 -0.00000000000E+00 -0.00000000000E+00 -0.31733606198E+01  0.31733606198E+01  0.00000000000E+00 0. -1.
        -13    1    1    2    0    0 -0.14732315122E+02 -0.28515250843E+02  0.15010694427E+03  0.15350005381E+03  0.10566000000E+00 0.  1.
         13    1    1    2    0    0  0.29295080674E+01  0.23134452893E+02  0.12013928819E+03  0.12238155359E+03  0.10566000000E+00 0. -1.
         -4    1    1    2    0  502  0.11802807055E+02  0.53807979505E+01  0.11791249138E+03  0.11862383767E+03  0.00000000000E+00 0. -1.
</event>
<event>
 5    1  0.6336319E-005  0.3842938E+03  0.7818608E-02  0.9968648E-01
         21   -1    0    0  501  502  0.00000000000E+00  0.00000000000E+00  0.24784724247E+03  0.24784724247E+03  0.00000000000E+00 0.  1.
          4   -1    0    0  502    0 -0.00000000000E+00 -0.00000000000E+00 -0.19566129660E+04  0.19566129660E+04  0.00000000000E+00 0.  1.
        -13    1    1    2    0    0 -0.25890207423E+03 -0.33684889038E+03 -0.84094564796E+03  0.94217145625E+03  0.10566000000E+00 0.  1.
         13    1    1    2    0    0  0.19615703396E+03 -0.42319311834E+02 -0.85448603995E+03  0.87773282367E+03  0.10566000000E+00 0. -1.
          4    1    1    2  501    0  0.62745040271E+02  0.37916820221E+03 -0.13334035600E+02  0.38455592851E+03  0.00000000000E+00 0.  1.
</event>
<event>
 5    1  0.6336319E-005  0.1909819E+03  0.7818608E-02  0.1066500E+00
          4   -1    0    0  502    0 -0.00000000000E+00  0.00000000000E+00  0.20223638061E+04  0.20223638061E+04  0.00000000000E+00 0.  1.
         21   -1    0    0  501  502  0.00000000000E+00 -0.00000000000E+00 -0.39556393012E+02  0.39556393012E+02  0.00000000000E+00 0.  1.
        -13    1    1    2    0    0 -0.25259908244E+03  0.26761497811E+02  0.96324120213E+03  0.99617071773E+03  0.10566000000E+00 0.  1.
         13    1    1    2    0    0  0.14788826900E+03  0.69441727368E+02  0.63678715080E+03  0.65741233651E+03  0.10566000000E+00 0. -1.
          4    1    1    2  501    0  0.10471081344E+03 -0.96203225179E+02  0.38277906015E+03  0.40833714487E+03  0.00000000000E+00 0.  1.
</event>
<event>
 5    1  0.6336319E-005  0.5865152E+03  0.7818608E-02  0.9306186E-01
         21   -1    0    0  501  502  0.00000000000E+00  0.00000000000E+00  0.20488225170E+03  0.20488225170E+03  0.00000000000E+00 0. -1.
         -4   -1    0    0    0  501 -0.00000000000E+00 -0.00000000000E+00 -0.34647807026E+04  0.34647807026E+04  0.00000000000E+00 0. -1.
        -13    1    1    2    0    0 -0.75431572391E+02 -0.49998166751E+03 -0.13366593791E+04  0.14291010800E+04  0.10566000000E+00 0.  1.
         13    1    1    2    0    0  0.34188453029E+03  0.72443643882E+03 -0.13350615025E+04  0.15569465028E+04  0.10566000000E+00 0. -1.
         -4    1    1    2    0  502 -0.26645295790E+03 -0.22445477131E+03 -0.58817756933E+03  0.68361537153E+03  0.00000000000E+00 0. -1.
</event>
<event>
 5    1  0.6336319E-005  0.8461265E+02  0.7818608E-02  0.1192878E+00
         21   -1    0    0  501  502  0.00000000000E+00  0.00000000000E+00  0.88304678722E+02  0.88304678722E+02  0.00000000000E+00 0.  1.
          4   -1    0    0  502    0 -0.00000000000E+00 -0.00000000000E+00 -0.14779856255E+03  0.14779856255E+03  0.00000000000E+00 0.  1.
        -13    1    1    2    0    0  0.10728313187E+03  0.97271417646E+01  0.32612088812E+01  0.10777260467E+03  0.10566000000E+00 0.  1.
         13    1    1    2    0    0 -0.74181562552E+02 -0.18593509826E+02 -0.51743415112E+02  0.92336422942E+02  0.10566000000E+00 0. -1.
          4    1    1    2  501    0 -0.33101569315E+02  0.88663680617E+01 -0.11011677602E+02  0.35994213664E+02  0.00000000000E+00 0.  1.
</event>
<event>
 5    1  0.6336319E-005  0.6234998E+02  0.7818608E-02  0.1248354E+00
          4   -1    0    0  502    0 -0.00000000000E+00  0.00000000000E+00  0.22418919339E+03  0.22418919339E+03  0.00000000000E+00 0.  1.
         21   -1    0    0  501  502  0.00000000000E+00 -0.00000000000E+00 -0.10642426810E+03  0.10642426810E+03  0.00000000000E+00 0.  1.
        -13    1    1    2    0    0  0.60346984723E+02 -0.14613128036E+02  0.15942371962E+03  0.17108838539E+03  0.10566000000E+00 0.  1.
         13    1    1    2    0    0 -0.75154470982E+02 -0.36386709373E+02 -0.60567342428E+02  0.10315329011E+03  0.10566000000E+00 0. -1.
          4    1    1    2  501    0  0.14807486259E+02  0.50999837408E+02  0.18908548100E+02  0.56371785994E+02  0.00000000000E+00 0.  1.
</event>
<event>
 5    1  0.6336319E-005  0.4648951E+03  0.7818608E-02  0.9558423E-01
         -4   -1    0    0    0  501 -0.00000000000E+00  0.00000000000E+00  0.93931215418E+03  0.93931215418E+03  0.00000000000E+00 0. -1.
         21   -1    0    0  501  502  0.00000000000E+00 -0.00000000000E+00 -0.64821767345E+03  0.64821767345E+03  0.00000000000E+00 0. -1.
        -13    1    1    2    0    0 -0.46738221075E+03  0.39785995977E+02  0.51223255776E+03  0.69455832066E+03  0.10566000000E+00 0.  1.
         13    1    1    2    0    0  0.45533051791E+03 -0.47460594829E+02  0.17975536465E+03  0.49182353633E+03  0.10566000000E+00 0. -1.
         -4    1    1    2    0  502  0.12051692842E+02  0.76745988515E+01 -0.40089344168E+03  0.40114797065E+03  0.00000000000E+00 0. -1.
</event>
<event>
 5    1  0.6336319E-005  0.3434764E+03  0.7818608E-02  0.9955627E-01
         21   -1    0    0  501  502  0.00000000000E+00  0.00000000000E+00  0.28528313407E+03  0.28528313407E+03  0.00000000000E+00 0. -1.
         -4   -1    0    0    0  501 -0.00000000000E+00 -0.00000000000E+00 -0.15891678311E+04  0.15891678311E+04  0.00000000000E+00 0. -1.
        -13    1    1    2    0    0 -0.23298811316E+03  0.17832576636E+03 -0.31933763051E+03  0.43365893655E+03  0.10566000000E+00 0.  1.
         13    1    1    2    0    0  0.32049774344E+03  0.16118195138E+03  0.37100622022E+02  0.36065896956E+03  0.10566000000E+00 0. -1.
         -4    1    1    2    0  502 -0.87509630281E+02 -0.33950771774E+03 -0.10216476886E+04  0.10801330591E+04  0.00000000000E+00 0. -1.
</event>
<event>
 5    1  0.6336319E-005  0.1520395E+03  0.7818608E-02  0.1137543E+00
         21   -1    0    0  501  502  0.00000000000E+00  0.00000000000E+00  0.52845968402E+03  0.52845968402E+03  0.00000000000E+00 0.  1.
          4   -1    0    0  502    0 -0.00000000000E+00 -0.00000000000E+00 -0.56601705071E+03  0.56601705071E+03  0.00000000000E+00 0.  1.
        -13    1    1    2    0    0 -0.10412545307E+03 -0.11245596690E+03  0.50151958603E+03  0.52441430263E+03  0.10566000000E+00 0.  1.
         13    1    1    2    0    0  0.21297180756E+02  0.51266804803E+02 -0.67615979951E+02  0.87485925106E+02  0.10566000000E+00 0. -1.
          4    1    1    2  501    0  0.82828272314E+02  0.61189162101E+02 -0.47146097277E+03  0.48257650699E+03  0.00000000000E+00 0.  1.
</event>
<event>
 5    1  0.6336319E-005  0.3493072E+03  0.7818608E-02  0.9888095E-01
         -4   -1    0    0    0  501 -0.00000000000E+00  0.00000000000E+00  0.67318150972E+03  0.67318150972E+03  0.00000000000E+00 0. -1.
         21   -1    0    0  501  502  0.00000000000E+00 -0.00000000000E+00 -0.10071938425E+04  0.10071938425E+04  0.00000000000E+00 0. -1.
        -13    1    1    2    0    0  0.11013889007E+03 -0.33580406053E+03  0.25847846976E+03  0.43784252040E+03  0.10566000000E+00 0.  1.
         13    1    1    2    0    0 -0.39718833986E+03  0.18268329556E+03 -0.75987328029E+03  0.87666366245E+03  0.10566000000E+00 0. -1.
         -4    1    1    2    0  502  0.28704944978E+03  0.15312076497E+03  0.16738247770E+03  0.36586916941E+03  0.00000000000E+00 0. -1.
</event>
<event>
 5    1  0.6336319E-005  0.4519480E+03  0.7818608E-02  0.9758786E-01
         21   -1    0    0  501  502  0.00000000000E+00  0.00000000000E+00  0.12193071474E+03  0.12193071474E+03  0.00000000000E+00 0.  1.
          4   -1    0    0  502    0 -0.00000000000E+00 -0.00000000000E+00 -0.34510244582E+04  0.34510244582E+04  0.00000000000E+00 0.  1.
        -13    1    1    2    0    0 -0.26782204964E+03  0.12532529422E+03 -0.17573769306E+04  0.17820798992E+04  0.10566000000E+00 0.  1.
         13    1    1    2    0    0 -0.12235881744E+03  0.21830216120E+03 -0.93985693302E+03  0.97260401989E+03  0.10566000000E+00 0. -1.
          4    1    1    2  501    0  0.39018086708E+03 -0.34362745542E+03 -0.63185987979E+03  0.81827125383E+03  0.00000000000E+00 0.  1.
</event>
<event>
 5    1  0.6336319E-005  0.6149404E+03  0.7818608E-02  0.9256443E-01
         21   -1    0    0  501  502  0.00000000000E+00  0.00000000000E+00  0.37535150256E+03  0.37535150256E+03  0.00000000000E+00 0.  1.
         -4   -1    0    0    0  501 -0.00000000000E+00 -0.00000000000E+00 -0.18899082162E+04  0.18899082162E+04  0.00000000000E+00 0. -1.
        -13    1    1    2    0    0 -0.59862184690E+02 -0.53965835144E+03 -0.65267043935E+03  0.84899548349E+03  0.10566000000E+00 0.  1.
         13    1    1    2    0    0  0.36733991570E+03  0.67868086684E+03 -0.70041724933E+03  0.10421759290E+04  0.10566000000E+00 0. -1.
         -4    1    1    2    0  502 -0.30747773101E+03 -0.13902251541E+03 -0.16146902498E+03  0.37408830627E+03  0.00000000000E+00 0. -1.
</event>
<event>
 5    1  0.6336319E-005  0.6345794E+02  0.7818608E-02  0.1245015E+00
         21   -1    0    0  501  502  0.00000000000E+00  0.00000000000E+00  0.12451380689E+03  0.12451380689E+03  0.00000000000E+00 0.  1.
          4   -1    0    0  502    0 -0.00000000000E+00 -0.00000000000E+00 -0.94260000891E+02  0.94260000891E+02  0.00000000000E+00 0.  1.
        -13    1    1    2    0    0  0.29310360082E+02  0.70264243496E+02  0.70150138495E+02  0.10352397895E+03  0.10566000000E+00 0.  1.
         13    1    1    2    0    0 -0.24870554524E+02 -0.56381696418E+02 -0.62875223704E+02  0.88038316051E+02  0.10566000000E+00 0. -1.
          4    1    1    2  501    0 -0.44398055586E+01 -0.13882547078E+02  0.22978891207E+02  0.27211512782E+02  0.00000000000E+00 0.  1.
</event>
<event>
 5    1  0.6336319E-005  0.1174205E+03  0.7818608E-02  0.1138571E+00
         21   -1    0    0  501  502  0.00000000000E+00  0.00000000000E+00  0.47633848474E+03  0.47633848474E+03  0.00000000000E+00 0.  1.
          4   -1    0    0  502    0 -0.00000000000E+00 -0.00000000000E+00 -0.30144213125E+03  0.30144213125E+03  0.00000000000E+00 0.  1.
        -13    1    1    2    0    0  0.38553060308E+02  0.93458367653E+02 -0.13165941545E+03  0.16599704149E+03  0.10566000000E+00 0.  1.
         13    1    1    2    0    0 -0.28163935400E+02 -0.15798186881E+03 -0.10714347706E+03  0.19295391670E+03  0.10566000000E+00 0. -1.
          4    1    1    2  501    0 -0.10389124908E+02  0.64523501152E+02  0.41369924600E+03  0.41882965781E+03  0.00000000000E+00 0.  1.
</event>
<event>
 5    1  0.6336319E-005  0.1170211E+03  0.7818608E-02  0.1174793E+00
         21   -1    0    0  501  502  0.00000000000E+00  0.00000000000E+00  0.14419164957E+03  0.14419164957E+03  0.00000000000E+00 0. -1.
         -4   -1    0    0    0  501 -0.00000000000E+00 -0.00000000000E+00 -0.16455364496E+03  0.16455364496E+03  0.00000000000E+00 0. -1.
        -13    1    1    2    0    0 -0.81557061295E+01 -0.48140093838E+02 -0.20496117153E+02  0.52953622724E+02  0.10566000000E+00 0.  1.
         13    1    1    2    0    0 -0.49335549679E+02  0.12021680690E+03  0.62788024373E+02  0.14432056088E+03  0.10566000000E+00 0. -1.
         -4    1    1    2    0  502  0.57491255809E+02 -0.72076713064E+02 -0.62653902611E+02  0.11147111093E+03  0.00000000000E+00 0. -1.
</event>
<event>
 5    1  0.6336319E-005  0.1096008E+03  0.7818608E-02  0.1149579E+00
         21   -1    0    0  501  502  0.00000000000E+00  0.00000000000E+00  0.56030930638E+02  0.56030930638E+02  0.00000000000E+00 0. -1.
          4   -1    0    0  502    0 -0.00000000000E+00 -0.00000000000E+00 -0.33570047775E+03  0.33570047775E+03  0.00000000000E+00 0.  1.
        -13    1    1    2    0    0 -0.10416707839E+03  0.49304554871E+02 -0.24079637888E+03  0.26695435302E+03  0.10566000000E+00 0.  1.
         13    1    1    2    0    0  0.84388977709E+02 -0.45888980744E+02 -0.41298109453E+02  0.10456023681E+03  0.10566000000E+00 0. -1.
          4    1    1    2  501    0  0.19778100678E+02 -0.34155741263E+01  0.24249412153E+01  0.20216818567E+02  0.00000000000E+00 0.  1.
</event>
<event>
 5    1  0.6336319E-005  0.9766839E+02  0.7818608E-02  0.1168472E+00
         -4   -1    0    0    0  501 -0.00000000000E+00  0.00000000000E+00  0.20115301166E+03  0.20115301166E+03  0.00000000000E+00 0. -1.
         21   -1    0    0  501  502  0.00000000000E+00 -0.00000000000E+00 -0.12438895498E+03  0.12438895498E+03  0.00000000000E+00 0.  1.
        -13    1    1    2    0    0  0.55621799968E+02  0.75313489263E+02 -0.58368108206E+02  0.11033020219E+03  0.10566000000E+00 0.  1.
         13    1    1    2    0    0 -0.48821516854E+02 -0.85466498356E+02  0.15980124587E+03  0.18768194424E+03  0.10566000000E+00 0. -1.
         -4    1    1    2    0  502 -0.68002831135E+01  0.10153009093E+02 -0.24669080984E+02  0.27529820208E+02  0.00000000000E+00 0. -1.
</event>
<event>
 5    1  0.6336319E-005  0.4308980E+03  0.7818608E-02  0.9882586E-01
         21   -1    0    0  501  502  0.00000000000E+00  0.00000000000E+00  0.15282881861E+04  0.15282881861E+04  0.00000000000E+00 0.  1.
          4   -1    0    0  502    0 -0.00000000000E+00 -0.00000000000E+00 -0.23781578303E+03  0.23781578303E+03  0.00000000000E+00 0.  1.
        -13    1    1    2    0    0 -0.34368318299E+03 -0.92732626380E+02  0.92365423367E+02  0.36776195135E+03  0.10566000000E+00 0.  1.
         13    1    1    2    0    0 -0.11698557791E+03  0.14914867960E+03  0.11938611184E+03  0.22401787636E+03  0.10566000000E+00 0. -1.
          4    1    1    2  501    0  0.46066876090E+03 -0.56416053215E+02  0.10787208679E+04  0.11743241414E+04  0.00000000000E+00 0.  1.
</event>
<event>
 5    1  0.6336319E-005  0.3280440E+03  0.7818608E-02  0.9963586E-01
         21   -1    0    0  501  502  0.00000000000E+00  0.00000000000E+00  0.50359759262E+03  0.50359759262E+03  0.00000000000E+00 0. -1.
         -4   -1    0    0    0  501 -0.00000000000E+00 -0.00000000000E+00 -0.31818399733E+03  0.31818399733E+03  0.00000000000E+00 0. -1.
        -13    1    1    2    0    0  0.23060520908E+03 -0.22180152685E+03  0.12039230807E+03  0.34186108110E+03  0.10566000000E+00 0.  1.
         13    1    1    2    0    0 -0.26167127612E+03  0.20652088705E+03 -0.69923514207E+02  0.34060540591E+03  0.10566000000E+00 0. -1.
         -4    1    1    2    0  502  0.31066067038E+02  0.15280639803E+02  0.13494480143E+03  0.13931510294E+03  0.00000000000E+00 0. -1.
</event>
<event>
 5    1  0.6336319E-005  0.5043721E+03  0.7818608E-02  0.9705677E-01
         -4   -1    0    0    0  501 -0.00000000000E+00  0.00000000000E+00  0.15747994368E+04  0.15747994368E+04  0.00000000000E+00 0. -1.
         21   -1    0    0  501  502  0.00000000000E+00 -0.00000000000E+00 -0.24924538377E+03  0.24924538377E+03  0.00000000000E+00 0. -1.
        -13    1    1    2    0    0 -0.26461452208E+02  0.21475229852E+03  0.29289577229E+03  0.36415203248E+03  0.10566000000E+00 0.  1.
         13    1    1    2    0    0 -0.45979854240E+03 -0.28078004545E+03  0.48989479143E+03  0.72818201801E+03  0.10566000000E+00 0. -1.
         -4    1    1    2    0  502  0.48625999461E+03  0.66027746927E+02  0.54276348932E+03  0.73171077009E+03  0.00000000000E+00 0. -1.
</event>
<event>
 5    1  0.6336319E-005  0.4431855E+03  0.7818608E-02  0.9612029E-01
         -4   -1    0    0    0  501 -0.00000000000E+00  0.00000000000E+00  0.17852190598E+04  0.17852190598E+04  0.00000000000E+00 0. -1.
         21   -1    0    0  501  502  0.00000000000E+00 -0.00000000000E+00 -0.28784824491E+03  0.28784824491E+03  0.00000000000E+00 0. -1.
        -13    1    1    2    0    0  0.34886554536E+03  0.20251395311E+03  0.32596017392E+03  0.51862232510E+03  0.10566000000E+00 0.  1.
         13    1    1    2    0    0 -0.40049337738E+03 -0.22474203412E+03  0.13189212846E+04  0.13965877321E+04  0.10566000000E+00 0. -1.
         -4    1    1    2    0  502  0.51627832018E+02  0.22228081009E+02 -0.14751064362E+03  0.15785724755E+03  0.00000000000E+00 0. -1.
</event>
<event>
 5    1  0.6336319E-005  0.3332657E+03  0.7818608E-02  0.9944493E-01
         -4   -1    0    0    0  501 -0.00000000000E+00  0.00000000000E+00  0.17545820856E+04  0.17545820856E+04  0.00000000000E+00 0. -1.
         21   -1    0    0  501  502  0.00000000000E+00 -0.00000000000E+00 -0.31235665998E+03  0.31235665998E+03  0.00000000000E+00 0. -1.
        -13    1    1    2    0    0 -0.98229544137E+02 -0.29654793371E+03  0.74470822934E+03  0.80757667025E+03  0.10566000000E+00 0.  1.
         13    1    1    2    0    0  0.21959248642E+03  0.46395330171E+03 -0.18958791338E+02  0.51364673968E+03  0.10566000000E+00 0. -1.
         -4    1    1    2    0  502 -0.12136294228E+03 -0.16740536800E+03  0.71647598765E+03  0.74571533568E+03  0.00000000000E+00 0. -1.
</event>
<event>
 5    1  0.6336319E-005  0.5014421E+03  0.7818608E-02  0.9545655E-01
          4   -1    0    0  502    0 -0.00000000000E+00  0.00000000000E+00  0.11224034933E+04  0.11224034933E+04  0.00000000000E+00 0.  1.
         21   -1    0    0  501  502  0.00000000000E+00 -0.00000000000E+00 -0.49962261869E+03  0.49962261869E+03  0.00000000000E+00 0.  1.
        -13    1    1    2    0    0  0.62328435867E+03 -0.83372939842E+02  0.24321105868E+03  0.67422998234E+03  0.10566000000E+00 0.  1.
         13    1    1    2    0    0 -0.32086200295E+03 -0.21792158072E+03  0.17879612274E+02  0.38828073861E+03  0.10566000000E+00 0. -1.
          4    1    1    2  501    0 -0.30242235572E+03  0.30129452056E+03  0.36169020362E+03  0.55951539099E+03  0.00000000000E+00 0.  1.
</event>
<event>
 5    1  0.6336319E-005  0.1449255E+03  0.7818608E-02  0.1106227E+00
         21   -1    0    0  501  502  0.00000000000E+00  0.00000000000E+00  0.33582631045E+03  0.33582631045E+03  0.00000000000E+00 0.  1.
          4   -1    0    0  502    0 -0.00000000000E+00 -0.00000000000E+00 -0.17974189084E+03  0.17974189084E+03  0.00000000000E+00 0.  1.
        -13    1    1    2    0    0 -0.14932526431E+03 -0.51509825678E+02  0.66203654862E+02  0.17127239060E+03  0.10566000000E+00 0.  1.
         13    1    1    2    0    0  0.13131653724E+03  0.50421066656E+02 -0.87724392161E+02  0.16577664811E+03  0.10566000000E+00 0. -1.
          4    1    1    2  501    0  0.18008727070E+02  0.10887590223E+01  0.17760515691E+03  0.17851916258E+03  0.00000000000E+00 0.  1.
</event>
<event>
 5    1  0.6336319E-005  0.4062974E+02  0.7818608E-02  0.1335472E+00
         21   -1    0    0  501  502  0.00000000000E+00  0.00000000000E+00  0.29344948589E+03  0.29344948589E+03  0.00000000000E+00 0.  1.
          4   -1    0    0  502    0 -0.00000000000E+00 -0.00000000000E+00 -0.67751946424E+02  0.67751946424E+02  0.00000000000E+00 0.  1.
        -13    1    1    2    0    0 -0.39109940855E+02  0.15157703809E+02 -0.55112406364E+02  0.69258443223E+02  0.10566000000E+00 0.  1.
         13    1    1    2    0    0  0.32510349348E+02 -0.26283485084E+01  0.44313698904E+02  0.55023141543E+02  0.10566000000E+00 0. -1.
          4    1    1    2  501    0  0.65995915065E+01 -0.12529355300E+02  0.23649624693E+03  0.23691984755E+03  0.00000000000E+00 0.  1.
</event>
<event>
 5    1  0.6336319E-005  0.2215168E+02  0.7818608E-02  0.1499194E+00
          4   -1    0    0  502    0 -0.00000000000E+00  0.00000000000E+00  0.17729404034E+02  0.17729404034E+02  0.00000000000E+00 0.  1.
         21   -1    0    0  501  502  0.00000000000E+00 -0.00000000000E+00 -0.18209577005E+03  0.18209577005E+03  0.00000000000E+00 0.  1.
        -13    1    1    2    0    0 -0.24570951406E+02  0.13819092416E+02 -0.63664931185E+01  0.28900559975E+02  0.10566000000E+00 0.  1.
         13    1    1    2    0    0  0.15894627126E+02  0.65120078985E+01 -0.73870119014E+01  0.18698249308E+02  0.10566000000E+00 0. -1.
          4    1    1    2  501    0  0.86763242806E+01 -0.20331100315E+02 -0.15061286100E+03  0.15222636480E+03  0.00000000000E+00 0.  1.
</event>
<event>
 5    1  0.6336319E-005  0.4367768E+02  0.7818608E-02  0.1319915E+00
         -4   -1    0    0    0  501 -0.00000000000E+00  0.00000000000E+00  0.17332648599E+03  0.17332648599E+03  0.00000000000E+00 0. -1.
         21   -1    0    0  501  502  0.00000000000E+00 -0.00000000000E+00 -0.24349603670E+02  0.24349603670E+02  0.00000000000E+00 0. -1.
        -13    1    1    2    0    0 -0.33091709980E+02  0.11214063873E+02  0.33418786517E+02  0.48349177390E+02  0.10566000000E+00 0.  1.
         13    1    1    2    0    0  0.45701870265E+02 -0.18317286303E+02  0.12340421116E+03  0.13286381908E+03  0.10566000000E+00 0. -1.
         -4    1    1    2    0  502 -0.12610160284E+02  0.71032224299E+01 -0.78461153580E+01  0.16463093193E+02  0.00000000000E+00 0. -1.
</event>
<event>
 5    1  0.6336319E-005  0.4904070E+03  0.7818608E-02  0.9680894E-01
          4   -1    0    0  502    0 -0.00000000000E+00  0.00000000000E+00  0.22274716255E+04  0.22274716255E+04  0.00000000000E+00 0.  1.
         21   -1    0    0  501  502  0.00000000000E+00 -0.00000000000E+00 -0.20170239580E+03  0.20170239580E+03  0.00000000000E+00 0.  1.
        -13    1    1    2    0    0  0.40976699883E+03 -0.27896533425E+03  0.44436374350E+03  0.66572501736E+03  0.10566000000E+00 0.  1.
         13    1    1    2    0    0  0.11140640025E+03  0.23120079739E+03  0.54452167133E+03  0.60197097641E+03  0.10566000000E+00 0. -1.
          4    1    1    2  501    0 -0.52117339908E+03  0.47764536861E+02  0.10368838149E+04  0.11614780275E+04  0.00000000000E+00 0.  1.
</event>
<event>
 5    1  0.6336319E-005  0.1960866E+03  0.7818608E-02  0.1076392E+00
         21   -1    0    0  501  502  0.00000000000E+00  0.00000000000E+00  0.95335343030E+03  0.95335343030E+03  0.00000000000E+00 0. -1.
         -4   -1    0    0    0  501 -0.00000000000E+00 -0.00000000000E+00 -0.38554379281E+03  0.38554379281E+03  0.00000000000E+00 0. -1.
        -13    1    1    2    0    0  0.53399480070E+02  0.12185334953E+03  0.67399830422E+02  0.14913916846E+03  0.10566000000E+00 0.  1.
         13    1    1    2    0    0  0.10487978022E+03 -0.23586456667E+03 -0.28264095186E+03  0.38277641116E+03  0.10566000000E+00 0. -1.
         -4    1    1    2    0  502 -0.15827926029E+03  0.11401121714E+03  0.78305075893E+03  0.80698164349E+03  0.00000000000E+00 0. -1.
</event>
<event>
 5    1  0.6336319E-005  0.3292688E+03  0.7818608E-02  0.1001016E+00
          4   -1    0    0  502    0 -0.00000000000E+00  0.00000000000E+00  0.12476623321E+04  0.12476623321E+04  0.00000000000E+00 0.  1.
         21   -1    0    0  501  502  0.00000000000E+00 -0.00000000000E+00 -0.47242904320E+03  0.47242904320E+03  0.00000000000E+00 0.  1.
        -13    1    1    2    0    0 -0.41128516808E+03  0.39511421231E+03  0.38853614098E+03  0.69009497482E+03  0.10566000000E+00 0.  1.
         13    1    1    2    0    0  0.17558156741E+03 -0.21599538325E+03  0.60247004628E+03  0.66366637720E+03  0.10566000000E+00 0. -1.
          4    1    1    2  501    0  0.23570360068E+03 -0.17911882905E+03 -0.21577289836E+03  0.36633002329E+03  0.00000000000E+00 0.  1.
</event>
<event>
 5    1  0.6336319E-005  0.4818738E+03  0.7818608E-02  0.1004962E+00
         21   -1    0    0  501  502  0.00000000000E+00  0.00000000000E+00  0.14875873809E+03  0.14875873809E+03  0.00000000000E+00 0. -1.
         -4   -1    0    0    0  501 -0.00000000000E+00 -0.00000000000E+00 -0.20608537402E+04  0.20608537402E+04  0.00000000000E+00 0. -1.
        -13    1    1    2    0    0  0.54683791081E+02  0.55758757738E+02 -0.28558014937E+03  0.29606652791E+03  0.10566000000E+00 0.  1.
         13    1    1    2    0    0 -0.49765144443E+03 -0.17085207235E+03 -0.10750226590E+04  0.11968797430E+04  0.10566000000E+00 0. -1.
         -4    1    1    2    0  502  0.44296765335E+03  0.11509331461E+03 -0.55149219378E+03  0.71666620737E+03  0.00000000000E+00 0. -1.
</event>
<event>
 5    1  0.6336319E-005  0.2185143E+03  0.7818608E-02  0.1048135E+00
          4   -1    0    0  502    0 -0.00000000000E+00  0.00000000000E+00  0.40711478093E+03  0.40711478093E+03  0.00000000000E+00 0.  1.
         21   -1    0    0  501  502  0.00000000000E+00 -0.00000000000E+00 -0.23129079167E+03  0.23129079167E+03  0.00000000000E+00 0.  1.
        -13    1    1    2    0    0 -0.16894682814E+03  0.14348835015E+03  0.19297093519E+03  0.29388727492E+03  0.10566000000E+00 0.  1.
         13    1    1    2    0    0  0.17196611447E+03 -0.12802137649E+03  0.92682931611E+02  0.23356359806E+03  0.10566000000E+00 0. -1.
          4    1    1    2  501    0 -0.30192863349E+01 -0.15466973665E+02 -0.10982987754E+03  0.11095469961E+03  0.00000000000E+00 0.  1.
</event>
<event>
 5    1  0.6336319E-005  0.2520817E+02  0.7818608E-02  0.1448109E+00
          4   -1    0    0  502    0 -0.00000000000E+00  0.00000000000E+00  0.25928676232E+02  0.25928676232E+02  0.00000000000E+00 0.  1.
         21   -1    0    0  501  502  0.00000000000E+00 -0.00000000000E+00 -0.11127686956E+03  0.11127686956E+03  0.00000000000E+00 0. -1.
        -13    1    1    2    0    0  0.90055473941E+01 -0.24413944278E+02  0.14459457779E+02  0.29769575784E+02  0.10566000000E+00 0.  1.
         13    1    1    2    0    0 -0.18510729394E+02  0.14363472599E+02 -0.43008111004E+02  0.48976169960E+02  0.10566000000E+00 0. -1.
          4    1    1    2  501    0  0.95051820001E+01  0.10050471680E+02 -0.56799540105E+02  0.58459800051E+02  0.00000000000E+00 0.  1.
</event>
<event>
 5    1  0.6336319E-005  0.4878385E+03  0.7818608E-02  0.9729679E-01
          4   -1    0    0  502    0 -0.00000000000E+00  0.00000000000E+00  0.17672439831E+04  0.17672439831E+04  0.00000000000E+00 0.  1.
         21   -1    0    0  501  502  0.00000000000E+00 -0.00000000000E+00 -0.21756064469E+03  0.21756064469E+03  0.00000000000E+00 0.  1.
        -13    1    1    2    0    0  0.57705148116E+03 -0.87029275916E+02  0.48644569133E+03  0.75973148451E+03  0.10566000000E+00 0.  1.
         13    1    1    2    0    0 -0.21457316622E+03 -0.48647254472E+02  0.42726856415E+03  0.48058988348E+03  0.10566000000E+00 0. -1.
          4    1    1    2  501    0 -0.36247831494E+03  0.13567653039E+03  0.63596908296E+03  0.74448325984E+03  0.00000000000E+00 0.  1.
</event>
<event>
 5    1  0.6336319E-005  0.1751314E+03  0.7818608E-02  0.1078665E+00
         21   -1    0    0  501  502  0.00000000000E+00  0.00000000000E+00  0.22273833468E+03  0.22273833468E+03  0.00000000000E+00 0.  1.
         -4   -1    0    0    0  501 -0.00000000000E+00 -0.00000000000E+00 -0.73291586491E+03  0.73291586491E+03  0.00000000000E+00 0. -1.
        -13    1    1    2    0    0 -0.46163630609E+02  0.16823000844E+03  0.15371788410E+03  0.23251153861E+03  0.10566000000E+00 0.  1.
         13    1    1    2    0    0  0.21929254968E+02 -0.17389047534E+03 -0.67390106436E+03  0.69631993031E+03  0.10566000000E+00 0. -1.
         -4    1    1    2    0  502  0.24234375641E+02  0.56604668934E+01  0.10005650034E+02  0.26822730673E+02  0.00000000000E+00 0. -1.
</event>
<event>
 5    1  0.6336319E-005  0.5117504E+02  0.7818608E-02  0.1287077E+00
         21   -1    0    0  501  502  0.00000000000E+00  0.00000000000E+00  0.36902063376E+03  0.36902063376E+03  0.00000000000E+00 0. -1.
         -4   -1    0    0    0  501 -0.00000000000E+00 -0.00000000000E+00 -0.30508300655E+02  0.30508300655E+02  0.00000000000E+00 0. -1.
        -13    1    1    2    0    0 -0.18190892792E+02 -0.29683161638E+02  0.78184196610E+02  0.85584919401E+02  0.10566000000E+00 0.  1.
         13    1    1    2    0    0  0.38059239943E+02  0.43320839619E+02  0.54416324616E+01  0.57920837513E+02  0.10566000000E+00 0. -1.
         -4    1    1    2    0  502 -0.19868347151E+02 -0.13637677981E+02  0.25488650404E+03  0.25602317750E+03  0.00000000000E+00 0. -1.
</event>
<event>
 5    1  0.6336319E-005  0.6860966E+03  0.7818608E-02  0.9143394E-01
         21   -1    0    0  501  502  0.00000000000E+00  0.00000000000E+00  0.46649593301E+03  0.46649593301E+03  0.00000000000E+00 0.  1.
         -4   -1    0    0    0  501 -0.00000000000E+00 -0.00000000000E+00 -0.20399347060E+04  0.20399347060E+04  0.00000000000E+00 0. -1.
        -13    1    1    2    0    0 -0.49092853407E+03 -0.43910141740E+03 -0.78967304650E+03  0.10283017125E+04  0.10566000000E+00 0.  1.
         13    1    1    2    0    0  0.78422389046E+03  0.20565392546E+03 -0.29628367693E+03  0.86318287507E+03  0.10566000000E+00 0. -1.
         -4    1    1    2    0  502 -0.29329535639E+03  0.23344749194E+03 -0.48748204953E+03  0.61494605144E+03  0.00000000000E+00 0. -1.
</event>
<event>
 5    1  0.6336319E-005  0.6442523E+02  0.7818608E-02  0.1242160E+00
          4   -1    0    0  502    0 -0.00000000000E+00  0.00000000000E+00  0.65347498727E+02  0.65347498727E+02  0.00000000000E+00 0.  1.
         21   -1    0    0  501  502  0.00000000000E+00 -0.00000000000E+00 -0.11206718065E+04  0.11206718065E+04  0.00000000000E+00 0.  1.
        -13    1    1    2    0    0 -0.50078596948E+02 -0.40649945554E+02  0.45184541754E+02  0.78752383604E+02  0.10566000000E+00 0.  1.
         13    1    1    2    0    0  0.69076419378E+02  0.13656504323E+02 -0.41249369729E+03  0.41846040827E+03  0.10566000000E+00 0. -1.
          4    1    1    2  501    0 -0.18997822430E+02  0.26993441231E+02 -0.68801515224E+03  0.68880651335E+03  0.00000000000E+00 0.  1.
</event>
<event>
 5    1  0.6336319E-005  0.3831044E+03  0.7818608E-02  0.1015592E+00
         21   -1    0    0  501  502  0.00000000000E+00  0.00000000000E+00  0.10749878399E+04  0.10749878399E+04  0.00000000000E+00 0.  1.
          4   -1    0    0  502    0 -0.00000000000E+00 -0.00000000000E+00 -0.36944548929E+03  0.36944548929E+03  0.00000000000E+00 0.  1.
        -13    1    1    2    0    0  0.44300846839E+03  0.10623743996E+03  0.48222036956E+02  0.45811382071E+03  0.10566000000E+00 0.  1.
         13    1    1    2    0    0 -0.10352841149E+03  0.38520749232E+02 -0.96711333110E+02  0.14681646100E+03  0.10566000000E+00 0. -1.
          4    1    1    2  501    0 -0.33948005691E+03 -0.14475818919E+03  0.75403164672E+03  0.83950304742E+03  0.00000000000E+00 0.  1.
</event>
<event>
 5    1  0.6336319E-005  0.4979354E+03  0.7818608E-02  0.9497924E-01
         21   -1    0    0  501  502  0.00000000000E+00  0.00000000000E+00  0.31642078908E+04  0.31642078908E+04  0.00000000000E+00 0.  1.
          4   -1    0    0  502    0 -0.00000000000E+00 -0.00000000000E+00 -0.22333428211E+03  0.22333428211E+03  0.00000000000E+00 0.  1.
        -13    1    1    2    0    0  0.53025692195E+03  0.27770598681E+03  0.15976883164E+04  0.17061362741E+04  0.10566000000E+00 0.  1.
         13    1    1    2    0    0 -0.75333836593E+02 -0.46469370672E+03  0.40030425670E+03  0.61794735787E+03  0.10566000000E+00 0. -1.
          4    1    1    2  501    0 -0.45492308536E+03  0.18698771991E+03  0.94288103563E+03  0.10634585410E+04  0.00000000000E+00 0.  1.
</event>
<event>
 5    1  0.6336319E-005  0.5026311E+03  0.7818608E-02  0.9488819E-01
         21   -1    0    0  501  502  0.00000000000E+00  0.00000000000E+00  0.24032956241E+03  0.24032956241E+03  0.00000000000E+00 0. -1.
         -4   -1    0    0    0  501 -0.00000000000E+00 -0.00000000000E+00 -0.26206244107E+04  0.26206244107E+04  0.00000000000E+00 0. -1.
        -13    1    1    2    0    0 -0.44649251838E+03  0.15643825520E+03 -0.77622047296E+03  0.90903615465E+03  0.10566000000E+00 0.  1.
         13    1    1    2    0    0 -0.14255874832E+03 -0.41456980637E+03 -0.88211549283E+03  0.98504765110E+03  0.10566000000E+00 0. -1.
         -4    1    1    2    0  502  0.58905126670E+03  0.25813155116E+03 -0.72195888246E+03  0.96687016733E+03  0.00000000000E+00 0. -1.
</event>
<event>
 5    1  0.6336319E-005  0.4547266E+03  0.7818608E-02  0.9874570E-01
         -4   -1    0    0    0  501 -0.00000000000E+00  0.00000000000E+00  0.14686486608E+04  0.14686486608E+04  0.00000000000E+00 0. -1.
         21   -1    0    0  501  502  0.00000000000E+00 -0.00000000000E+00 -0.50015853550E+03  0.50015853550E+03  0.00000000000E+00 0. -1.
        -13    1    1    2    0    0  0.72082599104E+02 -0.14919212505E+03  0.93744177549E+03  0.95197231308E+03  0.10566000000E+00 0.  1.
         13    1    1    2    0    0 -0.48376636817E+03  0.24631527484E+03  0.17444579039E+03  0.57020387454E+03  0.10566000000E+00 0. -1.
         -4    1    1    2    0  502  0.41168376907E+03 -0.97123149789E+02 -0.14339744060E+03  0.44663100867E+03  0.00000000000E+00 0. -1.
</event>
<event>
 5    1  0.6336319E-005  0.4972571E+03  0.7818608E-02  0.9637373E-01
         21   -1    0    0  501  502  0.00000000000E+00  0.00000000000E+00  0.17743361128E+03  0.17743361128E+03  0.00000000000E+00 0. -1.
         -4   -1    0    0    0  501 -0.00000000000E+00 -0.00000000000E+00 -0.26320540516E+04  0.26320540516E+04  0.00000000000E+00 0. -1.
        -13    1    1    2    0    0  0.19431734250E+03 -0.21100118968E+03 -0.87068618600E+03  0.91671979214E+03  0.10566000000E+00 0.  1.
         13    1    1    2    0    0 -0.39131405956E+02 -0.39406906704E+03 -0.77911989218E+03  0.87398484775E+03  0.10566000000E+00 0. -1.
         -4    1    1    2    0  502 -0.15518593655E+03  0.60507025672E+03 -0.80481436217E+03  0.10187830230E+04  0.00000000000E+00 0. -1.
</event>
<event>
 5    1  0.6336319E-005  0.5146314E+03  0.7818608E-02  0.9877268E-01
         -4   -1    0    0    0  501 -0.00000000000E+00  0.00000000000E+00  0.46200680325E+03  0.46200680325E+03  0.00000000000E+00 0. -1.
         21   -1    0    0  501  502  0.00000000000E+00 -0.00000000000E+00 -0.74963312793E+03  0.74963312793E+03  0.00000000000E+00 0. -1.
        -13    1    1    2    0    0  0.32240427913E+02  0.10858823740E+03  0.44722787749E+02  0.12178254966E+03  0.10566000000E+00 0.  1.
         13    1    1    2    0    0 -0.49214798484E+03  0.14019807586E+03 -0.12076016407E+03  0.52578338491E+03  0.10566000000E+00 0. -1.
         -4    1    1    2    0  502  0.45990755693E+03 -0.24878631326E+03 -0.21158894836E+03  0.56407399661E+03  0.00000000000E+00 0. -1.
</event>
<event>
 5    1  0.6336319E-005  0.1030517E+03  0.7818608E-02  0.1159603E+00
         21   -1    0    0  501  502  0.00000000000E+00  0.00000000000E+00  0.99191089930E+02  0.99191089930E+02  0.00000000000E+00 0.  1.
         -4   -1    0    0    0  501 -0.00000000000E+00 -0.00000000000E+00 -0.43182058412E+03  0.43182058412E+03  0.00000000000E+00 0. -1.
        -13    1    1    2    0    0 -0.63352613474E+02 -0.76384458633E+02  0.56951046947E+02  0.11441840790E+03  0.10566000000E+00 0.  1.
         13    1    1    2    0    0  0.75336113232E+02  0.70834421908E+02 -0.38990354803E+03  0.40338298578E+03  0.10566000000E+00 0. -1.
         -4    1    1    2    0  502 -0.11983499758E+02  0.55500367244E+01  0.32300689041E+00  0.13210280373E+02  0.00000000000E+00 0. -1.
</event>
<event>
 5    1  0.6336319E-005  0.2305271E+03  0.7818608E-02  0.1041009E+00
         -4   -1    0    0    0  501 -0.00000000000E+00  0.00000000000E+00  0.31391006171E+03  0.31391006171E+03  0.00000000000E+00 0. -1.
         21   -1    0    0  501  502  0.00000000000E+00 -0.00000000000E+00 -0.73742666760E+03  0.73742666760E+03  0.00000000000E+00 0.  1.
        -13    1    1    2    0    0  0.22362510837E+03  0.22582199053E+02 -0.26139348980E+03  0.34473861472E+03  0.10566000000E+00 0.  1.
         13    1    1    2    0    0 -0.22900419159E+03 -0.33882382996E+02  0.22290402585E+03  0.32136762679E+03  0.10566000000E+00 0. -1.
         -4    1    1    2    0  502  0.53790832176E+01  0.11300183943E+02 -0.38502714194E+03  0.38523048779E+03  0.00000000000E+00 0. -1.
</event>
<event>
 5    1  0.6336319E-005  0.2753727E+03  0.7818608E-02  0.1018023E+00
         21   -1    0    0  501  502  0.00000000000E+00  0.00000000000E+00  0.81213773897E+02  0.81213773897E+02  0.00000000000E+00 0. -1.
          4   -1    0    0  502    0 -0.00000000000E+00 -0.00000000000E+00 -0.15700318783E+04  0.15700318783E+04  0.00000000000E+00 0.  1.
        -13    1    1    2    0    0 -0.11654746216E+03 -0.26812989691E+03 -0.10846724868E+04  0.11233838913E+04  0.10566000000E+00 0.  1.
         13    1    1    2    0    0  0.90416016276E+02  0.22850258067E+03 -0.41202681671E+03  0.47974430087E+03  0.10566000000E+00 0. -1.
          4    1    1    2  501    0  0.26131445888E+02  0.39627316241E+02  0.78811990902E+01  0.48117459989E+02  0.00000000000E+00 0.  1.
</event>
<event>
 5    1  0.6336319E-005  0.8994136E+03  0.7818608E-02  0.9047664E-01
          4   -1    0    0  502    0 -0.00000000000E+00  0.00000000000E+00  0.21587735859E+04  0.21587735859E+04  0.00000000000E+00 0.  1.
         21   -1    0    0  501  502  0.00000000000E+00 -0.00000000000E+00 -0.63628522499E+03  0.63628522499E+03  0.00000000000E+00 0.  1.
        -13    1    1    2    0    0 -0.50189692718E+03 -0.53536406464E+03  0.96602209847E+03  0.12131421653E+04  0.10566000000E+00 0.  1.
         13    1    1    2    0    0  0.13117858033E+03 -0.42526739132E+03  0.23467963495E+03  0.50312495096E+03  0.10566000000E+00 0. -1.
          4    1    1    2  501    0  0.37071834685E+03  0.96063145595E+03  0.32178662749E+03  0.10787916947E+04  0.00000000000E+00 0.  1.
</event>
<event>
 5    1  0.6336319E-005  0.9004753E+02  0.7818608E-02  0.1182163E+00
         21   -1    0    0  501  502  0.00000000000E+00  0.00000000000E+00  0.32396347740E+03  0.32396347740E+03  0.00000000000E+00 0. -1.
         -4   -1    0    0    0  501 -0.00000000000E+00 -0.00000000000E+00 -0.13976274833E+03  0.13976274833E+03  0.00000000000E+00 0. -1.
        -13    1    1    2    0    0 -0.46390901157E+02 -0.68275903323E+02  0.26976450195E+02  0.86841549467E+02  0.10566000000E+00 0.  1.
         13    1    1    2    0    0  0.62457125126E+02  0.68714189802E+02 -0.89895399319E+02  0.12924289668E+03  0.10566000000E+00 0. -1.
         -4    1    1    2    0  502 -0.16066223970E+02 -0.43828647826E+00  0.24711967819E+03  0.24764177959E+03  0.00000000000E+00 0. -1.
</event>
<event>
 5    1  0.6336319E-005  0.5022187E+03  0.7818608E-02  0.1009162E+00
         -4   -1    0    0    0  501 -0.00000000000E+00  0.00000000000E+00  0.78624825408E+03  0.78624825408E+03  0.00000000000E+00 0. -1.
         21   -1    0    0  501  502  0.00000000000E+00 -0.00000000000E+00 -0.48822461269E+03  0.48822461269E+03  0.00000000000E+00 0. -1.
        -13    1    1    2    0    0 -0.48141110143E+02 -0.36194870322E+02  0.26027321048E+03  0.26715125001E+03  0.10566000000E+00 0.  1.
         13    1    1    2    0    0 -0.13772376265E+03  0.49381001773E+03  0.23577949217E+02  0.51319791432E+03  0.10566000000E+00 0. -1.
         -4    1    1    2    0  502  0.18586487279E+03 -0.45761514741E+03  0.14172481692E+02  0.49412370244E+03  0.00000000000E+00 0. -1.
</event>
<event>
 5    1  0.6336319E-005  0.4617011E+03  0.7818608E-02  0.9651073E-01
         21   -1    0    0  501  502  0.00000000000E+00  0.00000000000E+00  0.11207344057E+04  0.11207344057E+04  0.00000000000E+00 0.  1.
          4   -1    0    0  502    0 -0.00000000000E+00 -0.00000000000E+00 -0.41800845567E+03  0.41800845567E+03  0.00000000000E+00 0.  1.
        -13    1    1    2    0    0  0.27514694362E+03 -0.54103225756E+03  0.38806950844E+03  0.72043021789E+03  0.10566000000E+00 0.  1.
         13    1    1    2    0    0 -0.30899794680E+03  0.14531491376E+03  0.60472763641E+02  0.34677531861E+03  0.10566000000E+00 0. -1.
          4    1    1    2  501    0  0.33851003183E+02  0.39571734380E+03  0.25418367794E+03  0.47153732485E+03  0.00000000000E+00 0.  1.
</event>
<event>
 5    1  0.6336319E-005  0.3853971E+03  0.7818608E-02  0.9904383E-01
         21   -1    0    0  501  502  0.00000000000E+00  0.00000000000E+00  0.28890654174E+03  0.28890654174E+03  0.00000000000E+00 0.  1.
          4   -1    0    0  502    0 -0.00000000000E+00 -0.00000000000E+00 -0.21756360294E+04  0.21756360294E+04  0.00000000000E+00 0.  1.
        -13    1    1    2    0    0 -0.19482706396E+03  0.26776967022E+03 -0.71727981419E+03  0.79003071089E+03  0.10566000000E+00 0.  1.
         13    1    1    2    0    0  0.20023245791E+03  0.14338343749E+03 -0.12339577353E+04  0.12582939049E+04  0.10566000000E+00 0. -1.
          4    1    1    2  501    0 -0.54053939525E+01 -0.41115310771E+03  0.64508061915E+02  0.41621795530E+03  0.00000000000E+00 0.  1.
</event>
<event>
 5    1  0.7196197E-005  0.2636304E+03  0.7818608E-02  0.1038866E+00
         -4   -1    0    0    0  501 -0.00000000000E+00  0.00000000000E+00  0.99422472402E+03  0.99422472402E+03  0.00000000000E+00 0. -1.
         21   -1    0    0  501  502  0.00000000000E+00 -0.00000000000E+00 -0.70361696359E+03  0.70361696359E+03  0.00000000000E+00 0. -1.
        -13    1    1    2    0    0  0.48353663572E+02 -0.15720824409E+03  0.60238903188E+03  0.62443980149E+03  0.10566000000E+00 0.  1.
         13    1    1    2    0    0  0.14494762285E+03 -0.37250334248E+02  0.33717674799E+03  0.36889777896E+03  0.10566000000E+00 0. -1.
         -4    1    1    2    0  502 -0.19330128642E+03  0.19445857834E+03 -0.64895801943E+03  0.70450410716E+03  0.00000000000E+00 0. -1.
</event>
<event>
 5    1  0.6336319E-005  0.4466238E+03  0.7818608E-02  0.1023149E+00
          4   -1    0    0  502    0 -0.00000000000E+00  0.00000000000E+00  0.15015719492E+04  0.15015719492E+04  0.00000000000E+00 0.  1.
         21   -1    0    0  501  502  0.00000000000E+00 -0.00000000000E+00 -0.18457429701E+03  0.18457429701E+03  0.00000000000E+00 0.  1.
        -13    1    1    2    0    0  0.47870225182E+03 -0.64726682640E+02  0.98329323132E+03  0.10955414092E+04  0.10566000000E+00 0.  1.
         13    1    1    2    0    0 -0.53378068188E+02 -0.12944877969E+02  0.36394501770E+02  0.65888989613E+02  0.10566000000E+00 0. -1.
          4    1    1    2  501    0 -0.42532418363E+03  0.77671560608E+02  0.29730991909E+03  0.52471584739E+03  0.00000000000E+00 0.  1.
</event>
<event>
 5    1  0.6336319E-005  0.4702243E+03  0.7818608E-02  0.9890937E-01
         -4   -1    0    0    0  501 -0.00000000000E+00  0.00000000000E+00  0.35734949994E+04  0.35734949994E+04  0.00000000000E+00 0. -1.
         21   -1    0    0  501  502  0.00000000000E+00 -0.00000000000E+00 -0.94366388456E+02  0.94366388456E+02  0.00000000000E+00 0. -1.
        -13    1    1    2    0    0  0.12309445749E+03 -0.70457678698E+02  0.64207968641E+03  0.65755825963E+03  0.10566000000E+00 0.  1.
         13    1    1    2    0    0  0.33002471723E+03  0.31220439671E+03  0.92584544232E+03  0.10312990321E+04  0.10566000000E+00 0. -1.
         -4    1    1    2    0  502 -0.45311917472E+03 -0.24174671801E+03  0.19112034822E+04  0.19790040961E+04  0.00000000000E+00 0. -1.
</event>
<event>
 5    1  0.6336319E-005  0.1632124E+03  0.7818608E-02  0.1088765E+00
         21   -1    0    0  501  502  0.00000000000E+00  0.00000000000E+00  0.14735150172E+03  0.14735150172E+03  0.00000000000E+00 0.  1.
         -4   -1    0    0    0  501 -0.00000000000E+00 -0.00000000000E+00 -0.60467076660E+03  0.60467076660E+03  0.00000000000E+00 0. -1.
        -13    1    1    2    0    0  0.77841038012E+02  0.16204592029E+03 -0.47310108977E+02  0.18589342392E+03  0.10566000000E+00 0.  1.
         13    1    1    2    0    0 -0.75578717938E+02 -0.14112752249E+03 -0.47318946470E+03  0.49953718668E+03  0.10566000000E+00 0. -1.
         -4    1    1    2    0  502 -0.22623200741E+01 -0.20918397801E+02  0.63180308794E+02  0.66591657721E+02  0.00000000000E+00 0. -1.
</event>
<event>
 5    1  0.6336319E-005  0.4984847E+03  0.7818608E-02  0.9481299E-01
         21   -1    0    0  501  502  0.00000000000E+00  0.00000000000E+00  0.23722432246E+03  0.23722432246E+03  0.00000000000E+00 0.  1.
         -4   -1    0    0    0  501 -0.00000000000E+00 -0.00000000000E+00 -0.13450996032E+04  0.13450996032E+04  0.00000000000E+00 0. -1.
        -13    1    1    2    0    0 -0.18213530134E+03  0.47732602130E+03 -0.44240827131E+03  0.67582430283E+03  0.10566000000E+00 0.  1.
         13    1    1    2    0    0  0.19681329787E+03 -0.44930452286E+03 -0.70312514360E+03  0.85731849812E+03  0.10566000000E+00 0. -1.
         -4    1    1    2    0  502 -0.14677996528E+02 -0.28021498442E+02  0.37658134183E+02  0.49181124704E+02  0.00000000000E+00 0. -1.
</event>
<event>
 5    1  0.6336319E-005  0.4846815E+03  0.7818608E-02  0.9760624E-01
         -4   -1    0    0    0  501 -0.00000000000E+00  0.00000000000E+00  0.19764489488E+04  0.19764489488E+04  0.00000000000E+00 0. -1.
         21   -1    0    0  501  502  0.00000000000E+00 -0.00000000000E+00 -0.23269198653E+03  0.23269198653E+03  0.00000000000E+00 0. -1.
        -13    1    1    2    0    0  0.17204676938E+03  0.10511975823E+03  0.70536107385E+03  0.73361059841E+03  0.10566000000E+00 0.  1.
         13    1    1    2    0    0 -0.49124504770E+03  0.18077207547E+03  0.25423235538E+03  0.58192296899E+03  0.10566000000E+00 0. -1.
         -4    1    1    2    0  502  0.31919827832E+03 -0.28589183369E+03  0.78416353301E+03  0.89360736789E+03  0.00000000000E+00 0. -1.
</event>
<event>
 5    1  0.6336319E-005  0.4166392E+03  0.7818608E-02  0.9682183E-01
          4   -1    0    0  502    0 -0.00000000000E+00  0.00000000000E+00  0.12107440785E+04  0.12107440785E+04  0.00000000000E+00 0.  1.
         21   -1    0    0  501  502  0.00000000000E+00 -0.00000000000E+00 -0.45599889687E+03  0.45599889687E+03  0.00000000000E+00 0.  1.
        -13    1    1    2    0    0  0.63778327415E+03 -0.94557653411E+02  0.42831677979E+01  0.64476895962E+03  0.10566000000E+00 0.  1.
         13    1    1    2    0    0 -0.32585845304E+03  0.17730355854E+03  0.39680328335E+03  0.54320635133E+03  0.10566000000E+00 0. -1.
          4    1    1    2  501    0 -0.31192482110E+03 -0.82745905127E+02  0.35365873049E+03  0.47876766441E+03  0.00000000000E+00 0.  1.
</event>
<event>
 5    1  0.6336319E-005  0.5755377E+02  0.7818608E-02  0.1263760E+00
         21   -1    0    0  501  502  0.00000000000E+00  0.00000000000E+00  0.57907176144E+03  0.57907176144E+03  0.00000000000E+00 0. -1.
         -4   -1    0    0    0  501 -0.00000000000E+00 -0.00000000000E+00 -0.21497084733E+02  0.21497084733E+02  0.00000000000E+00 0. -1.
        -13    1    1    2    0    0 -0.72290930082E+02 -0.11620353023E+01  0.11321210707E+03  0.13432915264E+03  0.10566000000E+00 0.  1.
         13    1    1    2    0    0  0.50262272893E+02 -0.51922895516E+01  0.49578650660E+02  0.70790604690E+02  0.10566000000E+00 0. -1.
         -4    1    1    2    0  502  0.22028657189E+02  0.63543248540E+01  0.39478391898E+03  0.39544908884E+03  0.00000000000E+00 0. -1.
</event>
<event>
 5    1  0.6336319E-005  0.6535836E+02  0.7818608E-02  0.1239459E+00
         21   -1    0    0  501  502  0.00000000000E+00  0.00000000000E+00  0.76857715541E+02  0.76857715541E+02  0.00000000000E+00 0.  1.
         -4   -1    0    0    0  501 -0.00000000000E+00 -0.00000000000E+00 -0.12499251446E+03  0.12499251446E+03  0.00000000000E+00 0. -1.
        -13    1    1    2    0    0  0.41854507864E+02  0.50341471828E+02  0.26443294368E+02  0.70606816919E+02  0.10566000000E+00 0.  1.
         13    1    1    2    0    0 -0.24284095587E+02 -0.61314189977E+02 -0.85377830262E+02  0.10788202934E+03  0.10566000000E+00 0. -1.
         -4    1    1    2    0  502 -0.17570412277E+02  0.10972718149E+02  0.10799736979E+02  0.23361383734E+02  0.00000000000E+00 0. -1.
</event>
<event>
 5    1  0.6336319E-005  0.1236720E+03  0.7818608E-02  0.1130426E+00
         -4   -1    0    0    0  501 -0.00000000000E+00  0.00000000000E+00  0.16604642994E+03  0.16604642994E+03  0.00000000000E+00 0. -1.
         21   -1    0    0  501  502  0.00000000000E+00 -0.00000000000E+00 -0.38370897749E+03  0.38370897749E+03  0.00000000000E+00 0.  1.
        -13    1    1    2    0    0 -0.10307195102E+03  0.43534742951E+02 -0.27017773965E+03  0.29242968915E+03  0.10566000000E+00 0.  1.
         13    1    1    2    0    0  0.11901330662E+03 -0.37469502012E+02  0.12870085440E+03  0.17925415426E+03  0.10566000000E+00 0. -1.
         -4    1    1    2    0  502 -0.15941355601E+02 -0.60652409394E+01 -0.76185662304E+02  0.78071564009E+02  0.00000000000E+00 0. -1.
</event>
<event>
 5    1  0.6336319E-005  0.3965939E+03  0.7818608E-02  0.9738935E-01
         -4   -1    0    0    0  501 -0.00000000000E+00  0.00000000000E+00  0.29139913506E+04  0.29139913506E+04  0.00000000000E+00 0. -1.
         21   -1    0    0  501  502  0.00000000000E+00 -0.00000000000E+00 -0.30851161092E+03  0.30851161092E+03  0.00000000000E+00 0. -1.
        -13    1    1    2    0    0  0.23359768700E+03  0.32433060608E+03  0.10016793951E+04  0.10784803397E+04  0.10566000000E+00 0.  1.
         13    1    1    2    0    0 -0.32588749442E+03 -0.23579877107E+03  0.18356687163E+04  0.18792241396E+04  0.10566000000E+00 0. -1.
         -4    1    1    2    0  502  0.92289807426E+02 -0.88531835008E+02 -0.23186837176E+03  0.26479848222E+03  0.00000000000E+00 0. -1.
</event>
<event>
 5    1  0.6336319E-005  0.4955363E+03  0.7818608E-02  0.9723826E-01
          4   -1    0    0  502    0 -0.00000000000E+00  0.00000000000E+00  0.11428370216E+04  0.11428370216E+04  0.00000000000E+00 0.  1.
         21   -1    0    0  501  502  0.00000000000E+00 -0.00000000000E+00 -0.74333012253E+03  0.74333012253E+03  0.00000000000E+00 0.  1.
        -13    1    1    2    0    0  0.42380867672E+02 -0.45748741955E+03 -0.19374219815E+03  0.49862503697E+03  0.10566000000E+00 0.  1.
         13    1    1    2    0    0 -0.19610441216E+03 -0.86226122335E+02  0.76703886533E+03  0.79639218776E+03  0.10566000000E+00 0. -1.
          4    1    1    2  501    0  0.15372354449E+03  0.54371354188E+03 -0.17378976808E+03  0.59114991943E+03  0.00000000000E+00 0.  1.
</event>
<event>
 5    1  0.6336319E-005  0.6232462E+02  0.7818608E-02  0.1248432E+00
         21   -1    0    0  501  502  0.00000000000E+00  0.00000000000E+00  0.12913179112E+03  0.12913179112E+03  0.00000000000E+00 0. -1.
          4   -1    0    0  502    0 -0.00000000000E+00 -0.00000000000E+00 -0.12211852740E+03  0.12211852740E+03  0.00000000000E+00 0.  1.
        -13    1    1    2    0    0  0.44392724903E+02 -0.40923211416E+02 -0.83856653943E+02  0.10333137390E+03  0.10566000000E+00 0.  1.
         13    1    1    2    0    0 -0.59008269370E+02  0.41596971838E+02  0.19109888848E+02  0.74682547733E+02  0.10566000000E+00 0. -1.
          4    1    1    2  501    0  0.14615544467E+02 -0.67376042227E+00  0.71760028816E+02  0.73236396886E+02  0.00000000000E+00 0.  1.
</event>
<event>
 5    1  0.6336319E-005  0.4686548E+02  0.7818608E-02  0.1342134E+00
         21   -1    0    0  501  502  0.00000000000E+00  0.00000000000E+00  0.27981833552E+02  0.27981833552E+02  0.00000000000E+00 0.  1.
          4   -1    0    0  502    0 -0.00000000000E+00 -0.00000000000E+00 -0.25240341285E+03  0.25240341285E+03  0.00000000000E+00 0.  1.
        -13    1    1    2    0    0 -0.65988847497E+02 -0.12755496588E+02 -0.18420170251E+03  0.19608036377E+03  0.10566000000E+00 0.  1.
         13    1    1    2    0    0  0.22316570536E+02  0.71575060969E+01 -0.31758062627E+02  0.39469544206E+02  0.10566000000E+00 0. -1.
          4    1    1    2  501    0  0.43672276961E+02  0.55979904911E+01 -0.84618141635E+01  0.44835338422E+02  0.00000000000E+00 0.  1.
</event>
<event>
 5    1  0.6336319E-005  0.1873277E+03  0.7818608E-02  0.1069189E+00
         -4   -1    0    0    0  501 -0.00000000000E+00  0.00000000000E+00  0.10666154143E+04  0.10666154143E+04  0.00000000000E+00 0. -1.
         21   -1    0    0  501  502  0.00000000000E+00 -0.00000000000E+00 -0.57208850567E+02  0.57208850567E+02  0.00000000000E+00 0.  1.
        -13    1    1    2    0    0  0.14326979020E+03 -0.11271351441E+03  0.21939334503E+03  0.28524379068E+03  0.10566000000E+00 0.  1.
         13    1    1    2    0    0 -0.15442566623E+03  0.10909243467E+03  0.80069554265E+03  0.82271611683E+03  0.10566000000E+00 0. -1.
         -4    1    1    2    0  502  0.11155876027E+02  0.36210797415E+01 -0.10682323971E+02  0.15864357341E+02  0.00000000000E+00 0. -1.
</event>
<event>
 5    1  0.6336319E-005  0.1145401E+03  0.7818608E-02  0.1142513E+00
          4   -1    0    0  502    0 -0.00000000000E+00  0.00000000000E+00  0.27449148759E+02  0.27449148759E+02  0.00000000000E+00 0.  1.
         21   -1    0    0  501  502  0.00000000000E+00 -0.00000000000E+00 -0.99072098851E+03  0.99072098851E+03  0.00000000000E+00 0.  1.
        -13    1    1    2    0    0  0.41564556930E+02  0.13666678551E+03 -0.66268090043E+03  0.67790221243E+03  0.10566000000E+00 0.  1.
         13    1    1    2    0    0 -0.24410406336E+02 -0.99795740116E+02 -0.27144157171E+03  0.29023369153E+03  0.10566000000E+00 0. -1.
          4    1    1    2  501    0 -0.17154150594E+02 -0.36871045394E+02 -0.29149367609E+02  0.50034233311E+02  0.00000000000E+00 0.  1.
</event>
<event>
 5    1  0.6336319E-005  0.6667059E+03  0.7818608E-02  0.9172727E-01
          4   -1    0    0  502    0 -0.00000000000E+00  0.00000000000E+00  0.20591372157E+04  0.20591372157E+04  0.00000000000E+00 0.  1.
         21   -1    0    0  501  502  0.00000000000E+00 -0.00000000000E+00 -0.53468876844E+03  0.53468876844E+03  0.00000000000E+00 0. -1.
        -13    1    1    2    0    0  0.41400293586E+03  0.49574484370E+03  0.24271163209E+03  0.68997849856E+03  0.10566000000E+00 0.  1.
         13    1    1    2    0    0  0.12978492955E+03 -0.77361440106E+03  0.84568366928E+03  0.11534748585E+04  0.10566000000E+00 0. -1.
          4    1    1    2  501    0 -0.54378786540E+03  0.27786955735E+03  0.43605314588E+03  0.75037262709E+03  0.00000000000E+00 0.  1.
</event>
<event>
 5    1  0.6336319E-005  0.3756282E+03  0.7818608E-02  0.9802197E-01
         21   -1    0    0  501  502  0.00000000000E+00  0.00000000000E+00  0.27659033902E+03  0.27659033902E+03  0.00000000000E+00 0. -1.
          4   -1    0    0  502    0 -0.00000000000E+00 -0.00000000000E+00 -0.78243421380E+03  0.78243421380E+03  0.00000000000E+00 0.  1.
        -13    1    1    2    0    0 -0.15307211323E+03  0.32850132120E+03 -0.43360714749E+03  0.56511888961E+03  0.10566000000E+00 0.  1.
         13    1    1    2    0    0  0.19190367032E+03 -0.35829411435E+03 -0.12174153114E+03  0.42429082317E+03  0.10566000000E+00 0. -1.
          4    1    1    2  501    0 -0.38831557090E+02  0.29792793149E+02  0.49504803853E+02  0.69614840043E+02  0.00000000000E+00 0.  1.
</event>
<event>
 5    1  0.6336319E-005  0.3528093E+03  0.7818608E-02  0.9984263E-01
         -4   -1    0    0    0  501 -0.00000000000E+00  0.00000000000E+00  0.32338473192E+04  0.32338473192E+04  0.00000000000E+00 0. -1.
         21   -1    0    0  501  502  0.00000000000E+00 -0.00000000000E+00 -0.14181685782E+03  0.14181685782E+03  0.00000000000E+00 0. -1.
        -13    1    1    2    0    0  0.23915889337E+03 -0.59005800694E+02  0.10403979921E+04  0.10691616594E+04  0.10566000000E+00 0.  1.
         13    1    1    2    0    0 -0.23447597256E+03 -0.30078474219E+03  0.18602673303E+04  0.18989589237E+04  0.10566000000E+00 0. -1.
         -4    1    1    2    0  502 -0.46829208083E+01  0.35979054289E+03  0.19136513904E+03  0.40754359391E+03  0.00000000000E+00 0. -1.
</event>
<event>
 5    1  0.6336319E-005  0.4247163E+03  0.7818608E-02  0.1003458E+00
          4   -1    0    0  502    0 -0.00000000000E+00  0.00000000000E+00  0.46703514958E+03  0.46703514958E+03  0.00000000000E+00 0.  1.
         21   -1    0    0  501  502  0.00000000000E+00 -0.00000000000E+00 -0.59513497760E+03  0.59513497760E+03  0.00000000000E+00 0.  1.
        -13    1    1    2    0    0  0.45505607645E+03  0.46871622247E+01  0.53058629387E+01  0.45511115735E+03  0.10566000000E+00 0.  1.
         13    1    1    2    0    0 -0.54548699606E+02 -0.10663069703E+03  0.77916526277E+02  0.14288688676E+03  0.10566000000E+00 0. -1.
          4    1    1    2  501    0 -0.40050737684E+03  0.10194353481E+03 -0.21132221724E+03  0.46417208306E+03  0.00000000000E+00 0.  1.
</event>
<event>
 5    1  0.6336319E-005  0.4138012E+03  0.7818608E-02  0.9900190E-01
         21   -1    0    0  501  502  0.00000000000E+00  0.00000000000E+00  0.22136028765E+03  0.22136028765E+03  0.00000000000E+00 0.  1.
          4   -1    0    0  502    0 -0.00000000000E+00 -0.00000000000E+00 -0.20243878906E+04  0.20243878906E+04  0.00000000000E+00 0.  1.
        -13    1    1    2    0    0  0.15173538072E+03 -0.54048630509E+03 -0.84113880469E+03  0.10112682986E+04  0.10566000000E+00 0.  1.
         13    1    1    2    0    0 -0.82238974654E+00  0.20177068163E+03 -0.80832267358E+03  0.83312522472E+03  0.10566000000E+00 0. -1.
          4    1    1    2  501    0 -0.15091299097E+03  0.33871562346E+03 -0.15356612470E+03  0.40135465498E+03  0.00000000000E+00 0.  1.
</event>
<event>
 5    1  0.6336319E-005  0.1889621E+03  0.7818608E-02  0.1067978E+00
         21   -1    0    0  501  502  0.00000000000E+00  0.00000000000E+00  0.48668642250E+02  0.48668642250E+02  0.00000000000E+00 0.  1.
         -4   -1    0    0    0  501 -0.00000000000E+00 -0.00000000000E+00 -0.11382840018E+04  0.11382840018E+04  0.00000000000E+00 0. -1.
        -13    1    1    2    0    0 -0.47212041248E+02  0.18812421538E+03 -0.69380523815E+03  0.72040642480E+03  0.10566000000E+00 0.  1.
         13    1    1    2    0    0  0.47559920489E+02 -0.17541278436E+03 -0.40940379490E+03  0.44793199193E+03  0.10566000000E+00 0. -1.
         -4    1    1    2    0  502 -0.34787924107E+00 -0.12711431016E+02  0.13593673513E+02  0.18614227301E+02  0.00000000000E+00 0. -1.
</event>
<event>
 5    1  0.6336319E-005  0.4158807E+03  0.7818608E-02  0.9692267E-01
         21   -1    0    0  501  502  0.00000000000E+00  0.00000000000E+00  0.34467516348E+03  0.34467516348E+03  0.00000000000E+00 0. -1.
         -4   -1    0    0    0  501 -0.00000000000E+00 -0.00000000000E+00 -0.20693528114E+04  0.20693528114E+04  0.00000000000E+00 0. -1.
        -13    1    1    2    0    0  0.46673552814E+03  0.13272669758E+03 -0.80744802594E+03  0.94203543205E+03  0.10566000000E+00 0.  1.
         13    1    1    2    0    0 -0.63211003181E+02 -0.25529050092E+03  0.16501508519E+03  0.31048165854E+03  0.10566000000E+00 0. -1.
         -4    1    1    2    0  502 -0.40352452496E+03  0.12256380334E+03 -0.10822447072E+04  0.11615108843E+04  0.00000000000E+00 0. -1.
</event>
<event>
 5    1  0.6336319E-005  0.2992032E+02  0.7818608E-02  0.1423165E+00
         21   -1    0    0  501  502  0.00000000000E+00  0.00000000000E+00  0.84015828601E+02  0.84015828601E+02  0.00000000000E+00 0. -1.
         -4   -1    0    0    0  501 -0.00000000000E+00 -0.00000000000E+00 -0.17927515324E+03  0.17927515324E+03  0.00000000000E+00 0. -1.
        -13    1    1    2    0    0  0.16406795857E+02  0.15276373285E+02  0.21342703717E+02  0.30952749426E+02  0.10566000000E+00 0.  1.
         13    1    1    2    0    0 -0.32743329633E+02  0.98914028981E+01 -0.16874593938E+03  0.17217772419E+03  0.10566000000E+00 0. -1.
         -4    1    1    2    0  502  0.16336533776E+02 -0.25167776183E+02  0.52143911019E+02  0.60160508227E+02  0.00000000000E+00 0. -1.
</event>
<event>
 5    1  0.6336319E-005  0.3759479E+03  0.7818608E-02  0.1015871E+00
          4   -1    0    0  502    0 -0.00000000000E+00  0.00000000000E+00  0.13604974356E+04  0.13604974356E+04  0.00000000000E+00 0.  1.
         21   -1    0    0  501  502  0.00000000000E+00 -0.00000000000E+00 -0.17707603686E+03  0.17707603686E+03  0.00000000000E+00 0.  1.
        -13    1    1    2    0    0  0.16958439760E+03  0.39780030269E+03  0.85488189225E+03  0.95803288545E+03  0.10566000000E+00 0.  1.
         13    1    1    2    0    0 -0.10693810465E+03 -0.44575691691E+02  0.10829613513E+03  0.15859008344E+03  0.10566000000E+00 0. -1.
          4    1    1    2  501    0 -0.62646292948E+02 -0.35322461100E+03  0.22024337134E+03  0.42095050357E+03  0.00000000000E+00 0.  1.
</event>
<event>
 5    1  0.6336319E-005  0.6086676E+03  0.7818608E-02  0.9267173E-01
         -4   -1    0    0    0  501 -0.00000000000E+00  0.00000000000E+00  0.12712244003E+04  0.12712244003E+04  0.00000000000E+00 0. -1.
         21   -1    0    0  501  502  0.00000000000E+00 -0.00000000000E+00 -0.62475357223E+03  0.62475357223E+03  0.00000000000E+00 0. -1.
        -13    1    1    2    0    0  0.85464142142E+02 -0.57748060007E+03  0.38296074459E+03  0.69817397983E+03  0.10566000000E+00 0.  1.
         13    1    1    2    0    0  0.30602675310E+03  0.67351390029E+03  0.49537569517E+02  0.74143599148E+03  0.10566000000E+00 0. -1.
         -4    1    1    2    0  502 -0.39149089525E+03 -0.96033300228E+02  0.21397251398E+03  0.45636800124E+03  0.00000000000E+00 0. -1.
</event>
<event>
 5    1  0.6336319E-005  0.4830081E+03  0.7818608E-02  0.9810927E-01
          4   -1    0    0  502    0 -0.00000000000E+00  0.00000000000E+00  0.10035857890E+04  0.10035857890E+04  0.00000000000E+00 0.  1.
         21   -1    0    0  501  502  0.00000000000E+00 -0.00000000000E+00 -0.35982069442E+03  0.35982069442E+03  0.00000000000E+00 0.  1.
        -13    1    1    2    0    0 -0.48383742310E+03 -0.12242661349E+03  0.43371967937E+03  0.66121078267E+03  0.10566000000E+00 0.  1.
         13    1    1    2    0    0  0.82836361476E+02 -0.15015849464E+03  0.11928686746E+03  0.20889902874E+03  0.10566000000E+00 0. -1.
          4    1    1    2  501    0  0.40100106162E+03  0.27258510813E+03  0.90758547700E+02  0.49329667197E+03  0.00000000000E+00 0.  1.
</event>
<event>
 5    1  0.6336319E-005  0.6955531E+03  0.7818608E-02  0.9129454E-01
         -4   -1    0    0    0  501 -0.00000000000E+00  0.00000000000E+00  0.86129215484E+03  0.86129215484E+03  0.00000000000E+00 0. -1.
         21   -1    0    0  501  502  0.00000000000E+00 -0.00000000000E+00 -0.84352969400E+03  0.84352969400E+03  0.00000000000E+00 0.  1.
        -13    1    1    2    0    0 -0.29446240077E+03 -0.48762347053E+03 -0.82306712440E+02  0.57555117979E+03  0.10566000000E+00 0.  1.
         13    1    1    2    0    0  0.50439987751E+03  0.64738125894E+03  0.20411059612E+03  0.84568485706E+03  0.10566000000E+00 0. -1.
         -4    1    1    2    0  502 -0.20993747674E+03 -0.15975778841E+03 -0.10404142284E+03  0.28358581199E+03  0.00000000000E+00 0. -1.
</event>
<event>
 5    1  0.6336319E-005  0.1964933E+03  0.7818608E-02  0.1062567E+00
          4   -1    0    0  502    0 -0.00000000000E+00  0.00000000000E+00  0.32645779312E+03  0.32645779312E+03  0.00000000000E+00 0.  1.
         21   -1    0    0  501  502  0.00000000000E+00 -0.00000000000E+00 -0.66400037638E+03  0.66400037638E+03  0.00000000000E+00 0. -1.
        -13    1    1    2    0    0  0.17294424408E+03  0.89522438029E+02  0.26823087279E+03  0.33146913997E+03  0.10566000000E+00 0.  1.
         13    1    1    2    0    0 -0.20293374087E+03 -0.97877506864E+02 -0.49385170672E+03  0.54281822826E+03  0.10566000000E+00 0. -1.
          4    1    1    2  501    0  0.29989496790E+02  0.83550688351E+01 -0.11192174933E+03  0.11617080126E+03  0.00000000000E+00 0.  1.
</event>
<event>
 5    1  0.6336319E-005  0.4472621E+03  0.7818608E-02  0.9818009E-01
         -4   -1    0    0    0  501 -0.00000000000E+00  0.00000000000E+00  0.19375564302E+04  0.19375564302E+04  0.00000000000E+00 0. -1.
         21   -1    0    0  501  502  0.00000000000E+00 -0.00000000000E+00 -0.19819098830E+03  0.19819098830E+03  0.00000000000E+00 0. -1.
        -13    1    1    2    0    0  0.74899716012E+02 -0.19708628881E+03  0.17288844111E+03  0.27265985573E+03  0.10566000000E+00 0.  1.
         13    1    1    2    0    0 -0.38000301059E+03 -0.16533068900E+03  0.11833287461E+04  0.12537956202E+04  0.10566000000E+00 0. -1.
         -4    1    1    2    0  502  0.30510329458E+03  0.36241697781E+03  0.38314825470E+03  0.60929194254E+03  0.00000000000E+00 0. -1.
</event>
<event>
 5    1  0.6336319E-005  0.3259936E+03  0.7818608E-02  0.9971187E-01
         -4   -1    0    0    0  501 -0.00000000000E+00  0.00000000000E+00  0.16155983360E+04  0.16155983360E+04  0.00000000000E+00 0. -1.
         21   -1    0    0  501  502  0.00000000000E+00 -0.00000000000E+00 -0.51064611043E+03  0.51064611043E+03  0.00000000000E+00 0. -1.
        -13    1    1    2    0    0  0.35159714469E+02  0.29477225211E+03  0.10475049800E+04  0.10887578153E+04  0.10566000000E+00 0.  1.
         13    1    1    2    0    0  0.38430204033E+02 -0.53080133064E+03  0.36317570019E+03  0.64430080985E+03  0.10566000000E+00 0. -1.
         -4    1    1    2    0  502 -0.73589918502E+02  0.23602907853E+03 -0.30572845467E+03  0.39318582122E+03  0.00000000000E+00 0. -1.
</event>
<event>
 5    1  0.6336319E-005  0.4359340E+02  0.7818608E-02  0.1320326E+00
         21   -1    0    0  501  502  0.00000000000E+00  0.00000000000E+00  0.17057978512E+02  0.17057978512E+02  0.00000000000E+00 0. -1.
          4   -1    0    0  502    0 -0.00000000000E+00 -0.00000000000E+00 -0.24360248001E+03  0.24360248001E+03  0.00000000000E+00 0.  1.
        -13    1    1    2    0    0  0.41254779790E+02  0.20956028935E+02 -0.17623217521E+03  0.18220566058E+03  0.10566000000E+00 0.  1.
         13    1    1    2    0    0 -0.29095035476E+02 -0.25597933060E+02 -0.52503053323E+02  0.65256088134E+02  0.10566000000E+00 0. -1.
          4    1    1    2  501    0 -0.12159744314E+02  0.46419041247E+01  0.21907270332E+01  0.13198709809E+02  0.00000000000E+00 0.  1.
</event>
<event>
 5    1  0.6336319E-005  0.5895162E+02  0.7818608E-02  0.1259101E+00
         21   -1    0    0  501  502  0.00000000000E+00  0.00000000000E+00  0.18784293691E+03  0.18784293691E+03  0.00000000000E+00 0. -1.
         -4   -1    0    0    0  501 -0.00000000000E+00 -0.00000000000E+00 -0.73073234939E+02  0.73073234939E+02  0.00000000000E+00 0. -1.
        -13    1    1    2    0    0  0.16640879613E+02  0.33243124391E+02  0.34035086439E+02  0.50402603767E+02  0.10566000000E+00 0.  1.
         13    1    1    2    0    0 -0.23767889026E+02 -0.64478610350E+02 -0.44086871656E+02  0.81645986783E+02  0.10566000000E+00 0. -1.
         -4    1    1    2    0  502  0.71270094127E+01  0.31235485959E+02  0.12482148719E+03  0.12886758130E+03  0.00000000000E+00 0. -1.
</event>
<event>
 5    1  0.6336319E-005  0.3432765E+03  0.7818608E-02  0.1008056E+00
         21   -1    0    0  501  502  0.00000000000E+00  0.00000000000E+00  0.88574467381E+03  0.88574467381E+03  0.00000000000E+00 0. -1.
          4   -1    0    0  502    0 -0.00000000000E+00 -0.00000000000E+00 -0.77329402436E+03  0.77329402436E+03  0.00000000000E+00 0.  1.
        -13    1    1    2    0    0 -0.14837664506E+03  0.20574887577E+03 -0.32097166751E+03  0.40911007222E+03  0.10566000000E+00 0.  1.
         13    1    1    2    0    0 -0.24736241307E+03 -0.43015906872E+03 -0.14224558025E+03  0.51619647816E+03  0.10566000000E+00 0. -1.
          4    1    1    2  501    0  0.39573905813E+03  0.22441019294E+03  0.57566789721E+03  0.73373214779E+03  0.00000000000E+00 0.  1.
</event>
<event>
 5    1  0.6336319E-005  0.4671915E+03  0.7818608E-02  0.9605771E-01
         21   -1    0    0  501  502  0.00000000000E+00  0.00000000000E+00  0.26910815421E+03  0.26910815421E+03  0.00000000000E+00 0.  1.
         -4   -1    0    0    0  501 -0.00000000000E+00 -0.00000000000E+00 -0.35555640599E+04  0.35555640599E+04  0.00000000000E+00 0. -1.
        -13    1    1    2    0    0  0.30538771219E+03 -0.63378133231E+03 -0.14402190452E+04  0.16028634818E+04  0.10566000000E+00 0.  1.
         13    1    1    2    0    0  0.13165280791E+03  0.36430821956E+03 -0.16112326553E+04  0.16571432108E+04  0.10566000000E+00 0. -1.
         -4    1    1    2    0  502 -0.43704052010E+03  0.26947311275E+03 -0.23500420528E+03  0.56466552153E+03  0.00000000000E+00 0. -1.
</event>
<event>
 5    1  0.6336319E-005  0.4625896E+03  0.7818608E-02  0.9993652E-01
         -4   -1    0    0    0  501 -0.00000000000E+00  0.00000000000E+00  0.36548103645E+03  0.36548103645E+03  0.00000000000E+00 0. -1.
         21   -1    0    0  501  502  0.00000000000E+00 -0.00000000000E+00 -0.74653995645E+03  0.74653995645E+03  0.00000000000E+00 0. -1.
        -13    1    1    2    0    0  0.97880382504E+02  0.40592178521E+02 -0.11709013862E+02  0.10660866009E+03  0.10566000000E+00 0.  1.
         13    1    1    2    0    0 -0.14587553218E+03 -0.47541328528E+03 -0.18256594078E+03  0.52974314210E+03  0.10566000000E+00 0. -1.
         -4    1    1    2    0  502  0.47995149678E+02  0.43482110676E+03 -0.18678396536E+03  0.47566919071E+03  0.00000000000E+00 0. -1.
</event>
<event>
 5    1  0.6336319E-005  0.1905798E+03  0.7818608E-02  0.1066793E+00
         -4   -1    0    0    0  501 -0.00000000000E+00  0.00000000000E+00  0.28751102371E+03  0.28751102371E+03  0.00000000000E+00 0. -1.
         21   -1    0    0  501  502  0.00000000000E+00 -0.00000000000E+00 -0.26680284772E+03  0.26680284772E+03  0.00000000000E+00 0. -1.
        -13    1    1    2    0    0 -0.14317338647E+03 -0.81409354866E+02  0.58969462351E+02  0.17493859011E+03  0.10566000000E+00 0.  1.
         13    1    1    2    0    0  0.16383869299E+03  0.19472897428E+03  0.95368259138E+01  0.25466341111E+03  0.10566000000E+00 0. -1.
         -4    1    1    2    0  502 -0.20665306515E+02 -0.11331961941E+03 -0.47798112271E+02  0.12471187022E+03  0.00000000000E+00 0. -1.
</event>
<event>
 5    1  0.6336319E-005  0.4580330E+03  0.7818608E-02  0.9709109E-01
         21   -1    0    0  501  502  0.00000000000E+00  0.00000000000E+00  0.49489576089E+03  0.49489576089E+03  0.00000000000E+00 0.  1.
          4   -1    0    0  502    0 -0.00000000000E+00 -0.00000000000E+00 -0.87906756313E+03  0.87906756313E+03  0.00000000000E+00 0.  1.
        -13    1    1    2    0    0  0.25950773053E+03  0.41539418363E+03  0.61666824181E+02  0.49365919253E+03  0.10566000000E+00 0.  1.
         13    1    1    2    0    0  0.15099026372E+03 -0.24229295700E+03 -0.61753344101E+02  0.29209146414E+03  0.10566000000E+00 0. -1.
          4    1    1    2  501    0 -0.41049799426E+03 -0.17310122663E+03 -0.38408528232E+03  0.58821266736E+03  0.00000000000E+00 0.  1.
</event>
<event>
 5    1  0.6336319E-005  0.4322339E+03  0.7818608E-02  0.9655115E-01
         21   -1    0    0  501  502  0.00000000000E+00  0.00000000000E+00  0.52873636880E+03  0.52873636880E+03  0.00000000000E+00 0.  1.
         -4   -1    0    0    0  501 -0.00000000000E+00 -0.00000000000E+00 -0.11342149205E+04  0.11342149205E+04  0.00000000000E+00 0. -1.
        -13    1    1    2    0    0  0.54626809477E+02  0.44026467137E+03 -0.26760953684E+03  0.51810418309E+03  0.10566000000E+00 0.  1.
         13    1    1    2    0    0  0.11231335926E+03  0.53052949146E+02 -0.56367820022E+03  0.57720189764E+03  0.10566000000E+00 0. -1.
         -4    1    1    2    0  502 -0.16694016874E+03 -0.49331762051E+03  0.22580918534E+03  0.56764520858E+03  0.00000000000E+00 0. -1.
</event>
<event>
 5    1  0.6336319E-005  0.5061376E+03  0.7818608E-02  0.9464620E-01
         21   -1    0    0  501  502  0.00000000000E+00  0.00000000000E+00  0.56873825834E+03  0.56873825834E+03  0.00000000000E+00 0. -1.
         -4   -1    0    0    0  501 -0.00000000000E+00 -0.00000000000E+00 -0.18488086374E+04  0.18488086374E+04  0.00000000000E+00 0. -1.
        -13    1    1    2    0    0  0.68037701865E+02 -0.46978558801E+03 -0.12169935068E+04  0.13062927828E+04  0.10566000000E+00 0.  1.
         13    1    1    2    0    0 -0.30399309236E+03  0.70785201914E+03 -0.86723473293E+02  0.77523367650E+03  0.10566000000E+00 0. -1.
         -4    1    1    2    0  502  0.23595539049E+03 -0.23806643113E+03  0.23646601101E+02  0.33602043639E+03  0.00000000000E+00 0. -1.
</event>
<event>
 5    1  0.6336319E-005  0.2853826E+03  0.7818608E-02  0.1052875E+00
         -4   -1    0    0    0  501 -0.00000000000E+00  0.00000000000E+00  0.49457938315E+03  0.49457938315E+03  0.00000000000E+00 0. -1.
         21   -1    0    0  501  502  0.00000000000E+00 -0.00000000000E+00 -0.26162160998E+03  0.26162160998E+03  0.00000000000E+00 0. -1.
        -13    1    1    2    0    0  0.12224720455E+02  0.84323931667E+02  0.24278180253E+02  0.88596898605E+02  0.10566000000E+00 0.  1.
         13    1    1    2    0    0  0.21293079868E+03 -0.21047190846E+03 -0.48450261313E+02  0.30329093008E+03  0.10566000000E+00 0. -1.
         -4    1    1    2    0  502 -0.22515551914E+03  0.12614797680E+03  0.25712985423E+03  0.36431316444E+03  0.00000000000E+00 0. -1.
</event>
<event>
 5    1  0.6336319E-005  0.1228351E+03  0.7818608E-02  0.1131486E+00
         -4   -1    0    0    0  501 -0.00000000000E+00  0.00000000000E+00  0.10612928144E+04  0.10612928144E+04  0.00000000000E+00 0. -1.
         21   -1    0    0  501  502  0.00000000000E+00 -0.00000000000E+00 -0.54685001978E+02  0.54685001978E+02  0.00000000000E+00 0. -1.
        -13    1    1    2    0    0 -0.77286798525E+02  0.79520852615E+02  0.53218365262E+03  0.54361407865E+03  0.10566000000E+00 0.  1.
         13    1    1    2    0    0  0.98699314912E+02 -0.10450811999E+03  0.50644394076E+03  0.52644940707E+03  0.10566000000E+00 0. -1.
         -4    1    1    2    0  502 -0.21412516387E+02  0.24987267376E+02 -0.32019780946E+02  0.45914330669E+02  0.00000000000E+00 0. -1.
</event>
<event>
 5    1  0.6336319E-005  0.4976591E+03  0.7818608E-02  0.9666015E-01
         21   -1    0    0  501  502  0.00000000000E+00  0.00000000000E+00  0.18719586402E+04  0.18719586402E+04  0.00000000000E+00 0. -1.
         -4   -1    0    0    0  501 -0.00000000000E+00 -0.00000000000E+00 -0.22882112043E+03  0.22882112043E+03  0.00000000000E+00 0. -1.
        -13    1    1    2    0    0 -0.25536369632E+03  0.41541163957E+02  0.21127709386E+03  0.33402740495E+03  0.10566000000E+00 0.  1.
         13    1    1    2    0    0 -0.29367216365E+03 -0.30544967292E+03  0.53273512929E+03  0.68069785627E+03  0.10566000000E+00 0. -1.
         -4    1    1    2    0  502  0.54903585998E+03  0.26390850897E+03  0.89912529662E+03  0.10860544994E+04  0.00000000000E+00 0. -1.
</event>
<event>
 5    1  0.6336319E-005  0.4887061E+03  0.7818608E-02  0.9542739E-01
         -4   -1    0    0    0  501 -0.00000000000E+00  0.00000000000E+00  0.80904343187E+03  0.80904343187E+03  0.00000000000E+00 0. -1.
         21   -1    0    0  501  502  0.00000000000E+00 -0.00000000000E+00 -0.72658428638E+03  0.72658428638E+03  0.00000000000E+00 0. -1.
        -13    1    1    2    0    0  0.13461993513E+03 -0.40144049047E+03  0.17574153723E+03  0.45843439378E+03  0.10566000000E+00 0.  1.
         13    1    1    2    0    0 -0.19505677987E+03 -0.24675176946E+03  0.18973355050E+03  0.36733147763E+03  0.10566000000E+00 0. -1.
         -4    1    1    2    0  502  0.60436844737E+02  0.64819225993E+03 -0.28301594224E+03  0.70986184684E+03  0.00000000000E+00 0. -1.
</event>
<event>
 5    1  0.6336319E-005  0.2774282E+03  0.7818608E-02  0.1041959E+00
         21   -1    0    0  501  502  0.00000000000E+00  0.00000000000E+00  0.12188087816E+03  0.12188087816E+03  0.00000000000E+00 0.  1.
          4   -1    0    0  502    0 -0.00000000000E+00 -0.00000000000E+00 -0.25741890376E+04  0.25741890376E+04  0.00000000000E+00 0.  1.
        -13    1    1    2    0    0  0.23570595915E+03  0.29581109466E+03 -0.21289242910E+04  0.21622627386E+04  0.10566000000E+00 0.  1.
         13    1    1    2    0    0 -0.11580710651E+03 -0.55731308277E+02 -0.20167113046E+03  0.23914121490E+03  0.10566000000E+00 0. -1.
          4    1    1    2  501    0 -0.11989885264E+03 -0.24007978639E+03 -0.12171273796E+03  0.29466596220E+03  0.00000000000E+00 0.  1.
</event>
<event>
 5    1  0.6336319E-005  0.5388630E+03  0.7818608E-02  0.9396632E-01
         21   -1    0    0  501  502  0.00000000000E+00  0.00000000000E+00  0.42452407922E+03  0.42452407922E+03  0.00000000000E+00 0. -1.
         -4   -1    0    0    0  501 -0.00000000000E+00 -0.00000000000E+00 -0.30005731690E+04  0.30005731690E+04  0.00000000000E+00 0. -1.
        -13    1    1    2    0    0  0.37293197158E+03 -0.32305399052E+03 -0.10210646214E+04  0.11340260616E+04  0.10566000000E+00 0.  1.
         13    1    1    2    0    0 -0.49767288475E+03  0.29353530240E+03 -0.18666747684E+04  0.19540511703E+04  0.10566000000E+00 0. -1.
         -4    1    1    2    0  502  0.12474091317E+03  0.29518688116E+02  0.31169029993E+03  0.33702001638E+03  0.00000000000E+00 0. -1.
</event>
<event>
 5    1  0.6336319E-005  0.4961853E+03  0.7818608E-02  0.9542470E-01
         21   -1    0    0  501  502  0.00000000000E+00  0.00000000000E+00  0.39778809094E+03  0.39778809094E+03  0.00000000000E+00 0. -1.
         -4   -1    0    0    0  501 -0.00000000000E+00 -0.00000000000E+00 -0.19977954490E+04  0.19977954490E+04  0.00000000000E+00 0. -1.
        -13    1    1    2    0    0 -0.31608554581E+03  0.25311897445E+03 -0.11664299077E+04  0.12347218425E+04  0.10566000000E+00 0.  1.
         13    1    1    2    0    0  0.41087152180E+03  0.29652090990E+03 -0.29437356115E+03  0.58599988234E+03  0.10566000000E+00 0. -1.
         -4    1    1    2    0  502 -0.94785975984E+02 -0.54963988435E+03 -0.13920388917E+03  0.57486181511E+03  0.00000000000E+00 0. -1.
</event>
<event>
 5    1  0.6336319E-005  0.4675521E+03  0.7818608E-02  0.9938437E-01
         21   -1    0    0  501  502  0.00000000000E+00  0.00000000000E+00  0.27161918156E+03  0.27161918156E+03  0.00000000000E+00 0. -1.
         -4   -1    0    0    0  501 -0.00000000000E+00 -0.00000000000E+00 -0.13980370427E+04  0.13980370427E+04  0.00000000000E+00 0. -1.
        -13    1    1    2    0    0 -0.12294484874E+03 -0.69175233388E+01 -0.41659702948E+03  0.43441499064E+03  0.10566000000E+00 0.  1.
         13    1    1    2    0    0  0.15270833015E+03 -0.45135504524E+03 -0.12679607996E+03  0.49307044935E+03  0.10566000000E+00 0. -1.
         -4    1    1    2    0  502 -0.29763481413E+02  0.45827256858E+03 -0.58302475172E+03  0.74217078429E+03  0.00000000000E+00 0. -1.
</event>
<event>
 5    1  0.6336319E-005  0.4042445E+03  0.7818608E-02  0.9898156E-01
         21   -1    0    0  501  502  0.00000000000E+00  0.00000000000E+00  0.30764891605E+03  0.30764891605E+03  0.00000000000E+00 0.  1.
          4   -1    0    0  502    0 -0.00000000000E+00 -0.00000000000E+00 -0.16075262167E+04  0.16075262167E+04  0.00000000000E+00 0.  1.
        -13    1    1    2    0    0 -0.15945164964E+03  0.21703438091E+03 -0.50457500293E+03  0.57194815833E+03  0.10566000000E+00 0.  1.
         13    1    1    2    0    0  0.12289996502E+02  0.21755434904E+03 -0.85335892324E+03  0.88073969017E+03  0.10566000000E+00 0. -1.
          4    1    1    2  501    0  0.14716165313E+03 -0.43458872995E+03  0.58056625503E+02  0.46248728427E+03  0.00000000000E+00 0.  1.
</event>
<event>
 5    1  0.6336319E-005  0.2669955E+03  0.7818608E-02  0.1078463E+00
         21   -1    0    0  501  502  0.00000000000E+00  0.00000000000E+00  0.42753178082E+03  0.42753178082E+03  0.00000000000E+00 0.  1.
          4   -1    0    0  502    0 -0.00000000000E+00 -0.00000000000E+00 -0.26494783609E+04  0.26494783609E+04  0.00000000000E+00 0.  1.
        -13    1    1    2    0    0 -0.10453580309E+03  0.45141612011E+02  0.24804511124E+03  0.27293202018E+03  0.10566000000E+00 0.  1.
         13    1    1    2    0    0 -0.39527089873E+03 -0.47609254287E+03 -0.82213469284E+03  0.10289842842E+04  0.10566000000E+00 0. -1.
          4    1    1    2  501    0  0.49980670182E+03  0.43095093086E+03 -0.16478569985E+04  0.17750938374E+04  0.00000000000E+00 0.  1.
</event>
<event>
 5    1  0.6336319E-005  0.4741199E+03  0.7818608E-02  0.9536574E-01
          4   -1    0    0  502    0 -0.00000000000E+00  0.00000000000E+00  0.72493553586E+03  0.72493553586E+03  0.00000000000E+00 0.  1.
         21   -1    0    0  501  502  0.00000000000E+00 -0.00000000000E+00 -0.11018751745E+04  0.11018751745E+04  0.00000000000E+00 0.  1.
        -13    1    1    2    0    0  0.44150453963E+03 -0.52585265003E+03 -0.18866779823E+03  0.71206939079E+03  0.10566000000E+00 0.  1.
         13    1    1    2    0    0 -0.36478488002E+03  0.22486423301E+03  0.30908379242E+03  0.52836042043E+03  0.10566000000E+00 0. -1.
          4    1    1    2  501    0 -0.76719659611E+02  0.30098841702E+03 -0.49735563280E+03  0.58638089910E+03  0.00000000000E+00 0.  1.
</event>
<event>
 5    1  0.6336319E-005  0.5564351E+03  0.7818608E-02  0.9362174E-01
         21   -1    0    0  501  502  0.00000000000E+00  0.00000000000E+00  0.32344340641E+03  0.32344340641E+03  0.00000000000E+00 0.  1.
         -4   -1    0    0    0  501 -0.00000000000E+00 -0.00000000000E+00 -0.24501757757E+04  0.24501757757E+04  0.00000000000E+00 0. -1.
        -13    1    1    2    0    0 -0.49779090588E+03  0.27374875433E+03 -0.10540967988E+04  0.11974365281E+04  0.10566000000E+00 0.  1.
         13    1    1    2    0    0  0.27789433049E+03 -0.52568892182E+03 -0.17738687030E+03  0.62051608711E+03  0.10566000000E+00 0. -1.
         -4    1    1    2    0  502  0.21989657539E+03  0.25194016749E+03 -0.89524870018E+03  0.95566656687E+03  0.00000000000E+00 0. -1.
</event>
<event>
 5    1  0.6336319E-005  0.4476750E+03  0.7818608E-02  0.9713587E-01
         21   -1    0    0  501  502  0.00000000000E+00  0.00000000000E+00  0.50853365332E+03  0.50853365332E+03  0.00000000000E+00 0. -1.
         -4   -1    0    0    0  501 -0.00000000000E+00 -0.00000000000E+00 -0.22605434934E+04  0.22605434934E+04  0.00000000000E+00 0. -1.
        -13    1    1    2    0    0 -0.28370738902E+03  0.10069316181E+03 -0.17668953354E+04  0.17923582602E+04  0.10566000000E+00 0.  1.
         13    1    1    2    0    0  0.12853667056E+03 -0.48391147252E+03  0.17923954402E+03  0.53180712126E+03  0.10566000000E+00 0. -1.
         -4    1    1    2    0  502  0.15517071846E+03  0.38321831072E+03 -0.16435404867E+03  0.44491176524E+03  0.00000000000E+00 0. -1.
</event>
<event>
 5    1  0.6336319E-005  0.4674219E+03  0.7818608E-02  0.9593862E-01
         -4   -1    0    0    0  501 -0.00000000000E+00  0.00000000000E+00  0.26605717559E+03  0.26605717559E+03  0.00000000000E+00 0. -1.
         21   -1    0    0  501  502  0.00000000000E+00 -0.00000000000E+00 -0.25849342641E+04  0.25849342641E+04  0.00000000000E+00 0.  1.
        -13    1    1    2    0    0  0.50141151726E+03 -0.44938253525E+02 -0.10102483803E+04  0.11287314815E+04  0.10566000000E+00 0.  1.
         13    1    1    2    0    0 -0.70353533047E+02 -0.41908522114E+03 -0.81548822549E+03  0.91956679979E+03  0.10566000000E+00 0. -1.
         -4    1    1    2    0  502 -0.43105798421E+03  0.46402347467E+03 -0.49314048265E+03  0.80269315832E+03  0.00000000000E+00 0. -1.
</event>
<event>
 5    1  0.6336319E-005  0.4240195E+02  0.7818608E-02  0.1326247E+00
         21   -1    0    0  501  502  0.00000000000E+00  0.00000000000E+00  0.23348782333E+03  0.23348782333E+03  0.00000000000E+00 0. -1.
         -4   -1    0    0    0  501 -0.00000000000E+00 -0.00000000000E+00 -0.51535459865E+02  0.51535459865E+02  0.00000000000E+00 0. -1.
        -13    1    1    2    0    0  0.21524125008E+02  0.22824861353E+02  0.17943905627E+02  0.36142179879E+02  0.10566000000E+00 0.  1.
         13    1    1    2    0    0 -0.39506182871E+02 -0.27814204609E+02 -0.28083796773E+02  0.55884517251E+02  0.10566000000E+00 0. -1.
         -4    1    1    2    0  502  0.17982057863E+02  0.49893432553E+01  0.19209225461E+03  0.19299658607E+03  0.00000000000E+00 0. -1.
</event>
<event>
 5    1  0.6336319E-005  0.4765701E+03  0.7818608E-02  0.9580458E-01
          4   -1    0    0  502    0 -0.00000000000E+00  0.00000000000E+00  0.30177815501E+04  0.30177815501E+04  0.00000000000E+00 0.  1.
         21   -1    0    0  501  502  0.00000000000E+00 -0.00000000000E+00 -0.18131470196E+03  0.18131470196E+03  0.00000000000E+00 0.  1.
        -13    1    1    2    0    0 -0.12262018838E+03 -0.51487939664E+03  0.78970826235E+03  0.95067116000E+03  0.10566000000E+00 0.  1.
         13    1    1    2    0    0  0.38465037893E+03  0.10535484852E+03  0.58562259225E+03  0.70852620971E+03  0.10566000000E+00 0. -1.
          4    1    1    2  501    0 -0.26203019056E+03  0.40952454811E+03  0.14611359936E+04  0.15398988824E+04  0.00000000000E+00 0.  1.
</event>
<event>
 5    1  0.6336319E-005  0.3424145E+02  0.7818608E-02  0.1442989E+00
          4   -1    0    0  502    0 -0.00000000000E+00  0.00000000000E+00  0.20906895535E+03  0.20906895535E+03  0.00000000000E+00 0.  1.
         21   -1    0    0  501  502  0.00000000000E+00 -0.00000000000E+00 -0.86862021670E+02  0.86862021670E+02  0.00000000000E+00 0.  1.
        -13    1    1    2    0    0  0.15039926824E+02 -0.40964324588E+02  0.19955675800E+03  0.20427233321E+03  0.10566000000E+00 0.  1.
         13    1    1    2    0    0  0.69616374531E+00  0.10876331622E+02 -0.38732518542E+02  0.40236779072E+02  0.10566000000E+00 0. -1.
          4    1    1    2  501    0 -0.15736090569E+02  0.30087992966E+02 -0.38617305780E+02  0.51421864735E+02  0.00000000000E+00 0.  1.
</event>
<event>
 5    1  0.6336319E-005  0.6066885E+02  0.7818608E-02  0.1253572E+00
         21   -1    0    0  501  502  0.00000000000E+00  0.00000000000E+00  0.28554522048E+02  0.28554522048E+02  0.00000000000E+00 0.  1.
         -4   -1    0    0    0  501 -0.00000000000E+00 -0.00000000000E+00 -0.23071162767E+03  0.23071162767E+03  0.00000000000E+00 0. -1.
        -13    1    1    2    0    0 -0.44457694091E+02  0.42495165607E+02 -0.27903053037E+02  0.67534562979E+02  0.10566000000E+00 0.  1.
         13    1    1    2    0    0  0.35605486981E+02 -0.49107543095E+02 -0.16888366670E+03  0.17944638624E+03  0.10566000000E+00 0. -1.
         -4    1    1    2    0  502  0.88522071098E+01  0.66123774874E+01 -0.53703858810E+01  0.12285200497E+02  0.00000000000E+00 0. -1.
</event>
<event>
 5    1  0.6336319E-005  0.5219782E+03  0.7818608E-02  0.9431059E-01
         21   -1    0    0  501  502  0.00000000000E+00  0.00000000000E+00  0.19323227497E+04  0.19323227497E+04  0.00000000000E+00 0. -1.
         -4   -1    0    0    0  501 -0.00000000000E+00 -0.00000000000E+00 -0.29532382085E+03  0.29532382085E+03  0.00000000000E+00 0. -1.
        -13    1    1    2    0    0 -0.23055329992E+03 -0.34055527062E+03  0.36669626857E+03  0.55099807712E+03  0.10566000000E+00 0.  1.
         13    1    1    2    0    0  0.27778493109E+03  0.63493558032E+03  0.51145572169E+03  0.86133305144E+03  0.10566000000E+00 0. -1.
         -4    1    1    2    0  502 -0.47231631175E+02 -0.29438030970E+03  0.75884693855E+03  0.81531544194E+03  0.00000000000E+00 0. -1.
</event>
<event>
 5    1  0.6336319E-005  0.4921051E+03  0.7818608E-02  0.9584894E-01
         -4   -1    0    0    0  501 -0.00000000000E+00  0.00000000000E+00  0.19652991201E+04  0.19652991201E+04  0.00000000000E+00 0. -1.
         21   -1    0    0  501  502  0.00000000000E+00 -0.00000000000E+00 -0.26977563089E+03  0.26977563089E+03  0.00000000000E+00 0. -1.
        -13    1    1    2    0    0 -0.79854234230E+02  0.34747802977E+03  0.70164737366E+03  0.78703667515E+03  0.10566000000E+00 0.  1.
         13    1    1    2    0    0 -0.43089611401E+03 -0.67002279663E+02  0.61158808678E+03  0.75113298796E+03  0.10566000000E+00 0. -1.
         -4    1    1    2    0  502  0.51075034824E+03 -0.28047575010E+03  0.38228802882E+03  0.69690508794E+03  0.00000000000E+00 0. -1.
</event>
<event>
 5    1  0.6336319E-005  0.5027092E+03  0.7818608E-02  0.9797371E-01
         -4   -1    0    0    0  501 -0.00000000000E+00  0.00000000000E+00  0.19788729512E+04  0.19788729512E+04  0.00000000000E+00 0. -1.
         21   -1    0    0  501  502  0.00000000000E+00 -0.00000000000E+00 -0.20652566948E+03  0.20652566948E+03  0.00000000000E+00 0. -1.
        -13    1    1    2    0    0 -0.70923921788E+02 -0.14264937845E+03  0.65045445066E+03  0.66967906597E+03  0.10566000000E+00 0.  1.
         13    1    1    2    0    0 -0.26371974462E+03  0.47306096447E+03  0.50948825711E+03  0.74358124984E+03  0.10566000000E+00 0. -1.
         -4    1    1    2    0  502  0.33464366640E+03 -0.33041158602E+03  0.61240457391E+03  0.77213830483E+03  0.00000000000E+00 0. -1.
</event>
<event>
 5    1  0.6336319E-005  0.1037956E+03  0.7818608E-02  0.1158424E+00
         21   -1    0    0  501  502  0.00000000000E+00  0.00000000000E+00  0.46874548644E+03  0.46874548644E+03  0.00000000000E+00 0. -1.
         -4   -1    0    0    0  501 -0.00000000000E+00 -0.00000000000E+00 -0.33565011740E+03  0.33565011740E+03  0.00000000000E+00 0. -1.
        -13    1    1    2    0    0 -0.79330187278E+02 -0.58886446508E+02  0.15987276492E+02  0.10008244786E+03  0.10566000000E+00 0.  1.
         13    1    1    2    0    0  0.96441176903E+02  0.41468413306E+02 -0.28383536403E+03  0.30262692369E+03  0.10566000000E+00 0. -1.
         -4    1    1    2    0  502 -0.17110989625E+02  0.17418033202E+02  0.40094345657E+03  0.40168623229E+03  0.00000000000E+00 0. -1.
</event>
<event>
 5    1  0.6336319E-005  0.4790828E+03  0.7818608E-02  0.1007094E+00
         21   -1    0    0  501  502  0.00000000000E+00  0.00000000000E+00  0.11211048478E+03  0.11211048478E+03  0.00000000000E+00 0. -1.
         -4   -1    0    0    0  501 -0.00000000000E+00 -0.00000000000E+00 -0.26253285257E+04  0.26253285257E+04  0.00000000000E+00 0. -1.
        -13    1    1    2    0    0  0.55522919207E+01  0.73960322968E+02 -0.22646911706E+03  0.23830490861E+03  0.10566000000E+00 0.  1.
         13    1    1    2    0    0  0.22896575256E+03  0.37064968419E+03 -0.15286716706E+04  0.15895419440E+04  0.10566000000E+00 0. -1.
         -4    1    1    2    0  502 -0.23451804448E+03 -0.44461000716E+03 -0.75807725326E+03  0.90959215781E+03  0.00000000000E+00 0. -1.
</event>
<event>
 5    1  0.6336319E-005  0.8965263E+03  0.7818608E-02  0.8878406E-01
         21   -1    0    0  501  502  0.00000000000E+00  0.00000000000E+00  0.43577282097E+03  0.43577282097E+03  0.00000000000E+00 0. -1.
          4   -1    0    0  502    0 -0.00000000000E+00 -0.00000000000E+00 -0.32493938637E+04  0.32493938637E+04  0.00000000000E+00 0.  1.
        -13    1    1    2    0    0  0.68695323836E+03 -0.59151042392E+03 -0.24619034391E+04  0.26235010745E+04  0.10566000000E+00 0.  1.
         13    1    1    2    0    0 -0.67358685503E+03  0.54090059923E+03 -0.43196078484E+03  0.96585860265E+03  0.10566000000E+00 0. -1.
          4    1    1    2  501    0 -0.13366383335E+02  0.50609824687E+02  0.80243181213E+02  0.95807007518E+02  0.00000000000E+00 0.  1.
</event>
<event>
 5    1  0.6336319E-005  0.4990327E+03  0.7818608E-02  0.9766116E-01
         -4   -1    0    0    0  501 -0.00000000000E+00  0.00000000000E+00  0.10796071144E+04  0.10796071144E+04  0.00000000000E+00 0. -1.
         21   -1    0    0  501  502  0.00000000000E+00 -0.00000000000E+00 -0.33397310243E+03  0.33397310243E+03  0.00000000000E+00 0. -1.
        -13    1    1    2    0    0  0.15775495103E+03 -0.89275479558E+02  0.16290395972E+03  0.24370975992E+03  0.10566000000E+00 0.  1.
         13    1    1    2    0    0  0.20203863919E+03 -0.36837693922E+03  0.33436175601E+03  0.53695342082E+03  0.10566000000E+00 0. -1.
         -4    1    1    2    0  502 -0.35979359022E+03  0.45765241878E+03  0.24836829622E+03  0.63291703607E+03  0.00000000000E+00 0. -1.
</event>
<event>
 5    1  0.6336319E-005  0.4687450E+03  0.7818608E-02  0.9947128E-01
         21   -1    0    0  501  502  0.00000000000E+00  0.00000000000E+00  0.48235736794E+03  0.48235736794E+03  0.00000000000E+00 0.  1.
          4   -1    0    0  502    0 -0.00000000000E+00 -0.00000000000E+00 -0.69496250602E+03  0.69496250602E+03  0.00000000000E+00 0.  1.
        -13    1    1    2    0    0  0.46413525125E+02  0.52035627101E+03 -0.21192437921E+03  0.56377018169E+03  0.10566000000E+00 0.  1.
         13    1    1    2    0    0 -0.91364369960E+02 -0.75824338767E+02 -0.10071085030E+03  0.15569028544E+03  0.10566000000E+00 0. -1.
          4    1    1    2  501    0  0.44950844835E+02 -0.44453193224E+03  0.10003009143E+03  0.45785940683E+03  0.00000000000E+00 0.  1.
</event>
<event>
 5    1  0.6336319E-005  0.1135919E+03  0.7818608E-02  0.1143839E+00
         21   -1    0    0  501  502  0.00000000000E+00  0.00000000000E+00  0.67373551390E+02  0.67373551390E+02  0.00000000000E+00 0.  1.
         -4   -1    0    0    0  501 -0.00000000000E+00 -0.00000000000E+00 -0.25054062752E+03  0.25054062752E+03  0.00000000000E+00 0. -1.
        -13    1    1    2    0    0 -0.72806994835E+02  0.76345949999E+02 -0.23042554535E+02  0.10798394817E+03  0.10566000000E+00 0.  1.
         13    1    1    2    0    0  0.76331453959E+02 -0.89130662069E+02 -0.15750172156E+03  0.19641173397E+03  0.10566000000E+00 0. -1.
         -4    1    1    2    0  502 -0.35244591244E+01  0.12784712070E+02 -0.26228000323E+01  0.13518496767E+02  0.00000000000E+00 0. -1.
</event>
<event>
 5    1  0.6336319E-005  0.9136805E+03  0.7818608E-02  0.8860218E-01
          4   -1    0    0  502    0 -0.00000000000E+00  0.00000000000E+00  0.24309063282E+04  0.24309063282E+04  0.00000000000E+00 0.  1.
         21   -1    0    0  501  502  0.00000000000E+00 -0.00000000000E+00 -0.50280618070E+03  0.50280618070E+03  0.00000000000E+00 0.  1.
        -13    1    1    2    0    0 -0.75814953318E+03  0.64302283951E+03  0.12650419931E+04  0.16089127827E+04  0.10566000000E+00 0.  1.
         13    1    1    2    0    0  0.75413395719E+03 -0.32125629137E+03  0.41678436791E+03  0.91958297648E+03  0.10566000000E+00 0. -1.
          4    1    1    2  501    0  0.40155759823E+01 -0.32176654814E+03  0.24627378642E+03  0.40521674969E+03  0.00000000000E+00 0.  1.
</event>
<event>
 5    1  0.6336319E-005  0.4477957E+03  0.7818608E-02  0.9600377E-01
          4   -1    0    0  502    0 -0.00000000000E+00  0.00000000000E+00  0.12387046658E+04  0.12387046658E+04  0.00000000000E+00 0.  1.
         21   -1    0    0  501  502  0.00000000000E+00 -0.00000000000E+00 -0.43791100783E+03  0.43791100783E+03  0.00000000000E+00 0. -1.
        -13    1    1    2    0    0  0.50161987939E+03 -0.32690862874E+03  0.56826875576E+03  0.82548237103E+03  0.10566000000E+00 0.  1.
         13    1    1    2    0    0 -0.26026688913E+03  0.26023868580E+03  0.40487190900E+03  0.54716021513E+03  0.10566000000E+00 0. -1.
          4    1    1    2  501    0 -0.24135299026E+03  0.66669942935E+02 -0.17234700674E+03  0.30397308751E+03  0.00000000000E+00 0.  1.
</event>
<event>
 5    1  0.6336319E-005  0.4323595E+03  0.7818608E-02  0.9825625E-01
         21   -1    0    0  501  502  0.00000000000E+00  0.00000000000E+00  0.26583409875E+03  0.26583409875E+03  0.00000000000E+00 0. -1.
         -4   -1    0    0    0  501 -0.00000000000E+00 -0.00000000000E+00 -0.21890882529E+04  0.21890882529E+04  0.00000000000E+00 0. -1.
        -13    1    1    2    0    0  0.20876851029E+03 -0.90238257615E+02 -0.11263178112E+04  0.11490513726E+04  0.10566000000E+00 0.  1.
         13    1    1    2    0    0 -0.27886316921E+03 -0.34680008048E+03 -0.73460118947E+03  0.85887943374E+03  0.10566000000E+00 0. -1.
         -4    1    1    2    0  502  0.70094658917E+02  0.43703833809E+03 -0.62335153487E+02  0.44699154526E+03  0.00000000000E+00 0. -1.
</event>
<event>
 5    1  0.6336319E-005  0.2016616E+03  0.7818608E-02  0.1059003E+00
         21   -1    0    0  501  502  0.00000000000E+00  0.00000000000E+00  0.12962545177E+03  0.12962545177E+03  0.00000000000E+00 0. -1.
         -4   -1    0    0    0  501 -0.00000000000E+00 -0.00000000000E+00 -0.95798005517E+03  0.95798005517E+03  0.00000000000E+00 0. -1.
        -13    1    1    2    0    0  0.91134557261E+01 -0.21459547013E+03 -0.14294979664E+03  0.25800954711E+03  0.10566000000E+00 0.  1.
         13    1    1    2    0    0 -0.83383419850E+01  0.19850933967E+03 -0.74335515958E+03  0.76944940725E+03  0.10566000000E+00 0. -1.
         -4    1    1    2    0  502 -0.77511374107E+00  0.16086130462E+02  0.57950352823E+02  0.60146552577E+02  0.00000000000E+00 0. -1.
</event>
<event>
 5    1  0.6336319E-005  0.9664155E+02  0.7818608E-02  0.1170235E+00
         21   -1    0    0  501  502  0.00000000000E+00  0.00000000000E+00  0.24342210500E+03  0.24342210500E+03  0.00000000000E+00 0. -1.
          4   -1    0    0  502    0 -0.00000000000E+00 -0.00000000000E+00 -0.33122461291E+03  0.33122461291E+03  0.00000000000E+00 0.  1.
        -13    1    1    2    0    0  0.35613346942E+02  0.88833170276E+02 -0.28720568705E+03  0.30273215960E+03  0.10566000000E+00 0.  1.
         13    1    1    2    0    0 -0.85590177932E+02 -0.94615853604E+02  0.17340517304E+03  0.21528400663E+03  0.10566000000E+00 0. -1.
          4    1    1    2  501    0  0.49976830990E+02  0.57826833285E+01  0.25998006090E+02  0.56630551675E+02  0.00000000000E+00 0.  1.
</event>
<event>
 5    1  0.6336319E-005  0.4834943E+03  0.7818608E-02  0.9713409E-01
          4   -1    0    0  502    0 -0.00000000000E+00  0.00000000000E+00  0.23377650864E+03  0.23377650864E+03  0.00000000000E+00 0.  1.
         21   -1    0    0  501  502  0.00000000000E+00 -0.00000000000E+00 -0.16675017720E+04  0.16675017720E+04  0.00000000000E+00 0.  1.
        -13    1    1    2    0    0 -0.54244071329E+03 -0.54724535253E+02 -0.80847157157E+03  0.97512204128E+03  0.10566000000E+00 0.  1.
         13    1    1    2    0    0  0.16483411031E+03 -0.17322957793E+03 -0.17890644647E+03  0.29864075131E+03  0.10566000000E+00 0. -1.
          4    1    1    2  501    0  0.37760660297E+03  0.22795411319E+03 -0.44634724532E+03  0.62751548804E+03  0.00000000000E+00 0.  1.
</event>
<event>
 5    1  0.6336319E-005  0.4628228E+03  0.7818608E-02  0.9650878E-01
          4   -1    0    0  502    0 -0.00000000000E+00  0.00000000000E+00  0.11980619925E+04  0.11980619925E+04  0.00000000000E+00 0.  1.
         21   -1    0    0  501  502  0.00000000000E+00 -0.00000000000E+00 -0.37555181509E+03  0.37555181509E+03  0.00000000000E+00 0.  1.
        -13    1    1    2    0    0 -0.56378079959E+03  0.15054606202E+03  0.31810193582E+03  0.66460646966E+03  0.10566000000E+00 0.  1.
         13    1    1    2    0    0  0.30931886945E+03  0.13924978953E+03  0.10810880663E+03  0.35602835858E+03  0.10566000000E+00 0. -1.
          4    1    1    2  501    0  0.25446193014E+03 -0.28979585155E+03  0.39629943500E+03  0.55297897939E+03  0.00000000000E+00 0.  1.
</event>
<event>
 5    1  0.6336319E-005  0.5866165E+03  0.7818608E-02  0.9306004E-01
         21   -1    0    0  501  502  0.00000000000E+00  0.00000000000E+00  0.11750231179E+03  0.11750231179E+03  0.00000000000E+00 0.  1.
         -4   -1    0    0    0  501 -0.00000000000E+00 -0.00000000000E+00 -0.41490890336E+04  0.41490890336E+04  0.00000000000E+00 0. -1.
        -13    1    1    2    0    0 -0.45526564616E+03 -0.41508567420E+03 -0.11652111042E+04  0.13180591239E+04  0.10566000000E+00 0.  1.
         13    1    1    2    0    0  0.45063545759E+03  0.35833786292E+03 -0.28101157329E+04  0.28684889373E+04  0.10566000000E+00 0. -1.
         -4    1    1    2    0  502  0.46301885701E+01  0.56747811276E+02 -0.56259884684E+02  0.80043284262E+02  0.00000000000E+00 0. -1.
</event>
<event>
 5    1  0.6336319E-005  0.3994811E+03  0.7818608E-02  0.9730546E-01
         21   -1    0    0  501  502  0.00000000000E+00  0.00000000000E+00  0.51735707489E+03  0.51735707489E+03  0.00000000000E+00 0.  1.
         -4   -1    0    0    0  501 -0.00000000000E+00 -0.00000000000E+00 -0.33746463506E+03  0.33746463506E+03  0.00000000000E+00 0. -1.
        -13    1    1    2    0    0 -0.19857225569E+03 -0.33597992192E+03  0.11433676323E+03  0.40667721261E+03  0.10566000000E+00 0.  1.
         13    1    1    2    0    0  0.21659905578E+03  0.34495842771E+03  0.31447397038E+02  0.40853447560E+03  0.10566000000E+00 0. -1.
         -4    1    1    2    0  502 -0.18026800097E+02 -0.89785057838E+01  0.34108279563E+02  0.39610021744E+02  0.00000000000E+00 0. -1.
</event>
<event>
 5    1  0.6336319E-005  0.7584184E+02  0.7818608E-02  0.1212184E+00
         21   -1    0    0  501  502  0.00000000000E+00  0.00000000000E+00  0.76481073772E+02  0.76481073772E+02  0.00000000000E+00 0. -1.
          4   -1    0    0  502    0 -0.00000000000E+00 -0.00000000000E+00 -0.24403304884E+03  0.24403304884E+03  0.00000000000E+00 0.  1.
        -13    1    1    2    0    0  0.54776472813E+02  0.28536295955E+01  0.52276550949E+02  0.75772383616E+02  0.10566000000E+00 0.  1.
         13    1    1    2    0    0 -0.78232314773E+02  0.12254639729E+02 -0.15175930739E+03  0.17117642891E+03  0.10566000000E+00 0. -1.
          4    1    1    2  501    0  0.23455841961E+02 -0.15108269324E+02 -0.68069218628E+02  0.73565310090E+02  0.00000000000E+00 0.  1.
</event>
<event>
 5    1  0.6336319E-005  0.4324885E+03  0.7818608E-02  0.9671595E-01
          4   -1    0    0  502    0 -0.00000000000E+00  0.00000000000E+00  0.25526071269E+04  0.25526071269E+04  0.00000000000E+00 0.  1.
         21   -1    0    0  501  502  0.00000000000E+00 -0.00000000000E+00 -0.30025430578E+03  0.30025430578E+03  0.00000000000E+00 0.  1.
        -13    1    1    2    0    0  0.27334045175E+02 -0.39577279130E+03  0.72981493850E+02  0.40337273330E+03  0.10566000000E+00 0.  1.
         13    1    1    2    0    0 -0.45542871044E+03 -0.43110563146E+02  0.12946726651E+04  0.13731173118E+04  0.10566000000E+00 0. -1.
          4    1    1    2  501    0  0.42809466526E+03  0.43888335445E+03  0.88469866218E+03  0.10763713876E+04  0.00000000000E+00 0.  1.
</event>
<event>
 5    1  0.6336319E-005  0.3170545E+03  0.7818608E-02  0.1032162E+00
         -4   -1    0    0    0  501 -0.00000000000E+00  0.00000000000E+00  0.91054825262E+03  0.91054825262E+03  0.00000000000E+00 0. -1.
         21   -1    0    0  501  502  0.00000000000E+00 -0.00000000000E+00 -0.22802654295E+03  0.22802654295E+03  0.00000000000E+00 0. -1.
        -13    1    1    2    0    0 -0.10087991584E+03 -0.57381429784E+02  0.50329467538E+02  0.12650079988E+03  0.10566000000E+00 0.  1.
         13    1    1    2    0    0 -0.16975343212E+03  0.24085851111E+03  0.61816925450E+03  0.68480821290E+03  0.10566000000E+00 0. -1.
         -4    1    1    2    0  502  0.27063334796E+03 -0.18347708132E+03  0.14022987633E+02  0.32726578278E+03  0.00000000000E+00 0. -1.
</event>
<event>
 5    1  0.6336319E-005  0.1379104E+03  0.7818608E-02  0.1113688E+00
         -4   -1    0    0    0  501 -0.00000000000E+00  0.00000000000E+00  0.13445036963E+03  0.13445036963E+03  0.00000000000E+00 0. -1.
         21   -1    0    0  501  502  0.00000000000E+00 -0.00000000000E+00 -0.32413373735E+03  0.32413373735E+03  0.00000000000E+00 0.  1.
        -13    1    1    2    0    0  0.98899573146E+02 -0.83083581229E+02 -0.25299810448E+03  0.28406347719E+03  0.10566000000E+00 0.  1.
         13    1    1    2    0    0 -0.10169358051E+03  0.95193059863E+02  0.74353866284E+02  0.15789810499E+03  0.10566000000E+00 0. -1.
         -4    1    1    2    0  502  0.27940073634E+01 -0.12109478634E+02 -0.11039129530E+02  0.16622524800E+02  0.00000000000E+00 0. -1.
</event>
<event>
 5    1  0.6336319E-005  0.2797935E+03  0.7818608E-02  0.1030455E+00
         21   -1    0    0  501  502  0.00000000000E+00  0.00000000000E+00  0.19332625232E+03  0.19332625232E+03  0.00000000000E+00 0.  1.
          4   -1    0    0  502    0 -0.00000000000E+00 -0.00000000000E+00 -0.18514708698E+04  0.18514708698E+04  0.00000000000E+00 0.  1.
        -13    1    1    2    0    0 -0.14995839184E+03  0.22553956563E+03  0.74507663959E+01  0.27094490221E+03  0.10566000000E+00 0.  1.
         13    1    1    2    0    0  0.65375156307E+02  0.16555806776E+03 -0.28130519907E+03  0.33289038894E+03  0.10566000000E+00 0. -1.
          4    1    1    2  501    0  0.84583235534E+02 -0.39109763339E+03 -0.13842901848E+04  0.14409618310E+04  0.00000000000E+00 0.  1.
</event>
<event>
 5    1  0.6336319E-005  0.4321604E+03  0.7818608E-02  0.1006607E+00
         -4   -1    0    0    0  501 -0.00000000000E+00  0.00000000000E+00  0.35748423113E+03  0.35748423113E+03  0.00000000000E+00 0. -1.
         21   -1    0    0  501  502  0.00000000000E+00 -0.00000000000E+00 -0.13186166181E+04  0.13186166181E+04  0.00000000000E+00 0. -1.
        -13    1    1    2    0    0  0.99155464979E+02 -0.26551662818E+02  0.13503374028E+03  0.16961992575E+03  0.10566000000E+00 0.  1.
         13    1    1    2    0    0 -0.20205524161E+03  0.39927729401E+03 -0.10179687542E+04  0.11119842957E+04  0.10566000000E+00 0. -1.
         -4    1    1    2    0  502  0.10289977663E+03 -0.37272563120E+03 -0.78197373040E+02  0.39449662778E+03  0.00000000000E+00 0. -1.
</event>
<event>
 5    1  0.6336319E-005  0.7681157E+03  0.7818608E-02  0.9029620E-01
          4   -1    0    0  502    0 -0.00000000000E+00  0.00000000000E+00  0.19169328402E+04  0.19169328402E+04  0.00000000000E+00 0.  1.
         21   -1    0    0  501  502  0.00000000000E+00 -0.00000000000E+00 -0.73602176601E+03  0.73602176601E+03  0.00000000000E+00 0.  1.
        -13    1    1    2    0    0  0.34266404482E+03  0.64179659062E+03  0.25696614730E+03  0.77159129296E+03  0.10566000000E+00 0.  1.
         13    1    1    2    0    0 -0.81759694517E+03 -0.30792299888E+03  0.96207748623E+03  0.12995670197E+04  0.10566000000E+00 0. -1.
          4    1    1    2  501    0  0.47493290035E+03 -0.33387359174E+03 -0.38132559346E+02  0.58179629354E+03  0.00000000000E+00 0.  1.
</event>
<event>
 5    1  0.6336319E-005  0.6110337E+02  0.7818608E-02  0.1253215E+00
         -4   -1    0    0    0  501 -0.00000000000E+00  0.00000000000E+00  0.26469602304E+03  0.26469602304E+03  0.00000000000E+00 0. -1.
         21   -1    0    0  501  502  0.00000000000E+00 -0.00000000000E+00 -0.48627751986E+03  0.48627751986E+03  0.00000000000E+00 0. -1.
        -13    1    1    2    0    0 -0.51609612495E+02  0.30262860020E+02 -0.13002693640E+03  0.14313073797E+03  0.10566000000E+00 0.  1.
         13    1    1    2    0    0  0.92137449239E+02  0.15296537265E+02  0.24688126344E+03  0.26395769170E+03  0.10566000000E+00 0. -1.
         -4    1    1    2    0  502 -0.40527836744E+02 -0.45559397285E+02 -0.33843582386E+03  0.34388511323E+03  0.00000000000E+00 0. -1.
</event>
<event>
 5    1  0.6336319E-005  0.1737253E+03  0.7818608E-02  0.1079811E+00
          4   -1    0    0  502    0 -0.00000000000E+00  0.00000000000E+00  0.12406886975E+03  0.12406886975E+03  0.00000000000E+00 0.  1.
         21   -1    0    0  501  502  0.00000000000E+00 -0.00000000000E+00 -0.39582419121E+03  0.39582419121E+03  0.00000000000E+00 0. -1.
        -13    1    1    2    0    0 -0.16933438358E+03  0.97797149035E+02 -0.22050720988E+03  0.29472335604E+03  0.10566000000E+00 0.  1.
         13    1    1    2    0    0  0.12938106510E+03 -0.10533795717E+03 -0.98286407975E+01  0.16712916733E+03  0.10566000000E+00 0. -1.
          4    1    1    2  501    0  0.39953318478E+02  0.75408081360E+01 -0.41419470788E+02  0.58040537602E+02  0.00000000000E+00 0.  1.
</event>
<event>
 5    1  0.6336319E-005  0.3625433E+03  0.7818608E-02  0.9843933E-01
         21   -1    0    0  501  502  0.00000000000E+00  0.00000000000E+00  0.47778225982E+03  0.47778225982E+03  0.00000000000E+00 0.  1.
          4   -1    0    0  502    0 -0.00000000000E+00 -0.00000000000E+00 -0.15880325164E+04  0.15880325164E+04  0.00000000000E+00 0.  1.
        -13    1    1    2    0    0  0.14895679363E+03  0.44229939673E+03  0.26853564221E+03  0.53844989090E+03  0.10566000000E+00 0.  1.
         13    1    1    2    0    0 -0.29927154619E+03 -0.20205304385E+03 -0.91725130972E+03  0.98576816100E+03  0.10566000000E+00 0. -1.
          4    1    1    2  501    0  0.15031475256E+03 -0.24024635288E+03 -0.46153458909E+03  0.54159672435E+03  0.00000000000E+00 0.  1.
</event>
<event>
 5    1  0.6336319E-005  0.8637551E+02  0.7818608E-02  0.1232183E+00
         21   -1    0    0  501  502  0.00000000000E+00  0.00000000000E+00  0.52477228927E+03  0.52477228927E+03  0.00000000000E+00 0. -1.
         -4   -1    0    0    0  501 -0.00000000000E+00 -0.00000000000E+00 -0.23730655530E+02  0.23730655530E+02  0.00000000000E+00 0. -1.
        -13    1    1    2    0    0 -0.15692345758E+02  0.29145508589E+02  0.11406871347E+03  0.11877454669E+03  0.10566000000E+00 0.  1.
         13    1    1    2    0    0  0.96097810893E+02 -0.31411063922E+02  0.16365106729E+03  0.19236196918E+03  0.10566000000E+00 0. -1.
         -4    1    1    2    0  502 -0.80405465135E+02  0.22655553332E+01  0.22332185298E+03  0.23736642893E+03  0.00000000000E+00 0. -1.
</event>
<event>
 5    1  0.6336319E-005  0.6368891E+02  0.7818608E-02  0.1244328E+00
         21   -1    0    0  501  502  0.00000000000E+00  0.00000000000E+00  0.28435813421E+03  0.28435813421E+03  0.00000000000E+00 0.  1.
         -4   -1    0    0    0  501 -0.00000000000E+00 -0.00000000000E+00 -0.29571758886E+02  0.29571758886E+02  0.00000000000E+00 0. -1.
        -13    1    1    2    0    0  0.53202180629E+02  0.24394555886E+02  0.17338777879E+03  0.18299972507E+03  0.10566000000E+00 0.  1.
         13    1    1    2    0    0 -0.46175551600E+02 -0.47095094817E+02  0.26446697448E+02  0.71060315868E+02  0.10566000000E+00 0. -1.
         -4    1    1    2    0  502 -0.70266290296E+01  0.22700538931E+02  0.54951899085E+02  0.59869852149E+02  0.00000000000E+00 0. -1.
</event>
<event>
 5    1  0.6336319E-005  0.1137685E+03  0.7818608E-02  0.1143591E+00
          4   -1    0    0  502    0 -0.00000000000E+00  0.00000000000E+00  0.65690072289E+02  0.65690072289E+02  0.00000000000E+00 0.  1.
         21   -1    0    0  501  502  0.00000000000E+00 -0.00000000000E+00 -0.45000573878E+03  0.45000573878E+03  0.00000000000E+00 0. -1.
        -13    1    1    2    0    0  0.73763835006E+02  0.13731077184E+03 -0.27641557926E+03  0.31733410633E+03  0.10566000000E+00 0.  1.
         13    1    1    2    0    0 -0.57208745879E+02 -0.79121840737E+02 -0.95557164105E+02  0.13661730880E+03  0.10566000000E+00 0. -1.
          4    1    1    2  501    0 -0.16555089127E+02 -0.58188931103E+02 -0.12342923121E+02  0.61744395940E+02  0.00000000000E+00 0.  1.
</event>
<event>
 5    1  0.6336319E-005  0.1713245E+03  0.7818608E-02  0.1081795E+00
         21   -1    0    0  501  502  0.00000000000E+00  0.00000000000E+00  0.20940174168E+03  0.20940174168E+03  0.00000000000E+00 0.  1.
         -4   -1    0    0    0  501 -0.00000000000E+00 -0.00000000000E+00 -0.26356034786E+03  0.26356034786E+03  0.00000000000E+00 0. -1.
        -13    1    1    2    0    0 -0.91178588802E+02 -0.13554697259E+03  0.39450028667E+02  0.16805604053E+03  0.10566000000E+00 0.  1.
         13    1    1    2    0    0  0.88693061977E+02  0.15009338631E+03 -0.16015902740E+03  0.23673911607E+03  0.10566000000E+00 0. -1.
         -4    1    1    2    0  502  0.24855268244E+01 -0.14546413721E+02  0.66550392560E+02  0.68166932934E+02  0.00000000000E+00 0. -1.
</event>
<event>
 5    1  0.6336319E-005  0.9256520E+03  0.7818608E-02  0.8847769E-01
         21   -1    0    0  501  502  0.00000000000E+00  0.00000000000E+00  0.19628645342E+04  0.19628645342E+04  0.00000000000E+00 0. -1.
          4   -1    0    0  502    0 -0.00000000000E+00 -0.00000000000E+00 -0.88643153975E+03  0.88643153975E+03  0.00000000000E+00 0.  1.
        -13    1    1    2    0    0  0.67782854840E+03 -0.49147674184E+03  0.20518420103E+03  0.86203334988E+03  0.10566000000E+00 0.  1.
         13    1    1    2    0    0 -0.97289779951E+03  0.33299323714E+03 -0.26936814908E+02  0.10286594322E+04  0.10566000000E+00 0. -1.
          4    1    1    2  501    0  0.29506925111E+03  0.15848350470E+03  0.89818560835E+03  0.95860329191E+03  0.00000000000E+00 0.  1.
</event>
<event>
 5    1  0.6336319E-005  0.1508814E+03  0.7818608E-02  0.1103289E+00
         -4   -1    0    0    0  501 -0.00000000000E+00  0.00000000000E+00  0.14205712984E+04  0.14205712984E+04  0.00000000000E+00 0. -1.
         21   -1    0    0  501  502  0.00000000000E+00 -0.00000000000E+00 -0.33646732688E+03  0.33646732688E+03  0.00000000000E+00 0. -1.
        -13    1    1    2    0    0  0.10986190110E+03 -0.85113613254E+02  0.64575301923E+03  0.66053836943E+03  0.10566000000E+00 0.  1.
         13    1    1    2    0    0 -0.13669866956E+03 -0.67125273958E+02 -0.30304549710E+03  0.33915912657E+03  0.10566000000E+00 0. -1.
         -4    1    1    2    0  502  0.26836768462E+02  0.15223888721E+03  0.74139644935E+03  0.75734112924E+03  0.00000000000E+00 0. -1.
</event>
<event>
 5    1  0.6336319E-005  0.2483881E+03  0.7818608E-02  0.1065649E+00
         21   -1    0    0  501  502  0.00000000000E+00  0.00000000000E+00  0.13494569481E+04  0.13494569481E+04  0.00000000000E+00 0.  1.
         -4   -1    0    0    0  501 -0.00000000000E+00 -0.00000000000E+00 -0.27581569478E+03  0.27581569478E+03  0.00000000000E+00 0. -1.
        -13    1    1    2    0    0  0.63001495009E+02  0.62821693847E+02  0.52015406756E+03  0.52770827050E+03  0.10566000000E+00 0.  1.
         13    1    1    2    0    0 -0.21279746053E+03 -0.25259441401E+03 -0.14329598966E+03  0.36002840028E+03  0.10566000000E+00 0. -1.
         -4    1    1    2    0  502  0.14979596552E+03  0.18977272016E+03  0.69678317541E+03  0.73753597209E+03  0.00000000000E+00 0. -1.
</event>
<event>
 5    1  0.6336319E-005  0.4753384E+03  0.7818608E-02  0.1004855E+00
         -4   -1    0    0    0  501 -0.00000000000E+00  0.00000000000E+00  0.52223532557E+03  0.52223532557E+03  0.00000000000E+00 0. -1.
         21   -1    0    0  501  502  0.00000000000E+00 -0.00000000000E+00 -0.58835127981E+03  0.58835127981E+03  0.00000000000E+00 0. -1.
        -13    1    1    2    0    0  0.26673197116E+02 -0.77165668562E+02  0.64666190718E+02  0.10415242309E+03  0.10566000000E+00 0.  1.
         13    1    1    2    0    0 -0.25093591711E+03  0.46384837143E+03  0.37716726622E+02  0.52872176880E+03  0.10566000000E+00 0. -1.
         -4    1    1    2    0  502  0.22426272000E+03 -0.38668270287E+03 -0.16849887158E+03  0.47771241349E+03  0.00000000000E+00 0. -1.
</event>
<event>
 5    1  0.6336319E-005  0.4275132E+03  0.7818608E-02  0.9857829E-01
         21   -1    0    0  501  502  0.00000000000E+00  0.00000000000E+00  0.54812910070E+03  0.54812910070E+03  0.00000000000E+00 0.  1.
          4   -1    0    0  502    0 -0.00000000000E+00 -0.00000000000E+00 -0.68738648623E+03  0.68738648623E+03  0.00000000000E+00 0.  1.
        -13    1    1    2    0    0  0.13766992499E+03  0.45877867551E+03  0.27008343937E+03  0.54988722183E+03  0.10566000000E+00 0.  1.
         13    1    1    2    0    0 -0.46684996054E+02 -0.20572894479E+03 -0.19255768470E+02  0.21183645429E+03  0.10566000000E+00 0. -1.
          4    1    1    2  501    0 -0.90984928939E+02 -0.25304973071E+03 -0.39008505643E+03  0.47379191082E+03  0.00000000000E+00 0.  1.
</event>
<event>
 5    1  0.6336319E-005  0.5051386E+03  0.7818608E-02  0.9466780E-01
          4   -1    0    0  502    0 -0.00000000000E+00  0.00000000000E+00  0.18416537889E+04  0.18416537889E+04  0.00000000000E+00 0.  1.
         21   -1    0    0  501  502  0.00000000000E+00 -0.00000000000E+00 -0.41637527445E+03  0.41637527445E+03  0.00000000000E+00 0.  1.
        -13    1    1    2    0    0  0.54558025322E+03 -0.49247711203E+03  0.26078233885E+03  0.77987111628E+03  0.10566000000E+00 0.  1.
         13    1    1    2    0    0 -0.19126281535E+03  0.42598657681E+03  0.95028767860E+03  0.10588166562E+04  0.10566000000E+00 0. -1.
          4    1    1    2  501    0 -0.35431743788E+03  0.66490535224E+02  0.21420849700E+03  0.41934129089E+03  0.00000000000E+00 0.  1.
</event>
<event>
 5    1  0.6336319E-005  0.2769789E+03  0.7818608E-02  0.1017288E+00
         -4   -1    0    0    0  501 -0.00000000000E+00  0.00000000000E+00  0.26036733662E+04  0.26036733662E+04  0.00000000000E+00 0. -1.
         21   -1    0    0  501  502  0.00000000000E+00 -0.00000000000E+00 -0.87286922216E+02  0.87286922216E+02  0.00000000000E+00 0. -1.
        -13    1    1    2    0    0 -0.27348018750E+03  0.21790859821E+02  0.10765623386E+04  0.11109692771E+04  0.10566000000E+00 0.  1.
         13    1    1    2    0    0  0.27946464871E+03  0.43446789028E+01  0.14937998364E+04  0.15197227801E+04  0.10566000000E+00 0. -1.
         -4    1    1    2    0  502 -0.59844612036E+01 -0.26135538724E+02 -0.53975730986E+02  0.60268231231E+02  0.00000000000E+00 0. -1.
</event>
<event>
 5    1  0.6336319E-005  0.5811189E+02  0.7818608E-02  0.1261883E+00
         21   -1    0    0  501  502  0.00000000000E+00  0.00000000000E+00  0.21756440249E+03  0.21756440249E+03  0.00000000000E+00 0. -1.
         -4   -1    0    0    0  501 -0.00000000000E+00 -0.00000000000E+00 -0.67194480657E+02  0.67194480657E+02  0.00000000000E+00 0. -1.
        -13    1    1    2    0    0  0.26284331308E+02  0.37832177864E+02  0.12715409755E+02  0.47789460800E+02  0.10566000000E+00 0.  1.
         13    1    1    2    0    0 -0.21301635565E+02 -0.65527814765E+02 -0.23939450277E+02  0.72943557833E+02  0.10566000000E+00 0. -1.
         -4    1    1    2    0  502 -0.49826957424E+01  0.27695636901E+02  0.16159396236E+03  0.16402586452E+03  0.00000000000E+00 0. -1.
</event>
<event>
 5    1  0.6336319E-005  0.1620105E+03  0.7818608E-02  0.1089835E+00
          4   -1    0    0  502    0 -0.00000000000E+00  0.00000000000E+00  0.46960255635E+03  0.46960255635E+03  0.00000000000E+00 0.  1.
         21   -1    0    0  501  502  0.00000000000E+00 -0.00000000000E+00 -0.14773661269E+03  0.14773661269E+03  0.00000000000E+00 0. -1.
        -13    1    1    2    0    0  0.10364510865E+03 -0.21434483858E+03  0.81232860337E+02  0.25156471759E+03  0.10566000000E+00 0.  1.
         13    1    1    2    0    0 -0.95832273070E+02  0.10716277051E+03  0.20914498858E+03  0.25378991579E+03  0.10566000000E+00 0. -1.
          4    1    1    2  501    0 -0.78128355759E+01  0.10718206807E+03  0.31488094732E+02  0.11198453566E+03  0.00000000000E+00 0.  1.
</event>
<event>
 5    1  0.6336319E-005  0.4915286E+03  0.7818608E-02  0.9894747E-01
         21   -1    0    0  501  502  0.00000000000E+00  0.00000000000E+00  0.13158578736E+03  0.13158578736E+03  0.00000000000E+00 0. -1.
         -4   -1    0    0    0  501 -0.00000000000E+00 -0.00000000000E+00 -0.23610181340E+04  0.23610181340E+04  0.00000000000E+00 0. -1.
        -13    1    1    2    0    0  0.74621060977E+02  0.97279446166E+02 -0.27287253223E+03  0.29915050292E+03  0.10566000000E+00 0.  1.
         13    1    1    2    0    0 -0.47401910788E+03 -0.27922695127E+03 -0.10106905355E+04  0.11507202851E+04  0.10566000000E+00 0. -1.
         -4    1    1    2    0  502  0.39939804691E+03  0.18194750510E+03 -0.94586927894E+03  0.10427331333E+04  0.00000000000E+00 0. -1.
</event>
<event>
 5    1  0.6336319E-005  0.4039112E+02  0.7818608E-02  0.1336755E+00
         21   -1    0    0  501  502  0.00000000000E+00  0.00000000000E+00  0.45043715204E+03  0.45043715204E+03  0.00000000000E+00 0. -1.
         -4   -1    0    0    0  501 -0.00000000000E+00 -0.00000000000E+00 -0.10388367511E+02  0.10388367511E+02  0.00000000000E+00 0. -1.
        -13    1    1    2    0    0 -0.26069481268E+02  0.34206991312E+02  0.98492860449E+02  0.10747367506E+03  0.10566000000E+00 0.  1.
         13    1    1    2    0    0 -0.30285171578E+01 -0.43192411868E+02  0.89076085835E+02  0.99041994078E+02  0.10566000000E+00 0. -1.
         -4    1    1    2    0  502  0.29097998425E+02  0.89854205561E+01  0.25247983824E+03  0.25430985041E+03  0.00000000000E+00 0. -1.
</event>
<event>
 5    1  0.6336319E-005  0.4738133E+03  0.7818608E-02  0.9537292E-01
         21   -1    0    0  501  502  0.00000000000E+00  0.00000000000E+00  0.35869473247E+03  0.35869473247E+03  0.00000000000E+00 0.  1.
         -4   -1    0    0    0  501 -0.00000000000E+00 -0.00000000000E+00 -0.15304942587E+04  0.15304942587E+04  0.00000000000E+00 0. -1.
        -13    1    1    2    0    0 -0.50280804933E+03  0.51136384917E+02 -0.98234437722E+02  0.51486005890E+03  0.10566000000E+00 0.  1.
         13    1    1    2    0    0  0.44557749117E+03 -0.14612024753E+03 -0.11484663514E+04  0.12405101365E+04  0.10566000000E+00 0. -1.
         -4    1    1    2    0  502  0.57230558163E+02  0.94983862612E+02  0.74901262811E+02  0.13381879582E+03  0.00000000000E+00 0. -1.
</event>
<event>
 5    1  0.6336319E-005  0.2282546E+02  0.7818608E-02  0.1515653E+00
         21   -1    0    0  501  502  0.00000000000E+00  0.00000000000E+00  0.25145573393E+03  0.25145573393E+03  0.00000000000E+00 0.  1.
         -4   -1    0    0    0  501 -0.00000000000E+00 -0.00000000000E+00 -0.20940314135E+02  0.20940314135E+02  0.00000000000E+00 0. -1.
        -13    1    1    2    0    0 -0.15687568329E+02  0.39227674821E+02  0.11165917395E+03  0.11938464124E+03  0.10566000000E+00 0.  1.
         13    1    1    2    0    0 -0.43332718801E+01 -0.15571712421E+02 -0.10971752638E+02  0.19535761897E+02  0.10566000000E+00 0. -1.
         -4    1    1    2    0  502  0.20020840209E+02 -0.23655962401E+02  0.12982799849E+03  0.13347564493E+03  0.00000000000E+00 0. -1.
</event>
<event>
 5    1  0.6336319E-005  0.4029816E+03  0.7818608E-02  0.9720474E-01
          4   -1    0    0  502    0 -0.00000000000E+00  0.00000000000E+00  0.19548134116E+04  0.19548134116E+04  0.00000000000E+00 0.  1.
         21   -1    0    0  501  502  0.00000000000E+00 -0.00000000000E+00 -0.31815332251E+03  0.31815332251E+03  0.00000000000E+00 0.  1.
        -13    1    1    2    0    0  0.16206612272E+03 -0.32370618516E+03 -0.14585002273E+03  0.39028625744E+03  0.10566000000E+00 0.  1.
         13    1    1    2    0    0 -0.25438296479E+03  0.32336867921E+03  0.83681264413E+03  0.93248775220E+03  0.10566000000E+00 0. -1.
          4    1    1    2  501    0  0.92316842067E+02  0.33750595737E+00  0.94569746765E+03  0.95019272443E+03  0.00000000000E+00 0.  1.
</event>
<event>
 5    1  0.6336319E-005  0.1316806E+03  0.7818608E-02  0.1120728E+00
         21   -1    0    0  501  502  0.00000000000E+00  0.00000000000E+00  0.48574416835E+02  0.48574416835E+02  0.00000000000E+00 0.  1.
          4   -1    0    0  502    0 -0.00000000000E+00 -0.00000000000E+00 -0.11524578012E+04  0.11524578012E+04  0.00000000000E+00 0.  1.
        -13    1    1    2    0    0  0.11173446518E+03  0.75619196045E+02 -0.80414604276E+03  0.81538562826E+03  0.10566000000E+00 0.  1.
         13    1    1    2    0    0 -0.38640929769E+02 -0.13925147441E+03 -0.16011117399E+03  0.21568424555E+03  0.10566000000E+00 0. -1.
          4    1    1    2  501    0 -0.73093535414E+02  0.63632278369E+02 -0.13962616760E+03  0.16996234421E+03  0.00000000000E+00 0.  1.
</event>
<event>
 5    1  0.6336319E-005  0.6803086E+02  0.7818608E-02  0.1231991E+00
         21   -1    0    0  501  502  0.00000000000E+00  0.00000000000E+00  0.14377200472E+03  0.14377200472E+03  0.00000000000E+00 0.  1.
         -4   -1    0    0    0  501 -0.00000000000E+00 -0.00000000000E+00 -0.53567416670E+02  0.53567416670E+02  0.00000000000E+00 0. -1.
        -13    1    1    2    0    0 -0.66628800808E+02 -0.12483298958E+02 -0.83086603082E+01  0.68295496558E+02  0.10566000000E+00 0.  1.
         13    1    1    2    0    0  0.69451346038E+02  0.10971002171E+01  0.71959384643E+02  0.10001428547E+03  0.10566000000E+00 0. -1.
         -4    1    1    2    0  502 -0.28225452303E+01  0.11386198740E+02  0.26553863716E+02  0.29029639364E+02  0.00000000000E+00 0. -1.
</event>
<event>
 5    1  0.6336319E-005  0.3378645E+03  0.7818608E-02  0.9927985E-01
         21   -1    0    0  501  502  0.00000000000E+00  0.00000000000E+00  0.75160759628E+03  0.75160759628E+03  0.00000000000E+00 0. -1.
          4   -1    0    0  502    0 -0.00000000000E+00 -0.00000000000E+00 -0.31235214641E+03  0.31235214641E+03  0.00000000000E+00 0.  1.
        -13    1    1    2    0    0  0.24852005761E+03  0.22090332023E+03 -0.10074989045E+03  0.34743495436E+03  0.10566000000E+00 0.  1.
         13    1    1    2    0    0 -0.33128030573E+03 -0.16523121267E+03  0.44397533206E+03  0.57806755769E+03  0.10566000000E+00 0. -1.
          4    1    1    2  501    0  0.82760248121E+02 -0.55672107559E+02  0.96030008266E+02  0.13845723064E+03  0.00000000000E+00 0.  1.
</event>
<event>
 5    1  0.6336319E-005  0.1500589E+03  0.7818608E-02  0.1124528E+00
         21   -1    0    0  501  502  0.00000000000E+00  0.00000000000E+00  0.18429972812E+03  0.18429972812E+03  0.00000000000E+00 0.  1.
          4   -1    0    0  502    0 -0.00000000000E+00 -0.00000000000E+00 -0.27778319396E+03  0.27778319396E+03  0.00000000000E+00 0.  1.
        -13    1    1    2    0    0  0.78286680786E+02  0.14915479091E+03  0.61464897087E+02  0.17931508798E+03  0.10566000000E+00 0.  1.
         13    1    1    2    0    0 -0.16027752160E+02 -0.78997232048E+02  0.21071474326E+02  0.83315482984E+02  0.10566000000E+00 0. -1.
          4    1    1    2  501    0 -0.62258928626E+02 -0.70157558858E+02 -0.17601983725E+03  0.19945235111E+03  0.00000000000E+00 0.  1.
</event>
<event>
 5    1  0.6336319E-005  0.3450649E+03  0.7818608E-02  0.1000459E+00
         -4   -1    0    0    0  501 -0.00000000000E+00  0.00000000000E+00  0.46933827649E+03  0.46933827649E+03  0.00000000000E+00 0. -1.
         21   -1    0    0  501  502  0.00000000000E+00 -0.00000000000E+00 -0.83533259030E+03  0.83533259030E+03  0.00000000000E+00 0. -1.
        -13    1    1    2    0    0  0.94733700794E+02 -0.22735614860E+03  0.43249778837E+02  0.25007168353E+03  0.10566000000E+00 0.  1.
         13    1    1    2    0    0 -0.39724992220E+03  0.32552135287E+03  0.27500781059E+02  0.51432281301E+03  0.10566000000E+00 0. -1.
         -4    1    1    2    0  502  0.30251622141E+03 -0.98165204268E+02 -0.43674487370E+03  0.54027637025E+03  0.00000000000E+00 0. -1.
</event>
<event>
 5    1  0.6336319E-005  0.3102211E+02  0.7818608E-02  0.1409424E+00
          4   -1    0    0  502    0 -0.00000000000E+00  0.00000000000E+00  0.52968109107E+02  0.52968109107E+02  0.00000000000E+00 0.  1.
         21   -1    0    0  501  502  0.00000000000E+00 -0.00000000000E+00 -0.45165601615E+02  0.45165601615E+02  0.00000000000E+00 0.  1.
        -13    1    1    2    0    0 -0.98127301736E+01 -0.30016633767E+02  0.20545544269E+02  0.37675171261E+02  0.10566000000E+00 0.  1.
         13    1    1    2    0    0 -0.20444680272E+02  0.14694077324E+02 -0.58823885917E+01  0.25855647727E+02  0.10566000000E+00 0. -1.
          4    1    1    2  501    0  0.30257410445E+02  0.15322556443E+02 -0.68606481853E+01  0.34602891734E+02  0.00000000000E+00 0.  1.
</event>
<event>
 5    1  0.6336319E-005  0.4959937E+03  0.7818608E-02  0.9608962E-01
          4   -1    0    0  502    0 -0.00000000000E+00  0.00000000000E+00  0.21703663495E+04  0.21703663495E+04  0.00000000000E+00 0.  1.
         21   -1    0    0  501  502  0.00000000000E+00 -0.00000000000E+00 -0.30437608081E+03  0.30437608081E+03  0.00000000000E+00 0.  1.
        -13    1    1    2    0    0 -0.10380781998E+03  0.40124660225E+03  0.45134808730E+03  0.61277239362E+03  0.10566000000E+00 0.  1.
         13    1    1    2    0    0  0.27158265215E+03  0.16853173115E+03  0.11813603920E+04  0.12238351475E+04  0.10566000000E+00 0. -1.
          4    1    1    2  501    0 -0.16777483217E+03 -0.56977833340E+03  0.23328178940E+03  0.63813488918E+03  0.00000000000E+00 0.  1.
</event>
<event>
 5    1  0.6336319E-005  0.3530348E+03  0.7818608E-02  0.9901258E-01
         -4   -1    0    0    0  501 -0.00000000000E+00  0.00000000000E+00  0.19777500264E+04  0.19777500264E+04  0.00000000000E+00 0. -1.
         21   -1    0    0  501  502  0.00000000000E+00 -0.00000000000E+00 -0.25462653782E+03  0.25462653782E+03  0.00000000000E+00 0. -1.
        -13    1    1    2    0    0 -0.12378354174E+03  0.29917035924E+03  0.69051531040E+03  0.76265108281E+03  0.10566000000E+00 0.  1.
         13    1    1    2    0    0 -0.33399953194E+03 -0.66909369424E+02  0.28272576154E+02  0.34180681793E+03  0.10566000000E+00 0. -1.
         -4    1    1    2    0  502  0.45778307368E+03 -0.23226098982E+03  0.10043356020E+04  0.11279186635E+04  0.00000000000E+00 0. -1.
</event>
<event>
 5    1  0.6336319E-005  0.1194085E+03  0.7818608E-02  0.1135922E+00
          4   -1    0    0  502    0 -0.00000000000E+00  0.00000000000E+00  0.64377400818E+03  0.64377400818E+03  0.00000000000E+00 0.  1.
         21   -1    0    0  501  502  0.00000000000E+00 -0.00000000000E+00 -0.92768946065E+02  0.92768946065E+02  0.00000000000E+00 0. -1.
        -13    1    1    2    0    0  0.10766134233E+03 -0.49878137065E+02  0.58072920365E+03  0.59272692897E+03  0.10566000000E+00 0.  1.
         13    1    1    2    0    0 -0.11616026479E+03  0.56352888820E+02 -0.22858259858E+02  0.13111585107E+03  0.10566000000E+00 0. -1.
          4    1    1    2  501    0  0.84989224646E+01 -0.64747517551E+01 -0.68658816822E+01  0.12700174197E+02  0.00000000000E+00 0.  1.
</event>
<event>
 5    1  0.6336319E-005  0.3558497E+03  0.7818608E-02  0.9977726E-01
         21   -1    0    0  501  502  0.00000000000E+00  0.00000000000E+00  0.15145431567E+03  0.15145431567E+03  0.00000000000E+00 0. -1.
         -4   -1    0    0    0  501 -0.00000000000E+00 -0.00000000000E+00 -0.38188465020E+04  0.38188465020E+04  0.00000000000E+00 0. -1.
        -13    1    1    2    0    0 -0.30700965033E+03 -0.29908130876E+03 -0.14896990243E+04  0.15501315263E+04  0.10566000000E+00 0.  1.
         13    1    1    2    0    0 -0.38411254231E+02 -0.25558004958E+03 -0.17132266853E+03  0.31007749694E+03  0.10566000000E+00 0. -1.
         -4    1    1    2    0  502  0.34542090456E+03  0.55466135834E+03 -0.20063704935E+04  0.21100917944E+04  0.00000000000E+00 0. -1.
</event>
<event>
 5    1  0.6336319E-005  0.5023684E+03  0.7818608E-02  0.9540920E-01
         21   -1    0    0  501  502  0.00000000000E+00  0.00000000000E+00  0.10528222041E+04  0.10528222041E+04  0.00000000000E+00 0.  1.
          4   -1    0    0  502    0 -0.00000000000E+00 -0.00000000000E+00 -0.60001132056E+03  0.60001132056E+03  0.00000000000E+00 0.  1.
        -13    1    1    2    0    0  0.55464364590E+03  0.23756911230E+03  0.41788823014E+03  0.73396133489E+03  0.10566000000E+00 0.  1.
         13    1    1    2    0    0 -0.34849635836E+03  0.18026614390E+03 -0.14658108185E+03  0.41884557912E+03  0.10566000000E+00 0. -1.
          4    1    1    2  501    0 -0.20614728754E+03 -0.41783525620E+03  0.18150373529E+03  0.50002661070E+03  0.00000000000E+00 0.  1.
</event>
<event>
 5    1  0.6336319E-005  0.4533133E+03  0.7818608E-02  0.9701673E-01
          4   -1    0    0  502    0 -0.00000000000E+00  0.00000000000E+00  0.21762000595E+04  0.21762000595E+04  0.00000000000E+00 0.  1.
         21   -1    0    0  501  502  0.00000000000E+00 -0.00000000000E+00 -0.20744913376E+03  0.20744913376E+03  0.00000000000E+00 0.  1.
        -13    1    1    2    0    0  0.21906845991E+02 -0.30423368051E+03  0.11860380207E+04  0.12246322876E+04  0.10566000000E+00 0.  1.
         13    1    1    2    0    0 -0.24790498403E+03 -0.17285415834E+03  0.42433013821E+03  0.52095251081E+03  0.10566000000E+00 0. -1.
          4    1    1    2  501    0  0.22599813804E+03  0.47708783885E+03  0.35838276688E+03  0.63806439485E+03  0.00000000000E+00 0.  1.
</event>
<event>
 5    1  0.6336319E-005  0.4418873E+03  0.7818608E-02  0.9951464E-01
         21   -1    0    0  501  502  0.00000000000E+00  0.00000000000E+00  0.11285086124E+03  0.11285086124E+03  0.00000000000E+00 0.  1.
          4   -1    0    0  502    0 -0.00000000000E+00 -0.00000000000E+00 -0.29751383359E+04  0.29751383359E+04  0.00000000000E+00 0.  1.
        -13    1    1    2    0    0  0.44524764619E+03 -0.17326746249E+03 -0.58334152973E+03  0.75402548463E+03  0.10566000000E+00 0.  1.
         13    1    1    2    0    0 -0.12339155463E+03  0.65504112166E+02 -0.37876643814E+03  0.40370817466E+03  0.10566000000E+00 0. -1.
          4    1    1    2  501    0 -0.32185609156E+03  0.10776335032E+03 -0.19001795068E+04  0.19302555378E+04  0.00000000000E+00 0.  1.
</event>
<event>
 5    1  0.6336319E-005  0.2777636E+03  0.7818608E-02  0.1017203E+00
         21   -1    0    0  501  502  0.00000000000E+00  0.00000000000E+00  0.31277982913E+03  0.31277982913E+03  0.00000000000E+00 0. -1.
         -4   -1    0    0    0  501 -0.00000000000E+00 -0.00000000000E+00 -0.15607662075E+04  0.15607662075E+04  0.00000000000E+00 0. -1.
        -13    1    1    2    0    0 -0.26263360635E+03  0.82809161966E+02 -0.76564373830E+03  0.81366093285E+03  0.10566000000E+00 0.  1.
         13    1    1    2    0    0 -0.18670440356E+03  0.16768333680E+03  0.11115078016E+03  0.27446446554E+03  0.10566000000E+00 0. -1.
         -4    1    1    2    0  502  0.44933800992E+03 -0.25049249876E+03 -0.59349342022E+03  0.78542063821E+03  0.00000000000E+00 0. -1.
</event>
<event>
 5    1  0.6336319E-005  0.4874404E+03  0.7818608E-02  0.9744466E-01
         21   -1    0    0  501  502  0.00000000000E+00  0.00000000000E+00  0.10990276958E+03  0.10990276958E+03  0.00000000000E+00 0.  1.
          4   -1    0    0  502    0 -0.00000000000E+00 -0.00000000000E+00 -0.37153362900E+04  0.37153362900E+04  0.00000000000E+00 0.  1.
        -13    1    1    2    0    0  0.82049233138E+02 -0.47790811557E+03 -0.11047972570E+04  0.12065261016E+04  0.10566000000E+00 0.  1.
         13    1    1    2    0    0  0.20329198925E+03  0.50896209415E+02 -0.12382119468E+04  0.12558212028E+04  0.10566000000E+00 0. -1.
          4    1    1    2  501    0 -0.28534122239E+03  0.42701190616E+03 -0.12624243166E+04  0.13628917552E+04  0.00000000000E+00 0.  1.
</event>
<event>
 5    1  0.6336319E-005  0.5316776E+02  0.7818608E-02  0.1279402E+00
         21   -1    0    0  501  502  0.00000000000E+00  0.00000000000E+00  0.10593291291E+03  0.10593291291E+03  0.00000000000E+00 0. -1.
         -4   -1    0    0    0  501 -0.00000000000E+00 -0.00000000000E+00 -0.13593188021E+03  0.13593188021E+03  0.00000000000E+00 0. -1.
        -13    1    1    2    0    0  0.25838777927E+02 -0.27868262593E+02  0.83226952743E+01  0.38904510347E+02  0.10566000000E+00 0.  1.
         13    1    1    2    0    0 -0.53503803475E+02  0.23963369420E+02 -0.11076125896E+03  0.12531946262E+03  0.10566000000E+00 0. -1.
         -4    1    1    2    0  502  0.27665025548E+02  0.39048931731E+01  0.72439596384E+02  0.77640820150E+02  0.00000000000E+00 0. -1.
</event>
<event>
 5    1  0.6336319E-005  0.4648035E+03  0.7818608E-02  0.9846632E-01
         21   -1    0    0  501  502  0.00000000000E+00  0.00000000000E+00  0.29785117624E+03  0.29785117624E+03  0.00000000000E+00 0. -1.
         -4   -1    0    0    0  501 -0.00000000000E+00 -0.00000000000E+00 -0.11833310572E+04  0.11833310572E+04  0.00000000000E+00 0. -1.
        -13    1    1    2    0    0  0.65699945825E+02 -0.15730839585E+03 -0.19729044610E+03  0.26074114668E+03  0.10566000000E+00 0.  1.
         13    1    1    2    0    0 -0.18168623123E+03 -0.33769324196E+03 -0.58840947464E+03  0.70233349151E+03  0.10566000000E+00 0. -1.
         -4    1    1    2    0  502  0.11598628540E+03  0.49500163781E+03 -0.99779960260E+02  0.51810759530E+03  0.00000000000E+00 0. -1.
</event>
<event>
 5    1  0.6336319E-005  0.2821128E+02  0.7818608E-02  0.1419873E+00
         21   -1    0    0  501  502  0.00000000000E+00  0.00000000000E+00  0.24745245743E+03  0.24745245743E+03  0.00000000000E+00 0. -1.
          4   -1    0    0  502    0 -0.00000000000E+00 -0.00000000000E+00 -0.66130847645E+02  0.66130847645E+02  0.00000000000E+00 0.  1.
        -13    1    1    2    0    0  0.27852667971E+02 -0.16197345457E+01 -0.58591829811E+02  0.64895364532E+02  0.10566000000E+00 0.  1.
         13    1    1    2    0    0 -0.46491337185E+02  0.10560104804E+01  0.18195705411E+03  0.18780559176E+03  0.10566000000E+00 0. -1.
          4    1    1    2  501    0  0.18638669215E+02  0.56372406531E+00  0.57956385489E+02  0.60882348787E+02  0.00000000000E+00 0.  1.
</event>
<event>
 5    1  0.6336319E-005  0.4970739E+03  0.7818608E-02  0.9684209E-01
         -4   -1    0    0    0  501 -0.00000000000E+00  0.00000000000E+00  0.50706101759E+03  0.50706101759E+03  0.00000000000E+00 0. -1.
         21   -1    0    0  501  502  0.00000000000E+00 -0.00000000000E+00 -0.87735479101E+03  0.87735479101E+03  0.00000000000E+00 0. -1.
        -13    1    1    2    0    0  0.24006426569E+03 -0.41439499802E+02  0.92984857370E+02  0.26075712583E+03  0.10566000000E+00 0.  1.
         13    1    1    2    0    0  0.24142495297E+03 -0.31789368286E+03 -0.69141067178E+02  0.40512084599E+03  0.10566000000E+00 0. -1.
         -4    1    1    2    0  502 -0.48148921866E+03  0.35933318266E+03 -0.39413756361E+03  0.71853783679E+03  0.00000000000E+00 0. -1.
</event>
<event>
 5    1  0.6336319E-005  0.3422684E+03  0.7818608E-02  0.9912436E-01
          4   -1    0    0  502    0 -0.00000000000E+00  0.00000000000E+00  0.11505525815E+04  0.11505525815E+04  0.00000000000E+00 0.  1.
         21   -1    0    0  501  502  0.00000000000E+00 -0.00000000000E+00 -0.15862504277E+03  0.15862504277E+03  0.00000000000E+00 0. -1.
        -13    1    1    2    0    0  0.25549757216E+03 -0.23609287874E+03  0.83941513491E+03  0.90864549558E+03  0.10566000000E+00 0.  1.
         13    1    1    2    0    0 -0.23131752128E+03  0.23038715488E+03  0.17194884857E+03  0.36898842052E+03  0.10566000000E+00 0. -1.
          4    1    1    2  501    0 -0.24180050882E+02  0.57057238615E+01 -0.19436444705E+02  0.31543708220E+02  0.00000000000E+00 0.  1.
</event>
<event>
 5    1  0.6336319E-005  0.7442802E+03  0.7818608E-02  0.9061105E-01
          4   -1    0    0  502    0 -0.00000000000E+00  0.00000000000E+00  0.16050239995E+04  0.16050239995E+04  0.00000000000E+00 0.  1.
         21   -1    0    0  501  502  0.00000000000E+00 -0.00000000000E+00 -0.63398105446E+03  0.63398105446E+03  0.00000000000E+00 0.  1.
        -13    1    1    2    0    0  0.65805618690E+03 -0.42536476951E+03  0.48782186421E+03  0.92300775437E+03  0.10566000000E+00 0.  1.
         13    1    1    2    0    0 -0.63162556583E+03  0.34354747191E+03  0.74804349580E+03  0.10375667707E+04  0.10566000000E+00 0. -1.
          4    1    1    2  501    0 -0.26430621075E+02  0.81817297606E+02 -0.26482241500E+03  0.27843052887E+03  0.00000000000E+00 0.  1.
</event>
<event>
 5    1  0.6336319E-005  0.3977790E+03  0.7818608E-02  0.9735482E-01
          4   -1    0    0  502    0 -0.00000000000E+00  0.00000000000E+00  0.11365076011E+04  0.11365076011E+04  0.00000000000E+00 0.  1.
         21   -1    0    0  501  502  0.00000000000E+00 -0.00000000000E+00 -0.29529687707E+03  0.29529687707E+03  0.00000000000E+00 0. -1.
        -13    1    1    2    0    0 -0.39061866715E+03 -0.27797197364E+03  0.45307469748E+03  0.65964236820E+03  0.10566000000E+00 0.  1.
         13    1    1    2    0    0  0.16350661570E+03  0.32357046867E+03  0.40046573356E+03  0.54018985227E+03  0.10566000000E+00 0. -1.
          4    1    1    2  501    0  0.22711205145E+03 -0.45598495025E+02 -0.12329707024E+02  0.23197225769E+03  0.00000000000E+00 0.  1.
</event>
<event>
 5    1  0.6336319E-005  0.2022585E+03  0.7818608E-02  0.1058598E+00
         21   -1    0    0  501  502  0.00000000000E+00  0.00000000000E+00  0.49776555515E+03  0.49776555515E+03  0.00000000000E+00 0.  1.
          4   -1    0    0  502    0 -0.00000000000E+00 -0.00000000000E+00 -0.13951104215E+04  0.13951104215E+04  0.00000000000E+00 0.  1.
        -13    1    1    2    0    0 -0.17077278639E+03  0.23821402781E+02 -0.62531935714E+03  0.64865639084E+03  0.10566000000E+00 0.  1.
         13    1    1    2    0    0  0.26749252529E+03  0.35505307238E+02 -0.72692015722E+03  0.77538751864E+03  0.10566000000E+00 0. -1.
          4    1    1    2  501    0 -0.96719738902E+02 -0.59326710019E+02  0.45489464801E+03  0.46883206717E+03  0.00000000000E+00 0.  1.
</event>
<event>
 5    1  0.6336319E-005  0.1428194E+03  0.7818608E-02  0.1137637E+00
         21   -1    0    0  501  502  0.00000000000E+00  0.00000000000E+00  0.21503716757E+03  0.21503716757E+03  0.00000000000E+00 0. -1.
         -4   -1    0    0    0  501 -0.00000000000E+00 -0.00000000000E+00 -0.20667138012E+03  0.20667138012E+03  0.00000000000E+00 0. -1.
        -13    1    1    2    0    0 -0.11153052877E+02 -0.65879046540E+02 -0.37965027000E+02  0.76849162654E+02  0.10566000000E+00 0.  1.
         13    1    1    2    0    0 -0.32242825148E+02  0.18705505816E+03 -0.34426259146E+02  0.19291027199E+03  0.10566000000E+00 0. -1.
         -4    1    1    2    0  502  0.43395878025E+02 -0.12117601162E+03  0.80757073596E+02  0.15194911305E+03  0.00000000000E+00 0. -1.
</event>
<event>
 5    1  0.6336319E-005  0.4828514E+03  0.7818608E-02  0.9594120E-01
          4   -1    0    0  502    0 -0.00000000000E+00  0.00000000000E+00  0.10337872030E+04  0.10337872030E+04  0.00000000000E+00 0.  1.
         21   -1    0    0  501  502  0.00000000000E+00 -0.00000000000E+00 -0.58519969362E+03  0.58519969362E+03  0.00000000000E+00 0.  1.
        -13    1    1    2    0    0 -0.31259487169E+03 -0.25287392203E+01  0.23830369305E+03  0.39307837592E+03  0.10566000000E+00 0.  1.
         13    1    1    2    0    0 -0.23919137779E+03  0.27599045444E+03  0.43713497372E+03  0.56962289505E+03  0.10566000000E+00 0. -1.
          4    1    1    2  501    0  0.55178624949E+03 -0.27346171522E+03 -0.22685115740E+03  0.65628562564E+03  0.00000000000E+00 0.  1.
</event>
<event>
 5    1  0.6336319E-005  0.1822600E+02  0.7818608E-02  0.1547032E+00
         -4   -1    0    0    0  501 -0.00000000000E+00  0.00000000000E+00  0.12514580848E+03  0.12514580848E+03  0.00000000000E+00 0. -1.
         21   -1    0    0  501  502  0.00000000000E+00 -0.00000000000E+00 -0.13610034243E+02  0.13610034243E+02  0.00000000000E+00 0.  1.
        -13    1    1    2    0    0  0.15668305073E+02  0.68037250653E+00  0.91681130146E+01  0.18166566844E+02  0.10566000000E+00 0.  1.
         13    1    1    2    0    0 -0.27630578113E+02 -0.12890878218E+02  0.98435200524E+02  0.10304913126E+03  0.10566000000E+00 0. -1.
         -4    1    1    2    0  502  0.11962273041E+02  0.12210505712E+02  0.39324607019E+01  0.17540144618E+02  0.00000000000E+00 0. -1.
</event>
<event>
 5    1  0.6336319E-005  0.4042305E+03  0.7818608E-02  0.1030815E+00
         21   -1    0    0  501  502  0.00000000000E+00  0.00000000000E+00  0.14142108553E+03  0.14142108553E+03  0.00000000000E+00 0.  1.
          4   -1    0    0  502    0 -0.00000000000E+00 -0.00000000000E+00 -0.19750937165E+04  0.19750937165E+04  0.00000000000E+00 0.  1.
        -13    1    1    2    0    0 -0.37903743869E+03  0.45642820706E+02 -0.14764220986E+04  0.15249835643E+04  0.10566000000E+00 0.  1.
         13    1    1    2    0    0 -0.31804515421E+02 -0.48947899537E+02 -0.64832861150E+02  0.87239527275E+02  0.10566000000E+00 0. -1.
          4    1    1    2  501    0  0.41084195411E+03  0.33050788319E+01 -0.29241767129E+03  0.50429171051E+03  0.00000000000E+00 0.  1.
</event>
<event>
 5    1  0.6336319E-005  0.2200010E+03  0.7818608E-02  0.1047227E+00
         21   -1    0    0  501  502  0.00000000000E+00  0.00000000000E+00  0.20533505028E+03  0.20533505028E+03  0.00000000000E+00 0. -1.
         -4   -1    0    0    0  501 -0.00000000000E+00 -0.00000000000E+00 -0.13485101285E+04  0.13485101285E+04  0.00000000000E+00 0. -1.
        -13    1    1    2    0    0  0.17105732330E+03  0.70675219764E+02 -0.39850742557E+03  0.43939022968E+03  0.10566000000E+00 0.  1.
         13    1    1    2    0    0 -0.25782716857E+03 -0.63694361597E+01 -0.89383229404E+03  0.93029651165E+03  0.10566000000E+00 0. -1.
         -4    1    1    2    0  502  0.86769845271E+02 -0.64305783604E+02  0.14916464137E+03  0.18415843746E+03  0.00000000000E+00 0. -1.
</event>
<event>
 5    1  0.6336319E-005  0.4947955E+03  0.7818608E-02  0.9974257E-01
         21   -1    0    0  501  502  0.00000000000E+00  0.00000000000E+00  0.15191291598E+03  0.15191291598E+03  0.00000000000E+00 0.  1.
          4   -1    0    0  502    0 -0.00000000000E+00 -0.00000000000E+00 -0.19906804671E+04  0.19906804671E+04  0.00000000000E+00 0.  1.
        -13    1    1    2    0    0  0.45187164301E+03  0.12218097848E+03 -0.83673944218E+03  0.95877477988E+03  0.10566000000E+00 0.  1.
         13    1    1    2    0    0  0.31939243945E+02  0.86589074660E+02 -0.81411715796E+02  0.12306771220E+03  0.10566000000E+00 0. -1.
          4    1    1    2  501    0 -0.48381088696E+03 -0.20877005315E+03 -0.92061639309E+03  0.10607508909E+04  0.00000000000E+00 0.  1.
</event>
<event>
 5    1  0.6336319E-005  0.4422735E+03  0.7818608E-02  0.9614351E-01
         21   -1    0    0  501  502  0.00000000000E+00  0.00000000000E+00  0.40058350266E+03  0.40058350266E+03  0.00000000000E+00 0.  1.
         -4   -1    0    0    0  501 -0.00000000000E+00 -0.00000000000E+00 -0.14162256935E+04  0.14162256935E+04  0.00000000000E+00 0. -1.
        -13    1    1    2    0    0  0.47466054992E+02  0.42038346914E+03 -0.35028820584E+03  0.54925142314E+03  0.10566000000E+00 0.  1.
         13    1    1    2    0    0 -0.46098623052E+03 -0.37547858117E+03 -0.16526692315E+03  0.61709451197E+03  0.10566000000E+00 0. -1.
         -4    1    1    2    0  502  0.41352017553E+03 -0.44904887971E+02 -0.50008706182E+03  0.65046326101E+03  0.00000000000E+00 0. -1.
</event>
<event>
 5    1  0.6336319E-005  0.4953433E+03  0.7818608E-02  0.9704591E-01
         21   -1    0    0  501  502  0.00000000000E+00  0.00000000000E+00  0.13327553537E+04  0.13327553537E+04  0.00000000000E+00 0. -1.
         -4   -1    0    0    0  501 -0.00000000000E+00 -0.00000000000E+00 -0.29342879025E+03  0.29342879025E+03  0.00000000000E+00 0. -1.
        -13    1    1    2    0    0 -0.14219184105E+03  0.17987584823E+03  0.17608315763E+03  0.28910055345E+03  0.10566000000E+00 0.  1.
         13    1    1    2    0    0  0.86685363292E+02  0.39695635621E+03  0.18926866519E+03  0.44823134622E+03  0.10566000000E+00 0. -1.
         -4    1    1    2    0  502  0.55506477759E+02 -0.57683220444E+03  0.67397474058E+03  0.88885224424E+03  0.00000000000E+00 0. -1.
</event>
<event>
 5    1  0.6336319E-005  0.4668466E+03  0.7818608E-02  0.9970706E-01
         21   -1    0    0  501  502  0.00000000000E+00  0.00000000000E+00  0.65556249798E+03  0.65556249798E+03  0.00000000000E+00 0. -1.
         -4   -1    0    0    0  501 -0.00000000000E+00 -0.00000000000E+00 -0.96031861232E+03  0.96031861232E+03  0.00000000000E+00 0. -1.
        -13    1    1    2    0    0 -0.95563529250E+02 -0.56808459075E+02 -0.55536150873E+03  0.56637973630E+03  0.10566000000E+00 0.  1.
         13    1    1    2    0    0  0.51438624441E+03 -0.91661043566E+02 -0.31027091305E+02  0.52340963585E+03  0.10566000000E+00 0. -1.
         -4    1    1    2    0  502 -0.41882271516E+03  0.14846950264E+03  0.28163248570E+03  0.52609173815E+03  0.00000000000E+00 0. -1.
</event>
<event>
 5    1  0.6336319E-005  0.1275876E+03  0.7818608E-02  0.1125588E+00
         21   -1    0    0  501  502  0.00000000000E+00  0.00000000000E+00  0.39120634885E+02  0.39120634885E+02  0.00000000000E+00 0.  1.
         -4   -1    0    0    0  501 -0.00000000000E+00 -0.00000000000E+00 -0.11513528121E+04  0.11513528121E+04  0.00000000000E+00 0. -1.
        -13    1    1    2    0    0 -0.11063885244E+03  0.14791110853E+02 -0.33946356530E+03  0.35734472987E+03  0.10566000000E+00 0.  1.
         13    1    1    2    0    0  0.13853264249E+03 -0.49859566223E+01 -0.78783971320E+03  0.79994223395E+03  0.10566000000E+00 0. -1.
         -4    1    1    2    0  502 -0.27893790047E+02 -0.98051542307E+01  0.15071101272E+02  0.33186483185E+02  0.00000000000E+00 0. -1.
</event>
<event>
 5    1  0.6336319E-005  0.3992657E+03  0.7818608E-02  0.9779769E-01
         21   -1    0    0  501  502  0.00000000000E+00  0.00000000000E+00  0.18420706774E+04  0.18420706774E+04  0.00000000000E+00 0. -1.
         -4   -1    0    0    0  501 -0.00000000000E+00 -0.00000000000E+00 -0.26522300486E+03  0.26522300486E+03  0.00000000000E+00 0. -1.
        -13    1    1    2    0    0  0.31744034077E+03 -0.11527380527E+03  0.28340975983E+03  0.44088266382E+03  0.10566000000E+00 0.  1.
         13    1    1    2    0    0  0.14300607906E+03  0.36464173825E+03  0.98182485812E+03  0.10570687769E+04  0.10566000000E+00 0. -1.
         -4    1    1    2    0  502 -0.46044641983E+03 -0.24936793298E+03  0.31161305460E+03  0.60934224154E+03  0.00000000000E+00 0. -1.
</event>
<event>
 5    1  0.6336319E-005  0.3860708E+03  0.7818608E-02  0.9813589E-01
         21   -1    0    0  501  502  0.00000000000E+00  0.00000000000E+00  0.35977639054E+03  0.35977639054E+03  0.00000000000E+00 0.  1.
          4   -1    0    0  502    0 -0.00000000000E+00 -0.00000000000E+00 -0.17097591867E+04  0.17097591867E+04  0.00000000000E+00 0.  1.
        -13    1    1    2    0    0 -0.50110360809E+03  0.77846229155E+02 -0.53897903569E+03  0.74004275114E+03  0.10566000000E+00 0.  1.
         13    1    1    2    0    0  0.17959299945E+03 -0.28016914749E+03 -0.88231074503E+03  0.94298497264E+03  0.10566000000E+00 0. -1.
          4    1    1    2  501    0  0.32151060864E+03  0.20232291834E+03  0.71306984548E+02  0.38650785348E+03  0.00000000000E+00 0.  1.
</event>
<event>
 5    1  0.6336319E-005  0.6433098E+02  0.7818608E-02  0.1259919E+00
         21   -1    0    0  501  502  0.00000000000E+00  0.00000000000E+00  0.40212189493E+03  0.40212189493E+03  0.00000000000E+00 0. -1.
         -4   -1    0    0    0  501 -0.00000000000E+00 -0.00000000000E+00 -0.59830932770E+02  0.59830932770E+02  0.00000000000E+00 0. -1.
        -13    1    1    2    0    0  0.20748295307E+02  0.39485372969E+02  0.91408312090E+02  0.10171075223E+03  0.10566000000E+00 0.  1.
         13    1    1    2    0    0  0.41061132044E+02 -0.58955988039E+02 -0.25596857566E+02  0.76269491749E+02  0.10566000000E+00 0. -1.
         -4    1    1    2    0  502 -0.61809427351E+02  0.19470615070E+02  0.27647950764E+03  0.28397258372E+03  0.00000000000E+00 0. -1.
</event>
<event>
 5    1  0.6336319E-005  0.2332406E+03  0.7818608E-02  0.1039463E+00
         21   -1    0    0  501  502  0.00000000000E+00  0.00000000000E+00  0.18637619840E+03  0.18637619840E+03  0.00000000000E+00 0.  1.
          4   -1    0    0  502    0 -0.00000000000E+00 -0.00000000000E+00 -0.24980846161E+04  0.24980846161E+04  0.00000000000E+00 0.  1.
        -13    1    1    2    0    0  0.26878512015E+03 -0.28464130848E+03 -0.60160001523E+02  0.39608755630E+03  0.10566000000E+00 0.  1.
         13    1    1    2    0    0 -0.13298333581E+03  0.17713076507E+03 -0.95752161998E+03  0.98280595207E+03  0.10566000000E+00 0. -1.
          4    1    1    2  501    0 -0.13580178434E+03  0.10751054342E+03 -0.12940267962E+04  0.13055673062E+04  0.00000000000E+00 0.  1.
</event>
<event>
 5    1  0.6336319E-005  0.3909181E+03  0.7818608E-02  0.9885528E-01
          4   -1    0    0  502    0 -0.00000000000E+00  0.00000000000E+00  0.52078293500E+03  0.52078293500E+03  0.00000000000E+00 0.  1.
         21   -1    0    0  501  502  0.00000000000E+00 -0.00000000000E+00 -0.79100901091E+03  0.79100901091E+03  0.00000000000E+00 0.  1.
        -13    1    1    2    0    0  0.10464802343E+03  0.46235618635E+03  0.19500843185E+03  0.51259413918E+03  0.10566000000E+00 0.  1.
         13    1    1    2    0    0 -0.23100696015E+03 -0.99108997670E+02 -0.10559933192E+03  0.27265003048E+03  0.10566000000E+00 0. -1.
          4    1    1    2  501    0  0.12635893671E+03 -0.36324718868E+03 -0.35963517584E+03  0.52654777625E+03  0.00000000000E+00 0.  1.
</event>
<event>
 5    1  0.6336319E-005  0.1192105E+03  0.7818608E-02  0.1136183E+00
         21   -1    0    0  501  502  0.00000000000E+00  0.00000000000E+00  0.16478497561E+04  0.16478497561E+04  0.00000000000E+00 0. -1.
         -4   -1    0    0    0  501 -0.00000000000E+00 -0.00000000000E+00 -0.11383715752E+03  0.11383715752E+03  0.00000000000E+00 0. -1.
        -13    1    1    2    0    0 -0.11100669280E+03  0.72688614988E+02  0.30294463661E+03  0.33072886873E+03  0.10566000000E+00 0.  1.
         13    1    1    2    0    0  0.23752256060E+02 -0.11953363186E+03 -0.60178878691E+02  0.13591897372E+03  0.10566000000E+00 0. -1.
         -4    1    1    2    0  502  0.87254436735E+02  0.46845016873E+02  0.12912468407E+04  0.12950390712E+04  0.00000000000E+00 0. -1.
</event>
<event>
 5    1  0.6336319E-005  0.4961605E+03  0.7818608E-02  0.9725288E-01
         21   -1    0    0  501  502  0.00000000000E+00  0.00000000000E+00  0.12615732789E+04  0.12615732789E+04  0.00000000000E+00 0.  1.
          4   -1    0    0  502    0 -0.00000000000E+00 -0.00000000000E+00 -0.32875363886E+03  0.32875363886E+03  0.00000000000E+00 0.  1.
        -13    1    1    2    0    0  0.20009751310E+03  0.32817747877E+03  0.74642069495E+02  0.39154938644E+03  0.10566000000E+00 0.  1.
         13    1    1    2    0    0  0.11711408413E+03  0.17711946474E+03  0.37543437188E+03  0.43132121701E+03  0.10566000000E+00 0. -1.
          4    1    1    2  501    0 -0.31721159723E+03 -0.50529694351E+03  0.48274319871E+03  0.76745631435E+03  0.00000000000E+00 0.  1.
</event>
<event>
 5    1  0.6336319E-005  0.4390135E+03  0.7818608E-02  0.9969815E-01
          4   -1    0    0  502    0 -0.00000000000E+00  0.00000000000E+00  0.17541866158E+04  0.17541866158E+04  0.00000000000E+00 0.  1.
         21   -1    0    0  501  502  0.00000000000E+00 -0.00000000000E+00 -0.25024719854E+03  0.25024719854E+03  0.00000000000E+00 0.  1.
        -13    1    1    2    0    0 -0.46607180999E+03 -0.77221862280E+02  0.61411638907E+02  0.47640061780E+03  0.10566000000E+00 0.  1.
         13    1    1    2    0    0  0.13403870528E+03  0.33568409660E+01  0.67977750125E+03  0.69287452347E+03  0.10566000000E+00 0. -1.
          4    1    1    2  501    0  0.33203310471E+03  0.73865021314E+02  0.76275027707E+03  0.83515867305E+03  0.00000000000E+00 0.  1.
</event>
<event>
 5    1  0.6336319E-005  0.1550591E+03  0.7818608E-02  0.1096227E+00
          4   -1    0    0  502    0 -0.00000000000E+00  0.00000000000E+00  0.35539990927E+03  0.35539990927E+03  0.00000000000E+00 0.  1.
         21   -1    0    0  501  502  0.00000000000E+00 -0.00000000000E+00 -0.97890878841E+03  0.97890878841E+03  0.00000000000E+00 0.  1.
        -13    1    1    2    0    0  0.14393162210E+03 -0.59876649976E+02  0.32125655856E+03  0.35708166102E+03  0.10566000000E+00 0.  1.
         13    1    1    2    0    0 -0.13167202428E+03  0.50066000419E+02 -0.29130549564E+03  0.32357847476E+03  0.10566000000E+00 0. -1.
          4    1    1    2  501    0 -0.12259597825E+02  0.98106495569E+01 -0.65345994206E+03  0.65364856189E+03  0.00000000000E+00 0.  1.
</event>
<event>
 5    1  0.6336319E-005  0.5025205E+03  0.7818608E-02  0.9579990E-01
         -4   -1    0    0    0  501 -0.00000000000E+00  0.00000000000E+00  0.16429228035E+04  0.16429228035E+04  0.00000000000E+00 0. -1.
         21   -1    0    0  501  502  0.00000000000E+00 -0.00000000000E+00 -0.73842028155E+03  0.73842028155E+03  0.00000000000E+00 0. -1.
        -13    1    1    2    0    0  0.12974787128E+03  0.31506846039E+03  0.12241431938E+04  0.12706806109E+04  0.10566000000E+00 0.  1.
         13    1    1    2    0    0 -0.54016527340E+02 -0.64875065356E+03 -0.39340568611E+03  0.76063344704E+03  0.10566000000E+00 0. -1.
         -4    1    1    2    0  502 -0.75731343937E+02  0.33368219317E+03  0.73765014284E+02  0.35002902712E+03  0.00000000000E+00 0. -1.
</event>
<event>
 5    1  0.6336319E-005  0.6938980E+02  0.7818608E-02  0.1228337E+00
         21   -1    0    0  501  502  0.00000000000E+00  0.00000000000E+00  0.54664004749E+03  0.54664004749E+03  0.00000000000E+00 0.  1.
          4   -1    0    0  502    0 -0.00000000000E+00 -0.00000000000E+00 -0.77022582886E+02  0.77022582886E+02  0.00000000000E+00 0.  1.
        -13    1    1    2    0    0  0.11512070839E+03  0.10536457454E+02  0.10102238020E+03  0.15352305006E+03  0.10566000000E+00 0.  1.
         13    1    1    2    0    0 -0.62071310312E+02  0.65700140747E+01 -0.28879788706E+02  0.68775475342E+02  0.10566000000E+00 0. -1.
          4    1    1    2  501    0 -0.53049398076E+02 -0.17106471529E+02  0.39747487312E+03  0.40136410498E+03  0.00000000000E+00 0.  1.
</event>
<event>
 5    1  0.6336319E-005  0.1390381E+03  0.7818608E-02  0.1112456E+00
         -4   -1    0    0    0  501 -0.00000000000E+00  0.00000000000E+00  0.75073893722E+03  0.75073893722E+03  0.00000000000E+00 0. -1.
         21   -1    0    0  501  502  0.00000000000E+00 -0.00000000000E+00 -0.16270071604E+03  0.16270071604E+03  0.00000000000E+00 0. -1.
        -13    1    1    2    0    0  0.41780123115E+02 -0.13620280555E+03 -0.40876657077E+01  0.14252544721E+03  0.10566000000E+00 0.  1.
         13    1    1    2    0    0 -0.72196613248E+02  0.11888622371E+03  0.67066121500E+03  0.68493266941E+03  0.10566000000E+00 0. -1.
         -4    1    1    2    0  502  0.30416490133E+02  0.17316581842E+02 -0.78535328118E+02  0.85981536630E+02  0.00000000000E+00 0. -1.
</event>
<event>
 5    1  0.6336319E-005  0.3676214E+03  0.7818608E-02  0.9913469E-01
         -4   -1    0    0    0  501 -0.00000000000E+00  0.00000000000E+00  0.78259251331E+03  0.78259251331E+03  0.00000000000E+00 0. -1.
         21   -1    0    0  501  502  0.00000000000E+00 -0.00000000000E+00 -0.50738661355E+03  0.50738661355E+03  0.00000000000E+00 0. -1.
        -13    1    1    2    0    0  0.27527451806E+03 -0.71444367880E+00 -0.64410811446E+02  0.28271069050E+03  0.10566000000E+00 0.  1.
         13    1    1    2    0    0 -0.28813849752E+03 -0.36036184678E+03  0.43442961464E+03  0.63372987590E+03  0.10566000000E+00 0. -1.
         -4    1    1    2    0  502  0.12863979454E+02  0.36107629046E+03 -0.94812903436E+02  0.37353856047E+03  0.00000000000E+00 0. -1.
</event>
<event>
 5    1  0.6336319E-005  0.1097445E+03  0.7818608E-02  0.1149368E+00
         21   -1    0    0  501  502  0.00000000000E+00  0.00000000000E+00  0.54771366845E+02  0.54771366845E+02  0.00000000000E+00 0. -1.
          4   -1    0    0  502    0 -0.00000000000E+00 -0.00000000000E+00 -0.50563075328E+03  0.50563075328E+03  0.00000000000E+00 0.  1.
        -13    1    1    2    0    0 -0.93995810019E+02 -0.35951616690E+02 -0.27413570980E+03  0.29202419351E+03  0.10566000000E+00 0.  1.
         13    1    1    2    0    0  0.11837222868E+03  0.53822198684E+02 -0.19401148689E+03  0.23355787678E+03  0.10566000000E+00 0. -1.
          4    1    1    2  501    0 -0.24376418665E+02 -0.17870581995E+02  0.17287810252E+02  0.34820049843E+02  0.00000000000E+00 0.  1.
</event>
<event>
 5    1  0.6336319E-005  0.3672165E+02  0.7818608E-02  0.1398556E+00
          4   -1    0    0  502    0 -0.00000000000E+00  0.00000000000E+00  0.19968069960E+03  0.19968069960E+03  0.00000000000E+00 0.  1.
         21   -1    0    0  501  502  0.00000000000E+00 -0.00000000000E+00 -0.19545734019E+02  0.19545734019E+02  0.00000000000E+00 0.  1.
        -13    1    1    2    0    0 -0.46610900024E+02  0.17297023002E+02  0.95564271009E+02  0.10772327540E+03  0.10566000000E+00 0.  1.
         13    1    1    2    0    0  0.12967796665E+02 -0.12749638449E+02  0.73618113866E+02  0.75831094441E+02  0.10566000000E+00 0. -1.
          4    1    1    2  501    0  0.33643103359E+02 -0.45473845534E+01  0.10952580707E+02  0.35672063776E+02  0.00000000000E+00 0.  1.
</event>
<event>
 5    1  0.6336319E-005  0.1075427E+03  0.7818608E-02  0.1152645E+00
          4   -1    0    0  502    0 -0.00000000000E+00  0.00000000000E+00  0.25945978621E+03  0.25945978621E+03  0.00000000000E+00 0.  1.
         21   -1    0    0  501  502  0.00000000000E+00 -0.00000000000E+00 -0.30232179019E+03  0.30232179019E+03  0.00000000000E+00 0.  1.
        -13    1    1    2    0    0 -0.10151577542E+03 -0.62226544494E+02  0.15249542715E+03  0.19347470626E+03  0.10566000000E+00 0.  1.
         13    1    1    2    0    0  0.94034772833E+02  0.18913613180E+02  0.57383262644E+02  0.11177259620E+03  0.10566000000E+00 0. -1.
          4    1    1    2  501    0  0.74810025825E+01  0.43312931314E+02 -0.25274069377E+03  0.25653427394E+03  0.00000000000E+00 0.  1.
</event>
<event>
 5    1  0.6336319E-005  0.4163396E+03  0.7818608E-02  0.9864141E-01
         21   -1    0    0  501  502  0.00000000000E+00  0.00000000000E+00  0.55380287210E+03  0.55380287210E+03  0.00000000000E+00 0.  1.
          4   -1    0    0  502    0 -0.00000000000E+00 -0.00000000000E+00 -0.78518033169E+03  0.78518033169E+03  0.00000000000E+00 0.  1.
        -13    1    1    2    0    0 -0.19025436657E+03 -0.39313566618E+03  0.29934316848E+03  0.52948911197E+03  0.10566000000E+00 0.  1.
         13    1    1    2    0    0 -0.13291823095E+03  0.17979752736E+03 -0.20862364771E+03  0.30580752855E+03  0.10566000000E+00 0. -1.
          4    1    1    2  501    0  0.32317259753E+03  0.21333813882E+03 -0.32209698035E+03  0.50368656327E+03  0.00000000000E+00 0.  1.
</event>
<event>
 5    1  0.6336319E-005  0.4800497E+03  0.7818608E-02  0.9541664E-01
         21   -1    0    0  501  502  0.00000000000E+00  0.00000000000E+00  0.49687542567E+03  0.49687542567E+03  0.00000000000E+00 0.  1.
          4   -1    0    0  502    0 -0.00000000000E+00 -0.00000000000E+00 -0.13440183965E+04  0.13440183965E+04  0.00000000000E+00 0.  1.
        -13    1    1    2    0    0  0.96410517017E+02 -0.10316024519E+03 -0.68274135726E+03  0.69718921109E+03  0.10566000000E+00 0.  1.
         13    1    1    2    0    0  0.24974957576E+03 -0.42930556650E+03 -0.78192403433E+02  0.50278443008E+03  0.10566000000E+00 0. -1.
          4    1    1    2  501    0 -0.34616009277E+03  0.53246581169E+03 -0.86209210105E+02  0.64092018096E+03  0.00000000000E+00 0.  1.
</event>
<event>
 5    1  0.6336319E-005  0.6349313E+02  0.7818608E-02  0.1267274E+00
         21   -1    0    0  501  502  0.00000000000E+00  0.00000000000E+00  0.32560502747E+03  0.32560502747E+03  0.00000000000E+00 0. -1.
          4   -1    0    0  502    0 -0.00000000000E+00 -0.00000000000E+00 -0.19619754065E+03  0.19619754065E+03  0.00000000000E+00 0.  1.
        -13    1    1    2    0    0 -0.38816779977E+02  0.64942123210E+01 -0.17282984752E+03  0.17725429349E+03  0.10566000000E+00 0.  1.
         13    1    1    2    0    0  0.87321994518E+02 -0.47465191707E+02  0.21279193819E+03  0.23485845796E+03  0.10566000000E+00 0. -1.
          4    1    1    2  501    0 -0.48505214541E+02  0.40970979386E+02  0.89445396153E+02  0.10968981668E+03  0.00000000000E+00 0.  1.
</event>
<event>
 5    1  0.6336319E-005  0.1284377E+03  0.7818608E-02  0.1124563E+00
         -4   -1    0    0    0  501 -0.00000000000E+00  0.00000000000E+00  0.38158064218E+02  0.38158064218E+02  0.00000000000E+00 0. -1.
         21   -1    0    0  501  502  0.00000000000E+00 -0.00000000000E+00 -0.75659703585E+03  0.75659703585E+03  0.00000000000E+00 0.  1.
        -13    1    1    2    0    0  0.11571742740E+03  0.25943794605E+01 -0.42737558946E+03  0.44277213037E+03  0.10566000000E+00 0.  1.
         13    1    1    2    0    0 -0.13272446223E+03  0.20264966879E+01 -0.11674119098E+03  0.17677218786E+03  0.10566000000E+00 0. -1.
         -4    1    1    2    0  502  0.17007034826E+02 -0.46208761484E+01 -0.17432219120E+03  0.17521078184E+03  0.00000000000E+00 0. -1.
</event>
<event>
 5    1  0.6336319E-005  0.4995086E+03  0.7818608E-02  0.9699444E-01
         21   -1    0    0  501  502  0.00000000000E+00  0.00000000000E+00  0.34966992925E+03  0.34966992925E+03  0.00000000000E+00 0. -1.
         -4   -1    0    0    0  501 -0.00000000000E+00 -0.00000000000E+00 -0.13734410027E+04  0.13734410027E+04  0.00000000000E+00 0. -1.
        -13    1    1    2    0    0  0.84859883552E+02 -0.21123643976E+03 -0.54210497853E+03  0.58796245818E+03  0.10566000000E+00 0.  1.
         13    1    1    2    0    0 -0.46648591051E+03  0.35531993485E+03 -0.13959228696E+03  0.60278302776E+03  0.10566000000E+00 0. -1.
         -4    1    1    2    0  502  0.38162602696E+03 -0.14408349509E+03 -0.34207380794E+03  0.53236544599E+03  0.00000000000E+00 0. -1.
</event>
<event>
 5    1  0.6336319E-005  0.4717719E+03  0.7818608E-02  0.9781452E-01
          4   -1    0    0  502    0 -0.00000000000E+00  0.00000000000E+00  0.23999325174E+04  0.23999325174E+04  0.00000000000E+00 0.  1.
         21   -1    0    0  501  502  0.00000000000E+00 -0.00000000000E+00 -0.16582618638E+03  0.16582618638E+03  0.00000000000E+00 0.  1.
        -13    1    1    2    0    0  0.31974466574E+03 -0.24623470397E+03  0.74207832154E+03  0.84471795717E+03  0.10566000000E+00 0.  1.
         13    1    1    2    0    0  0.19754849083E+03 -0.49011459789E+02  0.15019678952E+03  0.25295575931E+03  0.10566000000E+00 0. -1.
          4    1    1    2  501    0 -0.51729315657E+03  0.29524616376E+03  0.13418312199E+04  0.14680849873E+04  0.00000000000E+00 0.  1.
</event>
<event>
 5    1  0.6336319E-005  0.1355224E+03  0.7818608E-02  0.1117207E+00
         -4   -1    0    0    0  501 -0.00000000000E+00  0.00000000000E+00  0.39583690997E+03  0.39583690997E+03  0.00000000000E+00 0. -1.
         21   -1    0    0  501  502  0.00000000000E+00 -0.00000000000E+00 -0.29444308640E+03  0.29444308640E+03  0.00000000000E+00 0.  1.
        -13    1    1    2    0    0 -0.18137896533E+03  0.16490014789E+03  0.61066572038E+02  0.25262526639E+03  0.10566000000E+00 0.  1.
         13    1    1    2    0    0  0.10030619946E+03 -0.56302101358E+02  0.19846566848E+03  0.22939026352E+03  0.10566000000E+00 0. -1.
         -4    1    1    2    0  502  0.81072765865E+02 -0.10859804653E+03 -0.15813841695E+03  0.20826446646E+03  0.00000000000E+00 0. -1.
</event>
<event>
 5    1  0.6336319E-005  0.2799214E+03  0.7818608E-02  0.1015955E+00
         21   -1    0    0  501  502  0.00000000000E+00  0.00000000000E+00  0.39971948842E+03  0.39971948842E+03  0.00000000000E+00 0. -1.
         -4   -1    0    0    0  501 -0.00000000000E+00 -0.00000000000E+00 -0.15190432432E+04  0.15190432432E+04  0.00000000000E+00 0. -1.
        -13    1    1    2    0    0  0.23719313012E+03 -0.13469492437E+02 -0.74107331358E+03  0.77822340974E+03  0.10566000000E+00 0.  1.
         13    1    1    2    0    0 -0.43059827011E+03 -0.67982875855E+02 -0.65893102699E+03  0.79008015488E+03  0.10566000000E+00 0. -1.
         -4    1    1    2    0  502  0.19340514000E+03  0.81452368292E+02  0.28068058581E+03  0.35045916699E+03  0.00000000000E+00 0. -1.
</event>
<event>
 5    1  0.6336319E-005  0.2516993E+03  0.7818608E-02  0.1029516E+00
          4   -1    0    0  502    0 -0.00000000000E+00  0.00000000000E+00  0.10647529082E+03  0.10647529082E+03  0.00000000000E+00 0.  1.
         21   -1    0    0  501  502  0.00000000000E+00 -0.00000000000E+00 -0.15835587737E+04  0.15835587737E+04  0.00000000000E+00 0.  1.
        -13    1    1    2    0    0 -0.27230166794E+03  0.12717492924E+03 -0.75594574141E+03  0.81349593491E+03  0.10566000000E+00 0.  1.
         13    1    1    2    0    0  0.22750147920E+03 -0.77075369000E+02 -0.11433790767E+03  0.26602763736E+03  0.10566000000E+00 0. -1.
          4    1    1    2  501    0  0.44800188739E+02 -0.50099560236E+02 -0.60679983382E+03  0.61051049226E+03  0.00000000000E+00 0.  1.
</event>
<event>
 5    1  0.6336319E-005  0.2523729E+03  0.7818608E-02  0.1029170E+00
         21   -1    0    0  501  502  0.00000000000E+00  0.00000000000E+00  0.72401947883E+03  0.72401947883E+03  0.00000000000E+00 0.  1.
         -4   -1    0    0    0  501 -0.00000000000E+00 -0.00000000000E+00 -0.18258767650E+03  0.18258767650E+03  0.00000000000E+00 0. -1.
        -13    1    1    2    0    0  0.22799114430E+03 -0.68847936793E+02  0.42469933515E+03  0.48691840869E+03  0.10566000000E+00 0.  1.
         13    1    1    2    0    0 -0.24012990368E+03  0.88272246269E+02 -0.42040892117E+02  0.25927168738E+03  0.10566000000E+00 0. -1.
         -4    1    1    2    0  502  0.12138759389E+02 -0.19424309476E+02  0.15877335930E+03  0.16041705926E+03  0.00000000000E+00 0. -1.
</event>
<event>
 5    1  0.6336319E-005  0.4620588E+03  0.7818608E-02  0.9570193E-01
          4   -1    0    0  502    0 -0.00000000000E+00  0.00000000000E+00  0.28240551356E+04  0.28240551356E+04  0.00000000000E+00 0.  1.
         21   -1    0    0  501  502  0.00000000000E+00 -0.00000000000E+00 -0.27311353790E+03  0.27311353790E+03  0.00000000000E+00 0.  1.
        -13    1    1    2    0    0  0.42860447936E+03 -0.97794698317E+02  0.26455462896E+03  0.51308358541E+03  0.10566000000E+00 0.  1.
         13    1    1    2    0    0  0.88247765023E+02  0.45773970176E+03  0.15318988016E+04  0.16012580217E+04  0.10566000000E+00 0. -1.
          4    1    1    2  501    0 -0.51685224439E+03 -0.35994500345E+03  0.75448816712E+03  0.98282706635E+03  0.00000000000E+00 0.  1.
</event>
<event>
 5    1  0.6336319E-005  0.2175710E+02  0.7818608E-02  0.1486786E+00
         21   -1    0    0  501  502  0.00000000000E+00  0.00000000000E+00  0.31238157915E+02  0.31238157915E+02  0.00000000000E+00 0. -1.
          4   -1    0    0  502    0 -0.00000000000E+00 -0.00000000000E+00 -0.26624135391E+02  0.26624135391E+02  0.00000000000E+00 0.  1.
        -13    1    1    2    0    0 -0.17031956171E+02 -0.27240060395E+01  0.40168976236E+01  0.17710289960E+02  0.10566000000E+00 0.  1.
         13    1    1    2    0    0  0.26277488585E+02 -0.29901063907E+01 -0.64193185542E+01  0.27215178804E+02  0.10566000000E+00 0. -1.
          4    1    1    2  501    0 -0.92455324143E+01  0.57141124302E+01  0.70164434541E+01  0.12936824542E+02  0.00000000000E+00 0.  1.
</event>
<event>
 5    1  0.6336319E-005  0.5349049E+03  0.7818608E-02  0.9404582E-01
          4   -1    0    0  502    0 -0.00000000000E+00  0.00000000000E+00  0.23945803978E+04  0.23945803978E+04  0.00000000000E+00 0.  1.
         21   -1    0    0  501  502  0.00000000000E+00 -0.00000000000E+00 -0.26233006619E+03  0.26233006619E+03  0.00000000000E+00 0.  1.
        -13    1    1    2    0    0  0.37031927098E+02  0.60562943332E+03  0.13796932500E+04  0.15072199074E+04  0.10566000000E+00 0.  1.
         13    1    1    2    0    0 -0.14649965904E+03 -0.44902918390E+03  0.82063813081E+03  0.94685601387E+03  0.10566000000E+00 0. -1.
          4    1    1    2  501    0  0.10946773195E+03 -0.15660024942E+03 -0.68081049177E+02  0.20283454270E+03  0.00000000000E+00 0.  1.
</event>
<event>
 5    1  0.6336319E-005  0.3876265E+02  0.7818608E-02  0.1345787E+00
         21   -1    0    0  501  502  0.00000000000E+00  0.00000000000E+00  0.19707170967E+02  0.19707170967E+02  0.00000000000E+00 0. -1.
         -4   -1    0    0    0  501 -0.00000000000E+00 -0.00000000000E+00 -0.19532507041E+03  0.19532507041E+03  0.00000000000E+00 0. -1.
        -13    1    1    2    0    0 -0.55156855364E+01 -0.40585030786E+02 -0.85092725035E+02  0.94437018848E+02  0.10566000000E+00 0.  1.
         13    1    1    2    0    0 -0.14772459131E+02  0.36490500748E+02 -0.91773160050E+02  0.99860433922E+02  0.10566000000E+00 0. -1.
         -4    1    1    2    0  502  0.20288144667E+02  0.40945300383E+01  0.12479856459E+01  0.20734788604E+02  0.00000000000E+00 0. -1.
</event>
<event>
 5    1  0.6336319E-005  0.5936889E+03  0.7818608E-02  0.9293356E-01
         21   -1    0    0  501  502  0.00000000000E+00  0.00000000000E+00  0.34959254145E+03  0.34959254145E+03  0.00000000000E+00 0. -1.
          4   -1    0    0  502    0 -0.00000000000E+00 -0.00000000000E+00 -0.11639637719E+04  0.11639637719E+04  0.00000000000E+00 0.  1.
        -13    1    1    2    0    0 -0.50161921956E+03  0.34012948983E+03 -0.18775621171E+03  0.63447798818E+03  0.10566000000E+00 0.  1.
         13    1    1    2    0    0  0.48855830121E+03 -0.32588520389E+03 -0.62786506443E+03  0.85971212048E+03  0.10566000000E+00 0. -1.
          4    1    1    2  501    0  0.13060918348E+02 -0.14244285937E+02  0.12500456951E+01  0.19366204693E+02  0.00000000000E+00 0.  1.
</event>
<event>
 5    1  0.6336319E-005  0.1641567E+03  0.7818608E-02  0.1088872E+00
          4   -1    0    0  502    0 -0.00000000000E+00  0.00000000000E+00  0.62363598528E+03  0.62363598528E+03  0.00000000000E+00 0.  1.
         21   -1    0    0  501  502  0.00000000000E+00 -0.00000000000E+00 -0.81678007458E+03  0.81678007458E+03  0.00000000000E+00 0.  1.
        -13    1    1    2    0    0  0.18158467604E+03 -0.24453738885E+03  0.23405654413E+03  0.38412759095E+03  0.10566000000E+00 0.  1.
         13    1    1    2    0    0 -0.50641059336E+02  0.15170959583E+03  0.28468277983E+03  0.32653424729E+03  0.10566000000E+00 0. -1.
          4    1    1    2  501    0 -0.13094361670E+03  0.92827793019E+02 -0.71188341325E+03  0.72975422162E+03  0.00000000000E+00 0.  1.
</event>
<event>
 5    1  0.6336319E-005  0.2847947E+03  0.7818608E-02  0.1081055E+00
         21   -1    0    0  501  502  0.00000000000E+00  0.00000000000E+00  0.61666273898E+03  0.61666273898E+03  0.00000000000E+00 0.  1.
          4   -1    0    0  502    0 -0.00000000000E+00 -0.00000000000E+00 -0.35213361660E+03  0.35213361660E+03  0.00000000000E+00 0.  1.
        -13    1    1    2    0    0 -0.23125805041E+03 -0.12475886133E+03 -0.23388647478E+03  0.35177827336E+03  0.10566000000E+00 0.  1.
         13    1    1    2    0    0 -0.64793814027E+01 -0.37523597664E+02 -0.36892765991E+01  0.38257348195E+02  0.10566000000E+00 0. -1.
          4    1    1    2  501    0  0.23773743181E+03  0.16228245900E+03  0.50210487377E+03  0.57876073402E+03  0.00000000000E+00 0.  1.
</event>
<event>
 5    1  0.6336319E-005  0.1388004E+03  0.7818608E-02  0.1112715E+00
         21   -1    0    0  501  502  0.00000000000E+00  0.00000000000E+00  0.37273549953E+02  0.37273549953E+02  0.00000000000E+00 0.  1.
         -4   -1    0    0    0  501 -0.00000000000E+00 -0.00000000000E+00 -0.10408280099E+04  0.10408280099E+04  0.00000000000E+00 0. -1.
        -13    1    1    2    0    0 -0.79202032314E+02  0.10480457978E+03 -0.17495528057E+03  0.21878373620E+03  0.10566000000E+00 0.  1.
         13    1    1    2    0    0  0.10350328371E+03 -0.96176925292E+02 -0.82007608102E+03  0.83215847080E+03  0.10566000000E+00 0. -1.
         -4    1    1    2    0  502 -0.24301251397E+02 -0.86276544834E+01 -0.85230983509E+01  0.27159352843E+02  0.00000000000E+00 0. -1.
</event>
<event>
 5    1  0.6336319E-005  0.2723641E+03  0.7818608E-02  0.1039738E+00
         21   -1    0    0  501  502  0.00000000000E+00  0.00000000000E+00  0.40845944127E+03  0.40845944127E+03  0.00000000000E+00 0. -1.
         -4   -1    0    0    0  501 -0.00000000000E+00 -0.00000000000E+00 -0.19666270758E+04  0.19666270758E+04  0.00000000000E+00 0. -1.
        -13    1    1    2    0    0  0.89931519724E+02 -0.43118835673E+03 -0.10835370763E+04  0.11696425454E+04  0.10566000000E+00 0.  1.
         13    1    1    2    0    0 -0.16007348189E+03  0.64896598628E+02 -0.73213552392E+03  0.75223501957E+03  0.10566000000E+00 0. -1.
         -4    1    1    2    0  502  0.70141962171E+02  0.36629175811E+03  0.25750496566E+03  0.45320895209E+03  0.00000000000E+00 0. -1.
</event>
<event>
 5    1  0.6336319E-005  0.7696737E+03  0.7818608E-02  0.9027604E-01
         -4   -1    0    0    0  501 -0.00000000000E+00  0.00000000000E+00  0.21922926624E+04  0.21922926624E+04  0.00000000000E+00 0. -1.
         21   -1    0    0  501  502  0.00000000000E+00 -0.00000000000E+00 -0.23280933850E+04  0.23280933850E+04  0.00000000000E+00 0. -1.
        -13    1    1    2    0    0 -0.76819974438E+03 -0.16414437105E+01  0.19129288541E+04  0.20614146486E+04  0.10566000000E+00 0.  1.
         13    1    1    2    0    0  0.78559646225E+03 -0.35843700290E+03 -0.86770828051E+03  0.12241554467E+04  0.10566000000E+00 0. -1.
         -4    1    1    2    0  502 -0.17396717876E+02  0.36007844661E+03 -0.11810212962E+04  0.12348159521E+04  0.00000000000E+00 0. -1.
</event>
<event>
 5    1  0.6336319E-005  0.2636117E+03  0.7818608E-02  0.1023571E+00
         21   -1    0    0  501  502  0.00000000000E+00  0.00000000000E+00  0.37939996258E+03  0.37939996258E+03  0.00000000000E+00 0.  1.
         -4   -1    0    0    0  501 -0.00000000000E+00 -0.00000000000E+00 -0.38626436801E+03  0.38626436801E+03  0.00000000000E+00 0. -1.
        -13    1    1    2    0    0  0.14145923162E+03  0.21637672958E+03  0.10185154213E+02  0.25871480794E+03  0.10566000000E+00 0.  1.
         13    1    1    2    0    0 -0.16898247965E+03 -0.20633624493E+03 -0.19259761011E+03  0.32897351715E+03  0.10566000000E+00 0. -1.
         -4    1    1    2    0  502  0.27523248021E+02 -0.10040484649E+02  0.17554805047E+03  0.17797600551E+03  0.00000000000E+00 0. -1.
</event>
<event>
 5    1  0.6336319E-005  0.8526637E+02  0.7818608E-02  0.1191542E+00
         21   -1    0    0  501  502  0.00000000000E+00  0.00000000000E+00  0.31294034761E+02  0.31294034761E+02  0.00000000000E+00 0. -1.
          4   -1    0    0  502    0 -0.00000000000E+00 -0.00000000000E+00 -0.57483064872E+03  0.57483064872E+03  0.00000000000E+00 0.  1.
        -13    1    1    2    0    0 -0.93723157382E+02 -0.43930247833E+01 -0.30424342439E+03  0.31838247651E+03  0.10566000000E+00 0.  1.
         13    1    1    2    0    0  0.59353209688E+02 -0.32247481817E+02 -0.32547486846E+02  0.74980355080E+02  0.10566000000E+00 0. -1.
          4    1    1    2  501    0  0.34369947694E+02  0.36640506600E+02 -0.20674570272E+03  0.21276185189E+03  0.00000000000E+00 0.  1.
</event>
<event>
 5    1  0.6336319E-005  0.4558406E+03  0.7818608E-02  0.9811865E-01
         21   -1    0    0  501  502  0.00000000000E+00  0.00000000000E+00  0.50315443535E+03  0.50315443535E+03  0.00000000000E+00 0. -1.
         -4   -1    0    0    0  501 -0.00000000000E+00 -0.00000000000E+00 -0.87773727254E+03  0.87773727254E+03  0.00000000000E+00 0. -1.
        -13    1    1    2    0    0  0.14918539713E+03 -0.13820871828E+03 -0.26840708210E+03  0.33674961828E+03  0.10566000000E+00 0.  1.
         13    1    1    2    0    0  0.11936214422E+03  0.49509728850E+03 -0.25992786931E+03  0.57177893890E+03  0.10566000000E+00 0. -1.
         -4    1    1    2    0  502 -0.26854754135E+03 -0.35688857022E+03  0.15375211423E+03  0.47236315071E+03  0.00000000000E+00 0. -1.
</event>
<event>
 5    1  0.6336319E-005  0.3029575E+03  0.7818608E-02  0.1019513E+00
         21   -1    0    0  501  502  0.00000000000E+00  0.00000000000E+00  0.58755152336E+03  0.58755152336E+03  0.00000000000E+00 0. -1.
          4   -1    0    0  502    0 -0.00000000000E+00 -0.00000000000E+00 -0.89920824658E+03  0.89920824658E+03  0.00000000000E+00 0.  1.
        -13    1    1    2    0    0 -0.19165735385E+03  0.12968968515E+03  0.31344836291E+03  0.38961756004E+03  0.10566000000E+00 0.  1.
         13    1    1    2    0    0 -0.33169881107E+03 -0.17584756216E+03 -0.23742038161E+03  0.44420143533E+03  0.10566000000E+00 0. -1.
          4    1    1    2  501    0  0.52335616492E+03  0.46157877010E+02 -0.38768470452E+03  0.65294077456E+03  0.00000000000E+00 0.  1.
</event>
<event>
 5    1  0.6336319E-005  0.9086388E+03  0.7818608E-02  0.8865520E-01
         -4   -1    0    0    0  501 -0.00000000000E+00  0.00000000000E+00  0.24060837184E+04  0.24060837184E+04  0.00000000000E+00 0. -1.
         21   -1    0    0  501  502  0.00000000000E+00 -0.00000000000E+00 -0.46939211089E+03  0.46939211089E+03  0.00000000000E+00 0.  1.
        -13    1    1    2    0    0  0.81335862274E+03 -0.18871782688E+02  0.55658836915E+03  0.98574794812E+03  0.10566000000E+00 0.  1.
         13    1    1    2    0    0 -0.96862513021E+03  0.24701630311E+03  0.11923886321E+04  0.15559699091E+04  0.10566000000E+00 0. -1.
         -4    1    1    2    0  502  0.15526650746E+03 -0.22814452042E+03  0.18771460629E+03  0.33375797212E+03  0.00000000000E+00 0. -1.
</event>
<event>
 5    1  0.6336319E-005  0.2793346E+03  0.7818608E-02  0.1031560E+00
         21   -1    0    0  501  502  0.00000000000E+00  0.00000000000E+00  0.28150690498E+03  0.28150690498E+03  0.00000000000E+00 0.  1.
          4   -1    0    0  502    0 -0.00000000000E+00 -0.00000000000E+00 -0.12889723110E+04  0.12889723110E+04  0.00000000000E+00 0.  1.
        -13    1    1    2    0    0 -0.42126383002E+03  0.11709099609E+03 -0.10211508530E+04  0.11108206838E+04  0.10566000000E+00 0.  1.
         13    1    1    2    0    0  0.16434941784E+03 -0.53636315976E+02 -0.63217629725E+02  0.18407624890E+03  0.10566000000E+00 0. -1.
          4    1    1    2  501    0  0.25691441218E+03 -0.63454680118E+02  0.76903076746E+02  0.27558228323E+03  0.00000000000E+00 0.  1.
</event>
<event>
 5    1  0.6336319E-005  0.2893925E+03  0.7818608E-02  0.1059433E+00
         21   -1    0    0  501  502  0.00000000000E+00  0.00000000000E+00  0.63520968268E+03  0.63520968268E+03  0.00000000000E+00 0. -1.
         -4   -1    0    0    0  501 -0.00000000000E+00 -0.00000000000E+00 -0.45304161585E+03  0.45304161585E+03  0.00000000000E+00 0. -1.
        -13    1    1    2    0    0 -0.84580884021E+01 -0.66852307455E+02  0.24200899072E+02  0.71599336250E+02  0.10566000000E+00 0.  1.
         13    1    1    2    0    0 -0.28808557513E+03  0.23645367917E+02  0.49029741553E+03  0.56916075836E+03  0.10566000000E+00 0. -1.
         -4    1    1    2    0  502  0.29654366353E+03  0.43206939538E+02 -0.33233024777E+03  0.44749120392E+03  0.00000000000E+00 0. -1.
</event>
<event>
 5    1  0.6336319E-005  0.4702024E+03  0.7818608E-02  0.9716152E-01
         -4   -1    0    0    0  501 -0.00000000000E+00  0.00000000000E+00  0.20063426893E+04  0.20063426893E+04  0.00000000000E+00 0. -1.
         21   -1    0    0  501  502  0.00000000000E+00 -0.00000000000E+00 -0.35162616493E+03  0.35162616493E+03  0.00000000000E+00 0. -1.
        -13    1    1    2    0    0  0.24955076862E+03 -0.63541097086E+02  0.12043785586E+04  0.12316009015E+04  0.10566000000E+00 0.  1.
         13    1    1    2    0    0 -0.51463139538E+03 -0.27420669567E+03  0.36700810088E+03  0.68900634419E+03  0.10566000000E+00 0. -1.
         -4    1    1    2    0  502  0.26508062676E+03  0.33774779276E+03  0.83329864905E+02  0.43736160849E+03  0.00000000000E+00 0. -1.
</event>
<event>
 5    1  0.6336319E-005  0.3944071E+03  0.7818608E-02  0.9912969E-01
         21   -1    0    0  501  502  0.00000000000E+00  0.00000000000E+00  0.26885481474E+03  0.26885481474E+03  0.00000000000E+00 0. -1.
         -4   -1    0    0    0  501 -0.00000000000E+00 -0.00000000000E+00 -0.14730787477E+04  0.14730787477E+04  0.00000000000E+00 0. -1.
        -13    1    1    2    0    0  0.87664290014E+02 -0.20535701453E+03 -0.13671263463E+03  0.26181460386E+03  0.10566000000E+00 0.  1.
         13    1    1    2    0    0 -0.31716781789E+03 -0.14213861718E+03 -0.99943989226E+03  0.10581488178E+04  0.10566000000E+00 0. -1.
         -4    1    1    2    0  502  0.22950352788E+03  0.34749563172E+03 -0.68071406046E+02  0.42197014076E+03  0.00000000000E+00 0. -1.
</event>
<event>
 5    1  0.6336319E-005  0.4898315E+03  0.7818608E-02  0.9517079E-01
         21   -1    0    0  501  502  0.00000000000E+00  0.00000000000E+00  0.58757355004E+03  0.58757355004E+03  0.00000000000E+00 0.  1.
         -4   -1    0    0    0  501 -0.00000000000E+00 -0.00000000000E+00 -0.13584160468E+04  0.13584160468E+04  0.00000000000E+00 0. -1.
        -13    1    1    2    0    0  0.43338131057E+03  0.25873749571E+03 -0.65518273326E+03  0.82706038302E+03  0.10566000000E+00 0.  1.
         13    1    1    2    0    0  0.11436049798E+03  0.29926341748E+03 -0.10434872071E+03  0.33693557725E+03  0.10566000000E+00 0. -1.
         -4    1    1    2    0  502 -0.54774180855E+03 -0.55800091319E+03 -0.11311042808E+02  0.78199363658E+03  0.00000000000E+00 0. -1.
</event>
<event>
 5    1  0.6336319E-005  0.4354508E+03  0.7818608E-02  0.9744708E-01
         -4   -1    0    0    0  501 -0.00000000000E+00  0.00000000000E+00  0.18800669326E+04  0.18800669326E+04  0.00000000000E+00 0. -1.
         21   -1    0    0  501  502  0.00000000000E+00 -0.00000000000E+00 -0.27678020761E+03  0.27678020761E+03  0.00000000000E+00 0. -1.
        -13    1    1    2    0    0 -0.28886023018E+03  0.53107054669E+02  0.75825557351E+03  0.81314950517E+03  0.10566000000E+00 0.  1.
         13    1    1    2    0    0  0.63289274666E+03  0.86006964763E+02  0.69362998234E+03  0.94290667106E+03  0.10566000000E+00 0. -1.
         -4    1    1    2    0  502 -0.34403251648E+03 -0.13911401943E+03  0.15140116916E+03  0.40079096399E+03  0.00000000000E+00 0. -1.
</event>
<event>
 5    1  0.6336319E-005  0.8701185E+02  0.7818608E-02  0.1188041E+00
         21   -1    0    0  501  502  0.00000000000E+00  0.00000000000E+00  0.11322886115E+03  0.11322886115E+03  0.00000000000E+00 0.  1.
         -4   -1    0    0    0  501 -0.00000000000E+00 -0.00000000000E+00 -0.18200436320E+03  0.18200436320E+03  0.00000000000E+00 0. -1.
        -13    1    1    2    0    0  0.86584251224E+02  0.98541910752E+01  0.53528445239E+02  0.10227044175E+03  0.10566000000E+00 0.  1.
         13    1    1    2    0    0 -0.80901427017E+02  0.37321282362E+02 -0.11406568845E+03  0.14473738790E+03  0.10566000000E+00 0. -1.
         -4    1    1    2    0  502 -0.56828242074E+01 -0.47175473438E+02 -0.82382588360E+01  0.48225394697E+02  0.00000000000E+00 0. -1.
</event>
<event>
 5    1  0.6336319E-005  0.2707666E+03  0.7818608E-02  0.1028263E+00
         21   -1    0    0  501  502  0.00000000000E+00  0.00000000000E+00  0.30705964625E+03  0.30705964625E+03  0.00000000000E+00 0. -1.
         -4   -1    0    0    0  501 -0.00000000000E+00 -0.00000000000E+00 -0.17338087952E+04  0.17338087952E+04  0.00000000000E+00 0. -1.
        -13    1    1    2    0    0 -0.20995397625E+03  0.97405244457E+01 -0.85655561187E+03  0.88196546268E+03  0.10566000000E+00 0.  1.
         13    1    1    2    0    0 -0.20036295678E+03  0.16036008360E+03  0.16129873725E+03  0.30311378171E+03  0.10566000000E+00 0. -1.
         -4    1    1    2    0  502  0.41031693303E+03 -0.17010060805E+03 -0.73149227429E+03  0.85578919702E+03  0.00000000000E+00 0. -1.
</event>
<event>
 5    1  0.6336319E-005  0.3169784E+03  0.7818608E-02  0.1005040E+00
         21   -1    0    0  501  502  0.00000000000E+00  0.00000000000E+00  0.13886959255E+03  0.13886959255E+03  0.00000000000E+00 0. -1.
         -4   -1    0    0    0  501 -0.00000000000E+00 -0.00000000000E+00 -0.36328101527E+04  0.36328101527E+04  0.00000000000E+00 0. -1.
        -13    1    1    2    0    0  0.27022738926E+03 -0.43365670192E+02 -0.14417137944E+04  0.14674611066E+04  0.10566000000E+00 0.  1.
         13    1    1    2    0    0  0.24452238110E+03 -0.15396088905E+03 -0.15373236091E+03  0.32730536227E+03  0.10566000000E+00 0. -1.
         -4    1    1    2    0  502 -0.51474977037E+03  0.19732655924E+03 -0.18984944048E+04  0.19769132763E+04  0.00000000000E+00 0. -1.
</event>
<event>
 5    1  0.2592241E-004  0.4227720E+03  0.7818608E-02  0.9700548E-01
         -4   -1    0    0    0  501 -0.00000000000E+00  0.00000000000E+00  0.10553614332E+04  0.10553614332E+04  0.00000000000E+00 0. -1.
         21   -1    0    0  501  502  0.00000000000E+00 -0.00000000000E+00 -0.73084882539E+03  0.73084882539E+03  0.00000000000E+00 0.  1.
        -13    1    1    2    0    0  0.54872319671E+03 -0.19564192282E+03  0.12701994599E+02  0.58269568421E+03  0.10566000000E+00 0.  1.
         13    1    1    2    0    0 -0.17456919704E+03 -0.53437988774E+02 -0.35509580117E+03  0.39927817668E+03  0.10566000000E+00 0. -1.
         -4    1    1    2    0  502 -0.37415399967E+03  0.24907991160E+03  0.66690641437E+03  0.80423639768E+03  0.00000000000E+00 0. -1.
</event>
<event>
 5    1  0.6336319E-005  0.4372890E+03  0.7818608E-02  0.9850291E-01
         -4   -1    0    0    0  501 -0.00000000000E+00  0.00000000000E+00  0.42405565511E+03  0.42405565511E+03  0.00000000000E+00 0. -1.
         21   -1    0    0  501  502  0.00000000000E+00 -0.00000000000E+00 -0.72678449835E+03  0.72678449835E+03  0.00000000000E+00 0. -1.
        -13    1    1    2    0    0 -0.14446819689E+03  0.14147967857E+03 -0.72865410125E+02  0.21493473083E+03  0.10566000000E+00 0.  1.
         13    1    1    2    0    0 -0.28460865542E+03 -0.32749569363E+03 -0.16297548106E+03  0.46348304681E+03  0.10566000000E+00 0. -1.
         -4    1    1    2    0  502  0.42907685231E+03  0.18601601506E+03 -0.66887952050E+02  0.47242237582E+03  0.00000000000E+00 0. -1.
</event>
<event>
 5    1  0.6336319E-005  0.2403285E+02  0.7818608E-02  0.1460433E+00
         21   -1    0    0  501  502  0.00000000000E+00  0.00000000000E+00  0.78504333699E+02  0.78504333699E+02  0.00000000000E+00 0.  1.
         -4   -1    0    0    0  501 -0.00000000000E+00 -0.00000000000E+00 -0.21235367125E+02  0.21235367125E+02  0.00000000000E+00 0. -1.
        -13    1    1    2    0    0  0.15293965669E+02  0.72250906343E+01  0.37720500746E+02  0.41339504848E+02  0.10566000000E+00 0.  1.
         13    1    1    2    0    0 -0.26115334907E+02  0.58466440589E+00 -0.83913999938E+01  0.27436823935E+02  0.10566000000E+00 0. -1.
         -4    1    1    2    0  502  0.10821369238E+02 -0.78097550402E+01  0.27939865822E+02  0.30963372041E+02  0.00000000000E+00 0. -1.
</event>
<event>
 5    1  0.6336319E-005  0.4531073E+03  0.7818608E-02  0.9947147E-01
          4   -1    0    0  502    0 -0.00000000000E+00  0.00000000000E+00  0.17539918541E+04  0.17539918541E+04  0.00000000000E+00 0.  1.
         21   -1    0    0  501  502  0.00000000000E+00 -0.00000000000E+00 -0.19105527347E+03  0.19105527347E+03  0.00000000000E+00 0.  1.
        -13    1    1    2    0    0 -0.38588580370E+03  0.23882064852E+03  0.29412541593E+03  0.54078917067E+03  0.10566000000E+00 0.  1.
         13    1    1    2    0    0 -0.62164213598E+02 -0.11581453541E+03  0.36628427782E+03  0.38915495552E+03  0.10566000000E+00 0. -1.
          4    1    1    2  501    0  0.44805001730E+03 -0.12300611311E+03  0.90252688690E+03  0.10151030014E+04  0.00000000000E+00 0.  1.
</event>
<event>
 5    1  0.6336319E-005  0.3416121E+03  0.7818608E-02  0.1029535E+00
         -4   -1    0    0    0  501 -0.00000000000E+00  0.00000000000E+00  0.23654856330E+04  0.23654856330E+04  0.00000000000E+00 0. -1.
         21   -1    0    0  501  502  0.00000000000E+00 -0.00000000000E+00 -0.13180622842E+03  0.13180622842E+03  0.00000000000E+00 0. -1.
        -13    1    1    2    0    0  0.95991939917E+02  0.30153107748E+02  0.35352154651E+03  0.36756109349E+03  0.10566000000E+00 0.  1.
         13    1    1    2    0    0 -0.24043369611E+03 -0.32915906907E+03  0.17074604275E+04  0.17554415905E+04  0.10566000000E+00 0. -1.
         -4    1    1    2    0  502  0.14444175619E+03  0.29900596132E+03  0.17269743059E+03  0.37428917747E+03  0.00000000000E+00 0. -1.
</event>
<event>
 5    1  0.6336319E-005  0.4660181E+03  0.7818608E-02  0.1034469E+00
         21   -1    0    0  501  502  0.00000000000E+00  0.00000000000E+00  0.56773483459E+03  0.56773483459E+03  0.00000000000E+00 0.  1.
          4   -1    0    0  502    0 -0.00000000000E+00 -0.00000000000E+00 -0.55702910146E+03  0.55702910146E+03  0.00000000000E+00 0.  1.
        -13    1    1    2    0    0 -0.42429920701E+03  0.17984071781E+03  0.23538158142E+03  0.51747173922E+03  0.10566000000E+00 0.  1.
         13    1    1    2    0    0 -0.29686106553E+01  0.33920172753E+02 -0.11112786720E+03  0.11622738404E+03  0.10566000000E+00 0. -1.
          4    1    1    2  501    0  0.42726781767E+03 -0.21376089057E+03 -0.11354798109E+03  0.49106481279E+03  0.00000000000E+00 0.  1.
</event>
<event>
 5    1  0.6336319E-005  0.3368194E+02  0.7818608E-02  0.1401696E+00
         21   -1    0    0  501  502  0.00000000000E+00  0.00000000000E+00  0.13127851815E+03  0.13127851815E+03  0.00000000000E+00 0. -1.
         -4   -1    0    0    0  501 -0.00000000000E+00 -0.00000000000E+00 -0.37473400072E+02  0.37473400072E+02  0.00000000000E+00 0. -1.
        -13    1    1    2    0    0  0.22084715323E+02 -0.35096691409E+01 -0.20443662842E+02  0.30298629388E+02  0.10566000000E+00 0.  1.
         13    1    1    2    0    0 -0.27909058367E+02  0.33984918848E+02  0.46850402362E+02  0.64256218482E+02  0.10566000000E+00 0. -1.
         -4    1    1    2    0  502  0.58243430439E+01 -0.30475249707E+02  0.67398378557E+02  0.74197070351E+02  0.00000000000E+00 0. -1.
</event>
<event>
 5    1  0.6336319E-005  0.9559380E+02  0.7818608E-02  0.1172059E+00
         21   -1    0    0  501  502  0.00000000000E+00  0.00000000000E+00  0.35224520190E+03  0.35224520190E+03  0.00000000000E+00 0. -1.
         -4   -1    0    0    0  501 -0.00000000000E+00 -0.00000000000E+00 -0.18238031444E+03  0.18238031444E+03  0.00000000000E+00 0. -1.
        -13    1    1    2    0    0  0.65842942434E+02 -0.24743486766E+02  0.12479698134E+03  0.14325442723E+03  0.10566000000E+00 0.  1.
         13    1    1    2    0    0 -0.98045266728E+02 -0.15388607996E+02 -0.15540951238E+03  0.18439580062E+03  0.10566000000E+00 0. -1.
         -4    1    1    2    0  502  0.32202324294E+02  0.40132094762E+02  0.20047741850E+03  0.20697528850E+03  0.00000000000E+00 0. -1.
</event>
<event>
 5    1  0.6336319E-005  0.2532100E+02  0.7818608E-02  0.1486293E+00
          4   -1    0    0  502    0 -0.00000000000E+00  0.00000000000E+00  0.26379124442E+03  0.26379124442E+03  0.00000000000E+00 0.  1.
         21   -1    0    0  501  502  0.00000000000E+00 -0.00000000000E+00 -0.11208996034E+02  0.11208996034E+02  0.00000000000E+00 0.  1.
        -13    1    1    2    0    0  0.29343231986E+02 -0.23695430944E+02  0.18385713943E+03  0.18768579487E+03  0.10566000000E+00 0.  1.
         13    1    1    2    0    0 -0.12246788393E+02  0.65823708051E+01  0.60014589496E+02  0.61604168266E+02  0.10566000000E+00 0. -1.
          4    1    1    2  501    0 -0.17096443592E+02  0.17113060139E+02  0.87105194630E+01  0.25710277326E+02  0.00000000000E+00 0.  1.
</event>
<event>
 5    1  0.6336319E-005  0.1700722E+03  0.7818608E-02  0.1082844E+00
         21   -1    0    0  501  502  0.00000000000E+00  0.00000000000E+00  0.27823940528E+03  0.27823940528E+03  0.00000000000E+00 0.  1.
         -4   -1    0    0    0  501 -0.00000000000E+00 -0.00000000000E+00 -0.60457866039E+03  0.60457866039E+03  0.00000000000E+00 0. -1.
        -13    1    1    2    0    0  0.15597604842E+03 -0.37228107482E+02  0.20461197310E+03  0.25996255570E+03  0.10566000000E+00 0.  1.
         13    1    1    2    0    0 -0.16353976423E+03  0.48617721757E+02 -0.56285520256E+03  0.58814532861E+03  0.10566000000E+00 0. -1.
         -4    1    1    2    0  502  0.75637158139E+01 -0.11389614275E+02  0.31903974349E+02  0.34710181352E+02  0.00000000000E+00 0. -1.
</event>
<event>
 5    1  0.6336319E-005  0.6555258E+02  0.7818608E-02  0.1238903E+00
         21   -1    0    0  501  502  0.00000000000E+00  0.00000000000E+00  0.16243456529E+03  0.16243456529E+03  0.00000000000E+00 0.  1.
         -4   -1    0    0    0  501 -0.00000000000E+00 -0.00000000000E+00 -0.56202832485E+02  0.56202832485E+02  0.00000000000E+00 0. -1.
        -13    1    1    2    0    0 -0.15268472110E+02  0.60967352000E+02 -0.11966492688E+02  0.63979311982E+02  0.10566000000E+00 0.  1.
         13    1    1    2    0    0  0.33904889372E+02 -0.70692656857E+02  0.98029668125E+02  0.12552617358E+03  0.10566000000E+00 0. -1.
         -4    1    1    2    0  502 -0.18636417262E+02  0.97253048573E+01  0.20168557368E+02  0.29131912213E+02  0.00000000000E+00 0. -1.
</event>
<event>
 5    1  0.6336319E-005  0.4976902E+03  0.7818608E-02  0.1004816E+00
          4   -1    0    0  502    0 -0.00000000000E+00  0.00000000000E+00  0.28822682017E+04  0.28822682017E+04  0.00000000000E+00 0.  1.
         21   -1    0    0  501  502  0.00000000000E+00 -0.00000000000E+00 -0.10221042991E+03  0.10221042991E+03  0.00000000000E+00 0.  1.
        -13    1    1    2    0    0 -0.47793881449E+03  0.12413833430E+03  0.10475457425E+04  0.11580966843E+04  0.10566000000E+00 0.  1.
         13    1    1    2    0    0 -0.24985281928E+02 -0.66695151196E+02  0.18817928722E+03  0.20120626931E+03  0.10566000000E+00 0. -1.
          4    1    1    2  501    0  0.50292409642E+03 -0.57443183107E+02  0.15443327421E+04  0.16251756780E+04  0.00000000000E+00 0.  1.
</event>
<event>
 5    1  0.6336319E-005  0.4927276E+03  0.7818608E-02  0.9841154E-01
         -4   -1    0    0    0  501 -0.00000000000E+00  0.00000000000E+00  0.24133480595E+04  0.24133480595E+04  0.00000000000E+00 0. -1.
         21   -1    0    0  501  502  0.00000000000E+00 -0.00000000000E+00 -0.15602925046E+03  0.15602925046E+03  0.00000000000E+00 0. -1.
        -13    1    1    2    0    0  0.10130379680E+03  0.10483309854E+03  0.71110154267E+03  0.72589107512E+03  0.10566000000E+00 0.  1.
         13    1    1    2    0    0 -0.53688461937E+03 -0.32197058543E+02  0.64448018895E+03  0.83942627443E+03  0.10566000000E+00 0. -1.
         -4    1    1    2    0  502  0.43558082257E+03 -0.72636039994E+02  0.90173707745E+03  0.10040599604E+04  0.00000000000E+00 0. -1.
</event>
<event>
 5    1  0.6336319E-005  0.4745398E+03  0.7818608E-02  0.9665652E-01
         21   -1    0    0  501  502  0.00000000000E+00  0.00000000000E+00  0.23893624247E+03  0.23893624247E+03  0.00000000000E+00 0. -1.
         -4   -1    0    0    0  501 -0.00000000000E+00 -0.00000000000E+00 -0.25979677540E+04  0.25979677540E+04  0.00000000000E+00 0. -1.
        -13    1    1    2    0    0  0.12886329808E+03  0.26957020313E+03 -0.13623873260E+04  0.13947663178E+04  0.10566000000E+00 0.  1.
         13    1    1    2    0    0  0.13082808979E+03  0.24618909348E+03 -0.77498693045E+03  0.82360780251E+03  0.10566000000E+00 0. -1.
         -4    1    1    2    0  502 -0.25969138788E+03 -0.51575929661E+03 -0.22165725507E+03  0.61852987616E+03  0.00000000000E+00 0. -1.
</event>
<event>
 5    1  0.6336319E-005  0.3726854E+03  0.7818608E-02  0.9811425E-01
         -4   -1    0    0    0  501 -0.00000000000E+00  0.00000000000E+00  0.11654363170E+04  0.11654363170E+04  0.00000000000E+00 0. -1.
         21   -1    0    0  501  502  0.00000000000E+00 -0.00000000000E+00 -0.21504629184E+03  0.21504629184E+03  0.00000000000E+00 0.  1.
        -13    1    1    2    0    0  0.51813771566E+02  0.39419691009E+03  0.68357252744E+03  0.79078902514E+03  0.10566000000E+00 0.  1.
         13    1    1    2    0    0 -0.59576641428E+02 -0.33545132342E+03  0.34942455128E+03  0.48803124366E+03  0.10566000000E+00 0. -1.
         -4    1    1    2    0  502  0.77628698616E+01 -0.58745586678E+02 -0.82607053511E+02  0.10166234009E+03  0.00000000000E+00 0. -1.
</event>
<event>
 5    1  0.6336319E-005  0.1851347E+03  0.7818608E-02  0.1070834E+00
         21   -1    0    0  501  502  0.00000000000E+00  0.00000000000E+00  0.83774580543E+02  0.83774580543E+02  0.00000000000E+00 0. -1.
         -4   -1    0    0    0  501 -0.00000000000E+00 -0.00000000000E+00 -0.14342792240E+04  0.14342792240E+04  0.00000000000E+00 0. -1.
        -13    1    1    2    0    0  0.88393504334E+01  0.19189919896E+03 -0.10006671123E+04  0.10189397026E+04  0.10566000000E+00 0.  1.
         13    1    1    2    0    0 -0.21128647758E+02 -0.17079504444E+03 -0.40431245197E+03  0.43941544914E+03  0.10566000000E+00 0. -1.
         -4    1    1    2    0  502  0.12289297324E+02 -0.21104154521E+02  0.54474920748E+02  0.59698652893E+02  0.00000000000E+00 0. -1.
</event>
<event>
 5    1  0.6336319E-005  0.3749469E+03  0.7818608E-02  0.1001468E+00
          4   -1    0    0  502    0 -0.00000000000E+00  0.00000000000E+00  0.62471789985E+03  0.62471789985E+03  0.00000000000E+00 0.  1.
         21   -1    0    0  501  502  0.00000000000E+00 -0.00000000000E+00 -0.60924794173E+03  0.60924794173E+03  0.00000000000E+00 0.  1.
        -13    1    1    2    0    0 -0.41648928759E+03  0.14137930095E+03  0.26902506215E+03  0.51558309577E+03  0.10566000000E+00 0.  1.
         13    1    1    2    0    0  0.49994443248E+02 -0.17889684345E+03  0.97249484683E+02  0.20966878257E+03  0.10566000000E+00 0. -1.
          4    1    1    2  501    0  0.36649484435E+03  0.37517542503E+02 -0.35080458871E+03  0.50871396323E+03  0.00000000000E+00 0.  1.
</event>
<event>
 5    1  0.6336319E-005  0.4375715E+03  0.7818608E-02  0.9756588E-01
          4   -1    0    0  502    0 -0.00000000000E+00  0.00000000000E+00  0.16837686654E+04  0.16837686654E+04  0.00000000000E+00 0.  1.
         21   -1    0    0  501  502  0.00000000000E+00 -0.00000000000E+00 -0.33341698055E+03  0.33341698055E+03  0.00000000000E+00 0.  1.
        -13    1    1    2    0    0 -0.29069382515E+03 -0.25055349817E+03  0.63270108022E+02  0.38895124779E+03  0.10566000000E+00 0.  1.
         13    1    1    2    0    0 -0.27650437199E+03  0.27169339133E+02  0.80330948035E+03  0.84999939594E+03  0.10566000000E+00 0. -1.
          4    1    1    2  501    0  0.56719819714E+03  0.22338415904E+03  0.48377209648E+03  0.77823500222E+03  0.00000000000E+00 0.  1.
</event>
<event>
 5    1  0.6336319E-005  0.3655439E+03  0.7818608E-02  0.9834199E-01
         21   -1    0    0  501  502  0.00000000000E+00  0.00000000000E+00  0.80727913076E+03  0.80727913076E+03  0.00000000000E+00 0. -1.
          4   -1    0    0  502    0 -0.00000000000E+00 -0.00000000000E+00 -0.10769133644E+04  0.10769133644E+04  0.00000000000E+00 0.  1.
        -13    1    1    2    0    0  0.26707139030E+03 -0.23042227520E+03 -0.79725580493E+03  0.87180180207E+03  0.10566000000E+00 0.  1.
         13    1    1    2    0    0 -0.36192573420E+03  0.46273674903E+03  0.47623357575E+03  0.75624993608E+03  0.10566000000E+00 0. -1.
          4    1    1    2  501    0  0.94854343902E+02 -0.23231447383E+03  0.51387995554E+02  0.25614075699E+03  0.00000000000E+00 0.  1.
</event>
<event>
 5    1  0.6336319E-005  0.2612683E+02  0.7818608E-02  0.1439007E+00
         -4   -1    0    0    0  501 -0.00000000000E+00  0.00000000000E+00  0.93805265326E+02  0.93805265326E+02  0.00000000000E+00 0. -1.
         21   -1    0    0  501  502  0.00000000000E+00 -0.00000000000E+00 -0.61501015642E+02  0.61501015642E+02  0.00000000000E+00 0. -1.
        -13    1    1    2    0    0 -0.20994454650E+02 -0.59208493937E+01 -0.15738690163E+02  0.26898719592E+02  0.10566000000E+00 0.  1.
         13    1    1    2    0    0  0.17274105764E+02  0.20612994272E+02  0.84632703835E+02  0.88803130492E+02  0.10566000000E+00 0. -1.
         -4    1    1    2    0  502  0.37203488863E+01 -0.14692144878E+02 -0.36589763987E+02  0.39604430883E+02  0.00000000000E+00 0. -1.
</event>
<event>
 5    1  0.6336319E-005  0.3785650E+03  0.7818608E-02  0.1012689E+00
         21   -1    0    0  501  502  0.00000000000E+00  0.00000000000E+00  0.11045528977E+03  0.11045528977E+03  0.00000000000E+00 0. -1.
         -4   -1    0    0    0  501 -0.00000000000E+00 -0.00000000000E+00 -0.29329932337E+04  0.29329932337E+04  0.00000000000E+00 0. -1.
        -13    1    1    2    0    0  0.25368417448E+02 -0.12299540099E+03 -0.48162806502E+03  0.49773188510E+03  0.10566000000E+00 0.  1.
         13    1    1    2    0    0  0.14653284800E+03  0.36887425918E+03 -0.34055517344E+03  0.52298941859E+03  0.10566000000E+00 0. -1.
         -4    1    1    2    0  502 -0.17190126544E+03 -0.24587885820E+03 -0.20003547055E+04  0.20227272198E+04  0.00000000000E+00 0. -1.
</event>
<event>
 5    1  0.6336319E-005  0.1761496E+03  0.7818608E-02  0.1077843E+00
          4   -1    0    0  502    0 -0.00000000000E+00  0.00000000000E+00  0.63854772864E+03  0.63854772864E+03  0.00000000000E+00 0.  1.
         21   -1    0    0  501  502  0.00000000000E+00 -0.00000000000E+00 -0.14968005733E+03  0.14968005733E+03  0.00000000000E+00 0.  1.
        -13    1    1    2    0    0 -0.18538396340E+03 -0.41649033693E+02  0.33561462579E+03  0.38566701194E+03  0.10566000000E+00 0.  1.
         13    1    1    2    0    0  0.15160346939E+03  0.62067166714E+02  0.24953476020E+03  0.29850218228E+03  0.10566000000E+00 0. -1.
          4    1    1    2  501    0  0.33780494012E+02 -0.20418133021E+02 -0.96281714681E+02  0.10405859173E+03  0.00000000000E+00 0.  1.
</event>
<event>
 5    1  0.6336319E-005  0.4624287E+03  0.7818608E-02  0.9926895E-01
         21   -1    0    0  501  502  0.00000000000E+00  0.00000000000E+00  0.76767558048E+03  0.76767558048E+03  0.00000000000E+00 0.  1.
          4   -1    0    0  502    0 -0.00000000000E+00 -0.00000000000E+00 -0.48989094379E+03  0.48989094379E+03  0.00000000000E+00 0.  1.
        -13    1    1    2    0    0  0.25100905909E+02  0.45689798815E+03  0.39268201596E+03  0.60298010239E+03  0.10566000000E+00 0.  1.
         13    1    1    2    0    0  0.13220861398E+03  0.34716142739E+01 -0.10351660031E+03  0.16794900244E+03  0.10566000000E+00 0. -1.
          4    1    1    2  501    0 -0.15730951989E+03 -0.46036960242E+03 -0.11380778962E+02  0.48663741945E+03  0.00000000000E+00 0.  1.
</event>
<event>
 5    1  0.6336319E-005  0.3575702E+03  0.7818608E-02  0.9860288E-01
          4   -1    0    0  502    0 -0.00000000000E+00  0.00000000000E+00  0.18198602666E+04  0.18198602666E+04  0.00000000000E+00 0.  1.
         21   -1    0    0  501  502  0.00000000000E+00 -0.00000000000E+00 -0.13863688793E+03  0.13863688793E+03  0.00000000000E+00 0. -1.
        -13    1    1    2    0    0 -0.14104507192E+03 -0.32507361688E+03  0.13920962924E+04  0.14364883108E+04  0.10566000000E+00 0.  1.
         13    1    1    2    0    0  0.15901329747E+03  0.33417408448E+03  0.31722933823E+03  0.48743411012E+03  0.10566000000E+00 0. -1.
          4    1    1    2  501    0 -0.17968225543E+02 -0.91004676031E+01 -0.28102251934E+02  0.34574733600E+02  0.00000000000E+00 0.  1.
</event>
<event>
 5    1  0.6336319E-005  0.6241989E+02  0.7818608E-02  0.1248141E+00
         -4   -1    0    0    0  501 -0.00000000000E+00  0.00000000000E+00  0.81519082548E+02  0.81519082548E+02  0.00000000000E+00 0. -1.
         21   -1    0    0  501  502  0.00000000000E+00 -0.00000000000E+00 -0.10061939979E+03  0.10061939979E+03  0.00000000000E+00 0.  1.
        -13    1    1    2    0    0 -0.20891611233E+02 -0.63984349996E+02 -0.27572780148E+02  0.72737375767E+02  0.10566000000E+00 0.  1.
         13    1    1    2    0    0 -0.30990816626E+01  0.61767739048E+02  0.36994089443E+02  0.72065468235E+02  0.10566000000E+00 0. -1.
         -4    1    1    2    0  502  0.23990692896E+02  0.22166109479E+01 -0.28521626538E+02  0.37335638338E+02  0.00000000000E+00 0. -1.
</event>
<event>
 5    1  0.6336319E-005  0.3265125E+02  0.7818608E-02  0.1384804E+00
         -4   -1    0    0    0  501 -0.00000000000E+00  0.00000000000E+00  0.44613887142E+02  0.44613887142E+02  0.00000000000E+00 0. -1.
         21   -1    0    0  501  502  0.00000000000E+00 -0.00000000000E+00 -0.61857196996E+02  0.61857196996E+02  0.00000000000E+00 0. -1.
        -13    1    1    2    0    0 -0.24936166732E+02 -0.60367715667E+01 -0.40578209653E+01  0.25975605811E+02  0.10566000000E+00 0.  1.
         13    1    1    2    0    0  0.37903081711E+02  0.28490460005E+01  0.21260391201E+02  0.43551992656E+02  0.10566000000E+00 0. -1.
         -4    1    1    2    0  502 -0.12966914979E+02  0.31877255662E+01 -0.34445880089E+02  0.36943485670E+02  0.00000000000E+00 0. -1.
</event>
<event>
 5    1  0.6336319E-005  0.3666264E+03  0.7818608E-02  0.9830712E-01
          4   -1    0    0  502    0 -0.00000000000E+00  0.00000000000E+00  0.28558137947E+04  0.28558137947E+04  0.00000000000E+00 0.  1.
         21   -1    0    0  501  502  0.00000000000E+00 -0.00000000000E+00 -0.22686822329E+03  0.22686822329E+03  0.00000000000E+00 0.  1.
        -13    1    1    2    0    0  0.39774986880E+03 -0.24509740078E+03  0.13026400319E+03  0.48502207753E+03  0.10566000000E+00 0.  1.
         13    1    1    2    0    0 -0.35859684337E+03 -0.89222240207E+02  0.14460702535E+04  0.14925386070E+04  0.10566000000E+00 0. -1.
          4    1    1    2  501    0 -0.39153025427E+02  0.33431964099E+03  0.10526113148E+04  0.11051213335E+04  0.00000000000E+00 0.  1.
</event>
<event>
 5    1  0.6336319E-005  0.4104862E+03  0.7818608E-02  0.9869638E-01
          4   -1    0    0  502    0 -0.00000000000E+00  0.00000000000E+00  0.18288400428E+04  0.18288400428E+04  0.00000000000E+00 0.  1.
         21   -1    0    0  501  502  0.00000000000E+00 -0.00000000000E+00 -0.21696186837E+03  0.21696186837E+03  0.00000000000E+00 0.  1.
        -13    1    1    2    0    0 -0.47218445838E+02 -0.44858123980E+03  0.13218587085E+03  0.47002960114E+03  0.10566000000E+00 0.  1.
         13    1    1    2    0    0  0.15518723903E+03  0.16842078232E+03  0.47765342469E+03  0.52971826885E+03  0.10566000000E+00 0. -1.
          4    1    1    2  501    0 -0.10796879319E+03  0.28016045748E+03  0.10020388789E+04  0.10460540412E+04  0.00000000000E+00 0.  1.
</event>
<event>
 5    1  0.6336319E-005  0.7794649E+02  0.7818608E-02  0.1207297E+00
         21   -1    0    0  501  502  0.00000000000E+00  0.00000000000E+00  0.56573864011E+02  0.56573864011E+02  0.00000000000E+00 0. -1.
          4   -1    0    0  502    0 -0.00000000000E+00 -0.00000000000E+00 -0.41211169831E+03  0.41211169831E+03  0.00000000000E+00 0.  1.
        -13    1    1    2    0    0  0.26722305541E+02 -0.58782143727E+02 -0.53986198068E+02  0.84166161731E+02  0.10566000000E+00 0.  1.
         13    1    1    2    0    0 -0.33612046303E+02  0.75184678290E+02 -0.33589374844E+03  0.34584263316E+03  0.10566000000E+00 0. -1.
          4    1    1    2  501    0  0.68897407621E+01 -0.16402534562E+02  0.34342112209E+02  0.38676767430E+02  0.00000000000E+00 0.  1.
</event>
<event>
 5    1  0.6336319E-005  0.5305902E+03  0.7818608E-02  0.9413332E-01
         21   -1    0    0  501  502  0.00000000000E+00  0.00000000000E+00  0.28953792983E+03  0.28953792983E+03  0.00000000000E+00 0. -1.
         -4   -1    0    0    0  501 -0.00000000000E+00 -0.00000000000E+00 -0.26031025680E+04  0.26031025680E+04  0.00000000000E+00 0. -1.
        -13    1    1    2    0    0  0.44072252126E+03  0.24957877158E+03 -0.12582332813E+04  0.13563468971E+04  0.10566000000E+00 0.  1.
         13    1    1    2    0    0 -0.59930357907E+03 -0.24878281636E+03 -0.21868236900E+03  0.68474788008E+03  0.10566000000E+00 0. -1.
         -4    1    1    2    0  502  0.15858105781E+03 -0.79595522444E+00 -0.83664898789E+03  0.85154572067E+03  0.00000000000E+00 0. -1.
</event>
<event>
 5    1  0.6336319E-005  0.5271553E+02  0.7818608E-02  0.1281111E+00
         21   -1    0    0  501  502  0.00000000000E+00  0.00000000000E+00  0.16201656897E+03  0.16201656897E+03  0.00000000000E+00 0. -1.
         -4   -1    0    0    0  501 -0.00000000000E+00 -0.00000000000E+00 -0.42340184866E+02  0.42340184866E+02  0.00000000000E+00 0. -1.
        -13    1    1    2    0    0 -0.42913150158E+02  0.21296959326E+02 -0.10405149404E+01  0.47918605660E+02  0.10566000000E+00 0.  1.
         13    1    1    2    0    0  0.60144566007E+02 -0.27609507455E+02  0.48824377096E+02  0.82240407860E+02  0.10566000000E+00 0. -1.
         -4    1    1    2    0  502 -0.17231415849E+02  0.63125481287E+01  0.71892521951E+02  0.74197740320E+02  0.00000000000E+00 0. -1.
</event>
<event>
 5    1  0.6336319E-005  0.9820887E+02  0.7818608E-02  0.1167553E+00
         21   -1    0    0  501  502  0.00000000000E+00  0.00000000000E+00  0.38812144828E+03  0.38812144828E+03  0.00000000000E+00 0.  1.
         -4   -1    0    0    0  501 -0.00000000000E+00 -0.00000000000E+00 -0.34278756340E+03  0.34278756340E+03  0.00000000000E+00 0. -1.
        -13    1    1    2    0    0 -0.11812658770E+03 -0.30186103051E+02  0.29782898243E+03  0.32181859095E+03  0.10566000000E+00 0.  1.
         13    1    1    2    0    0  0.93085521967E+02 -0.30924708204E+02 -0.30773634217E+03  0.32299058722E+03  0.10566000000E+00 0. -1.
         -4    1    1    2    0  502  0.25041065730E+02  0.61110811256E+02  0.55241244614E+02  0.86099833517E+02  0.00000000000E+00 0. -1.
</event>
<event>
 5    1  0.6336319E-005  0.4065221E+03  0.7818608E-02  0.9929525E-01
         21   -1    0    0  501  502  0.00000000000E+00  0.00000000000E+00  0.27728280766E+03  0.27728280766E+03  0.00000000000E+00 0.  1.
          4   -1    0    0  502    0 -0.00000000000E+00 -0.00000000000E+00 -0.14490792316E+04  0.14490792316E+04  0.00000000000E+00 0.  1.
        -13    1    1    2    0    0 -0.22191259663E+03 -0.35019204257E+03 -0.91635890823E+01  0.41468500063E+03  0.10566000000E+00 0.  1.
         13    1    1    2    0    0 -0.13269405004E+03  0.14010749168E+03 -0.42348317901E+03  0.46537708819E+03  0.10566000000E+00 0. -1.
          4    1    1    2  501    0  0.35460664667E+03  0.21008455089E+03 -0.73914965586E+03  0.84629995045E+03  0.00000000000E+00 0.  1.
</event>
<event>
 5    1  0.6336319E-005  0.9155680E+02  0.7818608E-02  0.1213091E+00
         21   -1    0    0  501  502  0.00000000000E+00  0.00000000000E+00  0.18691357689E+03  0.18691357689E+03  0.00000000000E+00 0. -1.
         -4   -1    0    0    0  501 -0.00000000000E+00 -0.00000000000E+00 -0.13592018723E+03  0.13592018723E+03  0.00000000000E+00 0. -1.
        -13    1    1    2    0    0  0.32188637912E+02  0.27359663347E+02  0.44943907721E+02  0.61681647143E+02  0.10566000000E+00 0.  1.
         13    1    1    2    0    0 -0.16218108422E+02 -0.11417248396E+03 -0.78037533631E+02  0.13924169977E+03  0.10566000000E+00 0. -1.
         -4    1    1    2    0  502 -0.15970529490E+02  0.86812820613E+02  0.84087015572E+02  0.12191041720E+03  0.00000000000E+00 0. -1.
</event>
<event>
 5    1  0.6336319E-005  0.1171622E+03  0.7818608E-02  0.1138919E+00
         21   -1    0    0  501  502  0.00000000000E+00  0.00000000000E+00  0.75074099516E+02  0.75074099516E+02  0.00000000000E+00 0.  1.
          4   -1    0    0  502    0 -0.00000000000E+00 -0.00000000000E+00 -0.49216976386E+03  0.49216976386E+03  0.00000000000E+00 0.  1.
        -13    1    1    2    0    0  0.12261460034E+02  0.11037578628E+03 -0.26854152672E+03  0.29059889941E+03  0.10566000000E+00 0.  1.
         13    1    1    2    0    0 -0.72930769321E+02 -0.11991920692E+03 -0.16140967824E+03  0.21389859442E+03  0.10566000000E+00 0. -1.
          4    1    1    2  501    0  0.60669309288E+02  0.95434206305E+01  0.12855540617E+02  0.62746369547E+02  0.00000000000E+00 0.  1.
</event>
<event>
 5    1  0.6336319E-005  0.7546424E+02  0.7818608E-02  0.1280019E+00
         21   -1    0    0  501  502  0.00000000000E+00  0.00000000000E+00  0.32840160343E+03  0.32840160343E+03  0.00000000000E+00 0. -1.
         -4   -1    0    0    0  501 -0.00000000000E+00 -0.00000000000E+00 -0.47575754932E+02  0.47575754932E+02  0.00000000000E+00 0. -1.
        -13    1    1    2    0    0 -0.17518394948E+02  0.55129986145E+01  0.76881103662E+01  0.19909935216E+02  0.10566000000E+00 0.  1.
         13    1    1    2    0    0  0.40974947910E+02  0.66148177346E+02  0.54935764324E+01  0.78004604149E+02  0.10566000000E+00 0. -1.
         -4    1    1    2    0  502 -0.23456552962E+02 -0.71661175960E+02  0.26764416170E+03  0.27806281900E+03  0.00000000000E+00 0. -1.
</event>
<event>
 5    1  0.6336319E-005  0.3016150E+03  0.7818608E-02  0.1034016E+00
          4   -1    0    0  502    0 -0.00000000000E+00  0.00000000000E+00  0.14233759102E+04  0.14233759102E+04  0.00000000000E+00 0.  1.
         21   -1    0    0  501  502  0.00000000000E+00 -0.00000000000E+00 -0.14524559777E+03  0.14524559777E+03  0.00000000000E+00 0.  1.
        -13    1    1    2    0    0 -0.17024514941E+03  0.19189697375E+03  0.87458992687E+03  0.91143590601E+03  0.10566000000E+00 0.  1.
         13    1    1    2    0    0 -0.11518979461E+03 -0.54304632427E+02  0.29655929830E+03  0.32274620130E+03  0.10566000000E+00 0. -1.
          4    1    1    2  501    0  0.28543494402E+03 -0.13759234133E+03  0.10698108722E+03  0.33443940061E+03  0.00000000000E+00 0.  1.
</event>
<event>
 5    1  0.6336319E-005  0.1375162E+03  0.7818608E-02  0.1114121E+00
          4   -1    0    0  502    0 -0.00000000000E+00  0.00000000000E+00  0.86660991596E+03  0.86660991596E+03  0.00000000000E+00 0.  1.
         21   -1    0    0  501  502  0.00000000000E+00 -0.00000000000E+00 -0.34762378782E+02  0.34762378782E+02  0.00000000000E+00 0. -1.
        -13    1    1    2    0    0  0.61543397348E+02 -0.13066266969E+03  0.63791431349E+03  0.65406039900E+03  0.10566000000E+00 0.  1.
         13    1    1    2    0    0 -0.61841645806E+02  0.10039933178E+03  0.12402326336E+03  0.17113210101E+03  0.10566000000E+00 0. -1.
          4    1    1    2  501    0  0.29824845851E+00  0.30263337915E+02  0.69909960328E+02  0.76179794742E+02  0.00000000000E+00 0.  1.
</event>
<event>
 5    1  0.6336319E-005  0.2432638E+03  0.7818608E-02  0.1033944E+00
         21   -1    0    0  501  502  0.00000000000E+00  0.00000000000E+00  0.38719660526E+02  0.38719660526E+02  0.00000000000E+00 0.  1.
         -4   -1    0    0    0  501 -0.00000000000E+00 -0.00000000000E+00 -0.19158061194E+04  0.19158061194E+04  0.00000000000E+00 0. -1.
        -13    1    1    2    0    0 -0.28447357393E+01 -0.23614887029E+03 -0.69667990466E+03  0.73562033834E+03  0.10566000000E+00 0.  1.
         13    1    1    2    0    0 -0.20034573193E+01  0.24797167532E+03 -0.11803595278E+04  0.12061271042E+04  0.10566000000E+00 0. -1.
         -4    1    1    2    0  502  0.48481930586E+01 -0.11822805025E+02 -0.47026465422E-01  0.12778337375E+02  0.00000000000E+00 0. -1.
</event>
<event>
 5    1  0.6336319E-005  0.5346050E+02  0.7818608E-02  0.1278307E+00
          4   -1    0    0  502    0 -0.00000000000E+00  0.00000000000E+00  0.12783133945E+03  0.12783133945E+03  0.00000000000E+00 0.  1.
         21   -1    0    0  501  502  0.00000000000E+00 -0.00000000000E+00 -0.12079355145E+03  0.12079355145E+03  0.00000000000E+00 0.  1.
        -13    1    1    2    0    0 -0.56673267817E+02 -0.19164988789E+02  0.55951949676E+02  0.81913295117E+02  0.10566000000E+00 0.  1.
         13    1    1    2    0    0  0.41508322207E+02  0.26156093063E+02  0.47840815260E+02  0.68526175915E+02  0.10566000000E+00 0. -1.
          4    1    1    2  501    0  0.15164945610E+02 -0.69911042733E+01 -0.96754976935E+02  0.98185419875E+02  0.00000000000E+00 0.  1.
</event>
<event>
 5    1  0.6336319E-005  0.6812733E+02  0.7818608E-02  0.1231729E+00
         21   -1    0    0  501  502  0.00000000000E+00  0.00000000000E+00  0.11320227375E+03  0.11320227375E+03  0.00000000000E+00 0.  1.
          4   -1    0    0  502    0 -0.00000000000E+00 -0.00000000000E+00 -0.14626376766E+03  0.14626376766E+03  0.00000000000E+00 0.  1.
        -13    1    1    2    0    0 -0.68852507576E+02  0.33334069024E+02 -0.10489381259E+03  0.12982507863E+03  0.10566000000E+00 0.  1.
         13    1    1    2    0    0  0.40785071485E+02 -0.32015768970E+02 -0.70144311981E+00  0.51854939063E+02  0.10566000000E+00 0. -1.
          4    1    1    2  501    0  0.28067436091E+02 -0.13183000547E+01  0.72533761805E+02  0.77786023715E+02  0.00000000000E+00 0.  1.
</event>
<event>
 5    1  0.6336319E-005  0.6605924E+03  0.7818608E-02  0.9182192E-01
         21   -1    0    0  501  502  0.00000000000E+00  0.00000000000E+00  0.74599115680E+03  0.74599115680E+03  0.00000000000E+00 0. -1.
         -4   -1    0    0    0  501 -0.00000000000E+00 -0.00000000000E+00 -0.29706707558E+04  0.29706707558E+04  0.00000000000E+00 0. -1.
        -13    1    1    2    0    0  0.64500118872E+03  0.19799100781E+01 -0.24291309985E+04  0.25133061637E+04  0.10566000000E+00 0.  1.
         13    1    1    2    0    0 -0.88961353415E+03 -0.36200191537E+02  0.29850935890E+03  0.93905832754E+03  0.10566000000E+00 0. -1.
         -4    1    1    2    0  502  0.24461234544E+03  0.34220281459E+02 -0.94057959392E+02  0.26429742134E+03  0.00000000000E+00 0. -1.
</event>
<event>
 5    1  0.6336319E-005  0.6123178E+02  0.7818608E-02  0.1251804E+00
         -4   -1    0    0    0  501 -0.00000000000E+00  0.00000000000E+00  0.29449973751E+02  0.29449973751E+02  0.00000000000E+00 0. -1.
         21   -1    0    0  501  502  0.00000000000E+00 -0.00000000000E+00 -0.20996022439E+03  0.20996022439E+03  0.00000000000E+00 0.  1.
        -13    1    1    2    0    0 -0.21242631040E+02 -0.60976137299E+02 -0.31619554747E+02  0.71896773918E+02  0.10566000000E+00 0.  1.
         13    1    1    2    0    0  0.31034595464E+02  0.46792116050E+02 -0.89344724140E+02  0.10552316872E+03  0.10566000000E+00 0. -1.
         -4    1    1    2    0  502 -0.97919644235E+01  0.14184021248E+02 -0.59545971747E+02  0.61990255503E+02  0.00000000000E+00 0. -1.
</event>
<event>
 5    1  0.6336319E-005  0.7518527E+02  0.7818608E-02  0.1213745E+00
         21   -1    0    0  501  502  0.00000000000E+00  0.00000000000E+00  0.41613930894E+03  0.41613930894E+03  0.00000000000E+00 0.  1.
          4   -1    0    0  502    0 -0.00000000000E+00 -0.00000000000E+00 -0.36605295434E+02  0.36605295434E+02  0.00000000000E+00 0.  1.
        -13    1    1    2    0    0 -0.83720660932E+01  0.87673428816E+02  0.42242366704E+02  0.97678812031E+02  0.10566000000E+00 0.  1.
         13    1    1    2    0    0  0.36326456467E+02 -0.42801825099E+02  0.14060613590E+03  0.15139915550E+03  0.10566000000E+00 0. -1.
          4    1    1    2  501    0 -0.27954390374E+02 -0.44871603716E+02  0.19668551090E+03  0.20366663684E+03  0.00000000000E+00 0.  1.
</event>
<event>
 5    1  0.6336319E-005  0.4410374E+03  0.7818608E-02  0.9807457E-01
         -4   -1    0    0    0  501 -0.00000000000E+00  0.00000000000E+00  0.46696036193E+03  0.46696036193E+03  0.00000000000E+00 0. -1.
         21   -1    0    0  501  502  0.00000000000E+00 -0.00000000000E+00 -0.11052686480E+04  0.11052686480E+04  0.00000000000E+00 0. -1.
        -13    1    1    2    0    0  0.22759540375E+03 -0.12475243167E+02  0.15512542868E+03  0.27571581255E+03  0.10566000000E+00 0.  1.
         13    1    1    2    0    0 -0.27853829281E+03  0.38652324679E+03 -0.78578430838E+03  0.91893459578E+03  0.10566000000E+00 0. -1.
         -4    1    1    2    0  502  0.50942889062E+02 -0.37404800362E+03 -0.76494063539E+01  0.37757860158E+03  0.00000000000E+00 0. -1.
</event>
<event>
 5    1  0.6336319E-005  0.1364626E+03  0.7818608E-02  0.1115288E+00
         21   -1    0    0  501  502  0.00000000000E+00  0.00000000000E+00  0.77719050531E+03  0.77719050531E+03  0.00000000000E+00 0.  1.
         -4   -1    0    0    0  501 -0.00000000000E+00 -0.00000000000E+00 -0.36089913471E+02  0.36089913471E+02  0.00000000000E+00 0. -1.
        -13    1    1    2    0    0 -0.12919712348E+03 -0.11871282735E+02  0.21170005725E+03  0.24829367586E+03  0.10566000000E+00 0.  1.
         13    1    1    2    0    0  0.14631364508E+03 -0.82196559180E+01  0.29797258893E+03  0.33205860988E+03  0.10566000000E+00 0. -1.
         -4    1    1    2    0  502 -0.17116521602E+02  0.20090938653E+02  0.23142794567E+03  0.23292813305E+03  0.00000000000E+00 0. -1.
</event>
<event>
 5    1  0.6336319E-005  0.8555928E+02  0.7818608E-02  0.1233537E+00
         21   -1    0    0  501  502  0.00000000000E+00  0.00000000000E+00  0.79634864714E+02  0.79634864714E+02  0.00000000000E+00 0. -1.
         -4   -1    0    0    0  501 -0.00000000000E+00 -0.00000000000E+00 -0.45220786395E+03  0.45220786395E+03  0.00000000000E+00 0. -1.
        -13    1    1    2    0    0 -0.26150675540E+00 -0.33077430451E+02  0.42763884798E+02  0.54064274693E+02  0.10566000000E+00 0.  1.
         13    1    1    2    0    0 -0.65718509954E+02  0.82330410586E+02 -0.36805151555E+03  0.38283044330E+03  0.10566000000E+00 0. -1.
         -4    1    1    2    0  502  0.65980016709E+02 -0.49252980135E+02 -0.47285368486E+02  0.94948010669E+02  0.00000000000E+00 0. -1.
</event>
<event>
 5    1  0.6336319E-005  0.2582010E+03  0.7818608E-02  0.1061700E+00
         -4   -1    0    0    0  501 -0.00000000000E+00  0.00000000000E+00  0.25903218641E+03  0.25903218641E+03  0.00000000000E+00 0. -1.
         21   -1    0    0  501  502  0.00000000000E+00 -0.00000000000E+00 -0.13826276293E+04  0.13826276293E+04  0.00000000000E+00 0. -1.
        -13    1    1    2    0    0 -0.45752300369E+02 -0.76116399948E+02  0.32952984914E+02  0.94725338262E+02  0.10566000000E+00 0.  1.
         13    1    1    2    0    0 -0.87420000618E+02  0.29397639223E+03  0.52550173004E+02  0.31116861594E+03  0.10566000000E+00 0. -1.
         -4    1    1    2    0  502  0.13317230099E+03 -0.21785999228E+03 -0.12090986008E+04  0.12357658615E+04  0.00000000000E+00 0. -1.
</event>
<event>
 5    1  0.6336319E-005  0.1115918E+03  0.7818608E-02  0.1147568E+00
         21   -1    0    0  501  502  0.00000000000E+00  0.00000000000E+00  0.24099914999E+03  0.24099914999E+03  0.00000000000E+00 0. -1.
          4   -1    0    0  502    0 -0.00000000000E+00 -0.00000000000E+00 -0.34230212950E+03  0.34230212950E+03  0.00000000000E+00 0.  1.
        -13    1    1    2    0    0 -0.10968768892E+03  0.18884814675E+02 -0.24693021853E+03  0.27085525528E+03  0.10566000000E+00 0.  1.
         13    1    1    2    0    0  0.90986080493E+02  0.91128752019E+02  0.15375566801E+03  0.20055855229E+03  0.10566000000E+00 0. -1.
          4    1    1    2  501    0  0.18701608423E+02 -0.11001356669E+03 -0.81284289826E+01  0.11188747192E+03  0.00000000000E+00 0.  1.
</event>
<event>
 5    1  0.6336319E-005  0.6581011E+02  0.7818608E-02  0.1238169E+00
         21   -1    0    0  501  502  0.00000000000E+00  0.00000000000E+00  0.37941757211E+02  0.37941757211E+02  0.00000000000E+00 0.  1.
         -4   -1    0    0    0  501 -0.00000000000E+00 -0.00000000000E+00 -0.43643635262E+03  0.43643635262E+03  0.00000000000E+00 0. -1.
        -13    1    1    2    0    0 -0.69200076716E+02 -0.21432621935E+02 -0.24678948707E+03  0.25720239111E+03  0.10566000000E+00 0.  1.
         13    1    1    2    0    0  0.60389539885E+02  0.25653187263E+01 -0.17546404725E+03  0.18558319005E+03  0.10566000000E+00 0. -1.
         -4    1    1    2    0  502  0.88105368313E+01  0.18867303209E+02  0.23758938911E+02  0.31592528671E+02  0.00000000000E+00 0. -1.
</event>
<event>
 5    1  0.6336319E-005  0.3205276E+03  0.7818608E-02  0.9991746E-01
         -4   -1    0    0    0  501 -0.00000000000E+00  0.00000000000E+00  0.24889205766E+04  0.24889205766E+04  0.00000000000E+00 0. -1.
         21   -1    0    0  501  502  0.00000000000E+00 -0.00000000000E+00 -0.18855458959E+03  0.18855458959E+03  0.00000000000E+00 0. -1.
        -13    1    1    2    0    0 -0.31880611201E+03 -0.12250644988E+03  0.64136441613E+03  0.72663160732E+03  0.10566000000E+00 0.  1.
         13    1    1    2    0    0  0.19724918244E+03  0.17487480098E+03 -0.22107602173E+02  0.26453202685E+03  0.10566000000E+00 0. -1.
         -4    1    1    2    0  502  0.12155692956E+03 -0.52368351098E+02  0.16811091730E+04  0.16863115320E+04  0.00000000000E+00 0. -1.
</event>
<event>
 5    1  0.6336319E-005  0.4537431E+03  0.7818608E-02  0.9835627E-01
         21   -1    0    0  501  502  0.00000000000E+00  0.00000000000E+00  0.17758989835E+03  0.17758989835E+03  0.00000000000E+00 0.  1.
          4   -1    0    0  502    0 -0.00000000000E+00 -0.00000000000E+00 -0.20587594987E+04  0.20587594987E+04  0.00000000000E+00 0.  1.
        -13    1    1    2    0    0  0.17160451805E+03  0.39707056331E+03 -0.50167891002E+03  0.66241594394E+03  0.10566000000E+00 0.  1.
         13    1    1    2    0    0 -0.16020209960E+03  0.10253680532E+03 -0.73036122077E+03  0.75472248750E+03  0.10566000000E+00 0. -1.
          4    1    1    2  501    0 -0.11402418442E+02 -0.49960736863E+03 -0.64912946958E+03  0.81921096563E+03  0.00000000000E+00 0.  1.
</event>
<event>
 5    1  0.6336319E-005  0.3865679E+03  0.7818608E-02  0.9988598E-01
         -4   -1    0    0    0  501 -0.00000000000E+00  0.00000000000E+00  0.34130337272E+04  0.34130337272E+04  0.00000000000E+00 0. -1.
         21   -1    0    0  501  502  0.00000000000E+00 -0.00000000000E+00 -0.10603779699E+03  0.10603779699E+03  0.00000000000E+00 0. -1.
        -13    1    1    2    0    0  0.18456427923E+03 -0.44512554529E+01  0.56045387742E+03  0.59007825474E+03  0.10566000000E+00 0.  1.
         13    1    1    2    0    0 -0.53602638668E+03 -0.29401252927E+02  0.22886898509E+04  0.23508062373E+04  0.10566000000E+00 0. -1.
         -4    1    1    2    0  502  0.35146210745E+03  0.33852508379E+02  0.45785220192E+03  0.57818703211E+03  0.00000000000E+00 0. -1.
</event>
<event>
 5    1  0.6336319E-005  0.4156618E+02  0.7818608E-02  0.1377450E+00
         21   -1    0    0  501  502  0.00000000000E+00  0.00000000000E+00  0.14620234299E+03  0.14620234299E+03  0.00000000000E+00 0.  1.
          4   -1    0    0  502    0 -0.00000000000E+00 -0.00000000000E+00 -0.18969142751E+02  0.18969142751E+02  0.00000000000E+00 0.  1.
        -13    1    1    2    0    0  0.18731228909E+01  0.47148767985E+02  0.48770284990E+02  0.67860642304E+02  0.10566000000E+00 0.  1.
         13    1    1    2    0    0 -0.14843912487E+02 -0.10107746472E+02  0.19810706698E+02  0.26739176139E+02  0.10566000000E+00 0. -1.
          4    1    1    2  501    0  0.12970789596E+02 -0.37041021513E+02  0.58652208554E+02  0.70571667302E+02  0.00000000000E+00 0.  1.
</event>
<event>
 5    1  0.6336319E-005  0.1047954E+04  0.7818608E-02  0.8730794E-01
         21   -1    0    0  501  502  0.00000000000E+00  0.00000000000E+00  0.12822385797E+04  0.12822385797E+04  0.00000000000E+00 0. -1.
          4   -1    0    0  502    0 -0.00000000000E+00 -0.00000000000E+00 -0.14391735473E+04  0.14391735473E+04  0.00000000000E+00 0.  1.
        -13    1    1    2    0    0  0.46734312593E+03  0.10940349218E+04  0.30984257111E+03  0.12293593606E+04  0.10566000000E+00 0.  1.
         13    1    1    2    0    0 -0.47936985382E+03 -0.87748696936E+03 -0.66287799893E+03  0.11996608232E+04  0.10566000000E+00 0. -1.
          4    1    1    2  501    0  0.12026727885E+02 -0.21654795243E+03  0.19610046023E+03  0.29239194310E+03  0.00000000000E+00 0.  1.
</event>
<event>
 5    1  0.6336319E-005  0.4959015E+03  0.7818608E-02  0.9920383E-01
         21   -1    0    0  501  502  0.00000000000E+00  0.00000000000E+00  0.14490479632E+03  0.14490479632E+03  0.00000000000E+00 0. -1.
         -4   -1    0    0    0  501 -0.00000000000E+00 -0.00000000000E+00 -0.21957982380E+04  0.21957982380E+04  0.00000000000E+00 0. -1.
        -13    1    1    2    0    0 -0.51726259724E+02 -0.96615267054E+02 -0.10656599060E+03  0.15286084289E+03  0.10566000000E+00 0.  1.
         13    1    1    2    0    0 -0.45262443181E+03  0.18301246183E+03 -0.86225465078E+03  0.99088118935E+03  0.10566000000E+00 0. -1.
         -4    1    1    2    0  502  0.50435069153E+03 -0.86397194778E+02 -0.10820728003E+04  0.11969610020E+04  0.00000000000E+00 0. -1.
</event>
<event>
 5    1  0.6336319E-005  0.5015412E+03  0.7818608E-02  0.1023153E+00
         -4   -1    0    0    0  501 -0.00000000000E+00  0.00000000000E+00  0.26764592869E+04  0.26764592869E+04  0.00000000000E+00 0. -1.
         21   -1    0    0  501  502  0.00000000000E+00 -0.00000000000E+00 -0.10530863886E+03  0.10530863886E+03  0.00000000000E+00 0. -1.
        -13    1    1    2    0    0 -0.73518898342E+01 -0.38077381956E+02  0.37197086134E+02  0.53736130133E+02  0.10566000000E+00 0.  1.
         13    1    1    2    0    0 -0.23208362094E+03 -0.42121480067E+03  0.14277753929E+04  0.15065946034E+04  0.10566000000E+00 0. -1.
         -4    1    1    2    0  502  0.23943551077E+03  0.45929218263E+03  0.11061781691E+04  0.12214371922E+04  0.00000000000E+00 0. -1.
</event>
<event>
 5    1  0.6336319E-005  0.4700638E+03  0.7818608E-02  0.9821008E-01
          4   -1    0    0  502    0 -0.00000000000E+00  0.00000000000E+00  0.24059211200E+03  0.24059211200E+03  0.00000000000E+00 0.  1.
         21   -1    0    0  501  502  0.00000000000E+00 -0.00000000000E+00 -0.19342132052E+04  0.19342132052E+04  0.00000000000E+00 0.  1.
        -13    1    1    2    0    0  0.49421026252E+03 -0.22750214267E+02 -0.13171713489E+04  0.14070187381E+04  0.10566000000E+00 0.  1.
         13    1    1    2    0    0 -0.79319804852E+02  0.16133357260E+03  0.15506822305E+02  0.18044563112E+03  0.10566000000E+00 0. -1.
          4    1    1    2  501    0 -0.41489045766E+03 -0.13858335833E+03 -0.39195656662E+03  0.58734094799E+03  0.00000000000E+00 0.  1.
</event>
<event>
 5    1  0.6336319E-005  0.4762680E+03  0.7818608E-02  0.9878933E-01
          4   -1    0    0  502    0 -0.00000000000E+00  0.00000000000E+00  0.41010120227E+03  0.41010120227E+03  0.00000000000E+00 0.  1.
         21   -1    0    0  501  502  0.00000000000E+00 -0.00000000000E+00 -0.87985954651E+03  0.87985954651E+03  0.00000000000E+00 0.  1.
        -13    1    1    2    0    0  0.55441678968E+03  0.82877363731E+02 -0.27013209776E+03  0.62226842721E+03  0.10566000000E+00 0.  1.
         13    1    1    2    0    0 -0.14192862302E+03  0.72323965641E+01  0.78258629452E+02  0.16223583402E+03  0.10566000000E+00 0. -1.
          4    1    1    2  501    0 -0.41248816667E+03 -0.90109760295E+02 -0.27788487592E+03  0.50545648755E+03  0.00000000000E+00 0.  1.
</event>
<event>
 5    1  0.6336319E-005  0.2074837E+02  0.7818608E-02  0.1504655E+00
         21   -1    0    0  501  502  0.00000000000E+00  0.00000000000E+00  0.34701214080E+02  0.34701214080E+02  0.00000000000E+00 0.  1.
          4   -1    0    0  502    0 -0.00000000000E+00 -0.00000000000E+00 -0.11439227922E+03  0.11439227922E+03  0.00000000000E+00 0.  1.
        -13    1    1    2    0    0 -0.20498315389E+02  0.62995974249E+01 -0.83423965732E+01  0.23010271753E+02  0.10566000000E+00 0.  1.
         13    1    1    2    0    0  0.19880452663E+01 -0.19205925926E+02 -0.92896546082E+02  0.94882028608E+02  0.10566000000E+00 0. -1.
          4    1    1    2  501    0  0.18510270123E+02  0.12906328501E+02  0.21547877516E+02  0.31201192939E+02  0.00000000000E+00 0.  1.
</event>
<event>
 5    1  0.6336319E-005  0.1508017E+03  0.7818608E-02  0.1100324E+00
         -4   -1    0    0    0  501 -0.00000000000E+00  0.00000000000E+00  0.17337703895E+03  0.17337703895E+03  0.00000000000E+00 0. -1.
         21   -1    0    0  501  502  0.00000000000E+00 -0.00000000000E+00 -0.24435510772E+03  0.24435510772E+03  0.00000000000E+00 0.  1.
        -13    1    1    2    0    0 -0.67554767913E+02  0.14288698806E+03  0.48529186635E+02  0.16533430117E+03  0.10566000000E+00 0.  1.
         13    1    1    2    0    0  0.97468466861E+02 -0.10627670288E+03 -0.24490533732E+02  0.14626905692E+03  0.10566000000E+00 0. -1.
         -4    1    1    2    0  502 -0.29913698948E+02 -0.36610285181E+02 -0.95016721679E+02  0.10612878858E+03  0.00000000000E+00 0. -1.
</event>
<event>
 5    1  0.6336319E-005  0.1989007E+03  0.7818608E-02  0.1060892E+00
          4   -1    0    0  502    0 -0.00000000000E+00  0.00000000000E+00  0.12591423511E+04  0.12591423511E+04  0.00000000000E+00 0.  1.
         21   -1    0    0  501  502  0.00000000000E+00 -0.00000000000E+00 -0.61278991952E+02  0.61278991952E+02  0.00000000000E+00 0.  1.
        -13    1    1    2    0    0  0.14836084437E+03 -0.16737648702E+03  0.79210999138E+03  0.82308206040E+03  0.10566000000E+00 0.  1.
         13    1    1    2    0    0 -0.71030414644E+02  0.15812896567E+03  0.37587580935E+03  0.41392357363E+03  0.10566000000E+00 0. -1.
          4    1    1    2  501    0 -0.77330429726E+02  0.92475213496E+01  0.29877558405E+02  0.83415709005E+02  0.00000000000E+00 0.  1.
</event>
<event>
 5    1  0.6336319E-005  0.1568244E+03  0.7818608E-02  0.1094570E+00
         21   -1    0    0  501  502  0.00000000000E+00  0.00000000000E+00  0.38772964406E+03  0.38772964406E+03  0.00000000000E+00 0. -1.
          4   -1    0    0  502    0 -0.00000000000E+00 -0.00000000000E+00 -0.13033385017E+03  0.13033385017E+03  0.00000000000E+00 0.  1.
        -13    1    1    2    0    0 -0.46073951263E+02  0.16949410976E+03  0.13844599134E+03  0.22364786140E+03  0.10566000000E+00 0.  1.
         13    1    1    2    0    0  0.15975791743E+02 -0.14965225388E+03 -0.19124437355E+02  0.15171281515E+03  0.10566000000E+00 0. -1.
          4    1    1    2  501    0  0.30098159519E+02 -0.19841855879E+02  0.13807423990E+03  0.14270281768E+03  0.00000000000E+00 0.  1.
</event>
<event>
 5    1  0.6336319E-005  0.1764644E+03  0.7818608E-02  0.1077590E+00
         -4   -1    0    0    0  501 -0.00000000000E+00  0.00000000000E+00  0.21728178665E+03  0.21728178665E+03  0.00000000000E+00 0. -1.
         21   -1    0    0  501  502  0.00000000000E+00 -0.00000000000E+00 -0.17223923829E+03  0.17223923829E+03  0.00000000000E+00 0.  1.
        -13    1    1    2    0    0 -0.47921780218E+02 -0.17031551239E+03  0.34415888968E+02  0.18024520897E+03  0.10566000000E+00 0.  1.
         13    1    1    2    0    0  0.37008757610E+02  0.17225041739E+03  0.37569401236E+02  0.18014251443E+03  0.10566000000E+00 0. -1.
         -4    1    1    2    0  502  0.10913022608E+02 -0.19349050067E+01 -0.26942741844E+02  0.29133301528E+02  0.00000000000E+00 0. -1.
</event>
<event>
 5    1  0.6336319E-005  0.4927522E+03  0.7818608E-02  0.9662561E-01
         21   -1    0    0  501  502  0.00000000000E+00  0.00000000000E+00  0.37332498500E+03  0.37332498500E+03  0.00000000000E+00 0.  1.
          4   -1    0    0  502    0 -0.00000000000E+00 -0.00000000000E+00 -0.11435745696E+04  0.11435745696E+04  0.00000000000E+00 0.  1.
        -13    1    1    2    0    0  0.50767087857E+03  0.35676538683E+03 -0.29304234131E+03  0.68621067257E+03  0.10566000000E+00 0.  1.
         13    1    1    2    0    0 -0.11526659413E+03 -0.24391241185E+03 -0.22011653169E+03  0.34818235317E+03  0.10566000000E+00 0. -1.
          4    1    1    2  501    0 -0.39240428444E+03 -0.11285297498E+03 -0.25709071161E+03  0.48250652888E+03  0.00000000000E+00 0.  1.
</event>
<event>
 5    1  0.6336319E-005  0.2046732E+03  0.7818608E-02  0.1056979E+00
         21   -1    0    0  501  502  0.00000000000E+00  0.00000000000E+00  0.54100489544E+02  0.54100489544E+02  0.00000000000E+00 0. -1.
          4   -1    0    0  502    0 -0.00000000000E+00 -0.00000000000E+00 -0.11782161439E+04  0.11782161439E+04  0.00000000000E+00 0.  1.
        -13    1    1    2    0    0  0.16664836819E+03  0.99726896627E+02 -0.25676838481E+03  0.32194276996E+03  0.10566000000E+00 0.  1.
         13    1    1    2    0    0 -0.18491611437E+03 -0.96838935860E+02 -0.86710670580E+03  0.89187768178E+03  0.10566000000E+00 0. -1.
          4    1    1    2  501    0  0.18267746175E+02 -0.28879607673E+01 -0.24056378363E+00  0.18496181732E+02  0.00000000000E+00 0.  1.
</event>
<event>
 5    1  0.6336319E-005  0.4844282E+02  0.7818608E-02  0.1298262E+00
          4   -1    0    0  502    0 -0.00000000000E+00  0.00000000000E+00  0.24517983426E+02  0.24517983426E+02  0.00000000000E+00 0.  1.
         21   -1    0    0  501  502  0.00000000000E+00 -0.00000000000E+00 -0.15619851733E+03  0.15619851733E+03  0.00000000000E+00 0. -1.
        -13    1    1    2    0    0  0.31914050246E+02  0.21729274917E+02 -0.51074787596E+02  0.64025878233E+02  0.10566000000E+00 0.  1.
         13    1    1    2    0    0 -0.40846510540E+02 -0.42287729707E+02 -0.42737493716E+02  0.72685583441E+02  0.10566000000E+00 0. -1.
          4    1    1    2  501    0  0.89324602949E+01  0.20558454790E+02 -0.37868252593E+02  0.44005039083E+02  0.00000000000E+00 0.  1.
</event>
<event>
 5    1  0.6336319E-005  0.4091665E+03  0.7818608E-02  0.9850996E-01
          4   -1    0    0  502    0 -0.00000000000E+00  0.00000000000E+00  0.17102519837E+04  0.17102519837E+04  0.00000000000E+00 0.  1.
         21   -1    0    0  501  502  0.00000000000E+00 -0.00000000000E+00 -0.23584685562E+03  0.23584685562E+03  0.00000000000E+00 0.  1.
        -13    1    1    2    0    0 -0.14900626005E+03 -0.41378590679E+03  0.18849021258E+03  0.47848742261E+03  0.10566000000E+00 0.  1.
         13    1    1    2    0    0  0.23603350263E+03  0.70174931050E+02  0.17655282464E+03  0.30299710620E+03  0.10566000000E+00 0. -1.
          4    1    1    2  501    0 -0.87027242583E+02  0.34361097574E+03  0.11093620909E+04  0.11646143105E+04  0.00000000000E+00 0.  1.
</event>
<event>
 5    1  0.6336319E-005  0.4703192E+03  0.7818608E-02  0.9679130E-01
         21   -1    0    0  501  502  0.00000000000E+00  0.00000000000E+00  0.84255960640E+03  0.84255960640E+03  0.00000000000E+00 0. -1.
         -4   -1    0    0    0  501 -0.00000000000E+00 -0.00000000000E+00 -0.61556465969E+03  0.61556465969E+03  0.00000000000E+00 0. -1.
        -13    1    1    2    0    0  0.22394975829E+03 -0.18854659176E+03 -0.17590984865E+03  0.34153711002E+03  0.10566000000E+00 0.  1.
         13    1    1    2    0    0  0.31544747194E+03  0.19503521878E+03 -0.94614258132E+02  0.38275019676E+03  0.10566000000E+00 0. -1.
         -4    1    1    2    0  502 -0.53939723023E+03 -0.64886270192E+01  0.49751905350E+03  0.73383695931E+03  0.00000000000E+00 0. -1.
</event>
<event>
 5    1  0.6336319E-005  0.4533552E+03  0.7818608E-02  0.9761587E-01
          4   -1    0    0  502    0 -0.00000000000E+00  0.00000000000E+00  0.59246828604E+03  0.59246828604E+03  0.00000000000E+00 0.  1.
         21   -1    0    0  501  502  0.00000000000E+00 -0.00000000000E+00 -0.84482238982E+03  0.84482238982E+03  0.00000000000E+00 0.  1.
        -13    1    1    2    0    0 -0.12703841570E+03 -0.47708540947E+03 -0.15767961790E+02  0.49396142236E+03  0.10566000000E+00 0.  1.
         13    1    1    2    0    0 -0.19244038332E+03  0.15252364295E+03  0.19677717963E+03  0.31467130848E+03  0.10566000000E+00 0. -1.
          4    1    1    2  501    0  0.31947879903E+03  0.32456176652E+03 -0.43336332162E+03  0.62865794502E+03  0.00000000000E+00 0.  1.
</event>
<event>
 5    1  0.6336319E-005  0.2499585E+03  0.7818608E-02  0.1030414E+00
         21   -1    0    0  501  502  0.00000000000E+00  0.00000000000E+00  0.21446612828E+03  0.21446612828E+03  0.00000000000E+00 0. -1.
          4   -1    0    0  502    0 -0.00000000000E+00 -0.00000000000E+00 -0.21543436223E+04  0.21543436223E+04  0.00000000000E+00 0.  1.
        -13    1    1    2    0    0 -0.39047376309E+03 -0.13014634384E+03 -0.41324651826E+02  0.41366117595E+03  0.10566000000E+00 0.  1.
         13    1    1    2    0    0  0.23633174291E+03 -0.25717844112E+02 -0.78427723720E+03  0.81951503718E+03  0.10566000000E+00 0. -1.
          4    1    1    2  501    0  0.15414202019E+03  0.15586418795E+03 -0.11142756050E+04  0.11356335375E+04  0.00000000000E+00 0.  1.
</event>
<event>
 5    1  0.6336319E-005  0.3170278E+03  0.7818608E-02  0.1061813E+00
         21   -1    0    0  501  502  0.00000000000E+00  0.00000000000E+00  0.17326135522E+03  0.17326135522E+03  0.00000000000E+00 0. -1.
         -4   -1    0    0    0  501 -0.00000000000E+00 -0.00000000000E+00 -0.10407801063E+04  0.10407801063E+04  0.00000000000E+00 0. -1.
        -13    1    1    2    0    0 -0.39923040134E+02 -0.26324469611E+02 -0.12756158720E+03  0.13623067396E+03  0.10566000000E+00 0.  1.
         13    1    1    2    0    0 -0.14539157205E+03  0.28385778897E+03 -0.68527688855E+03  0.75585605688E+03  0.10566000000E+00 0. -1.
         -4    1    1    2    0  502  0.18531461219E+03 -0.25753331935E+03 -0.54680275283E+02  0.32195473063E+03  0.00000000000E+00 0. -1.
</event>
<event>
 5    1  0.6336319E-005  0.4734682E+03  0.7818608E-02  0.9538100E-01
         21   -1    0    0  501  502  0.00000000000E+00  0.00000000000E+00  0.45570677549E+03  0.45570677549E+03  0.00000000000E+00 0.  1.
         -4   -1    0    0    0  501 -0.00000000000E+00 -0.00000000000E+00 -0.57689457315E+03  0.57689457315E+03  0.00000000000E+00 0. -1.
        -13    1    1    2    0    0 -0.34164994168E+03  0.31541977820E+03  0.87718942404E+02  0.47319017652E+03  0.10566000000E+00 0.  1.
         13    1    1    2    0    0  0.35543176639E+03 -0.31961492805E+03 -0.23267095539E+03  0.53162131958E+03  0.10566000000E+00 0. -1.
         -4    1    1    2    0  502 -0.13781824701E+02  0.41951498479E+01  0.23764215319E+02  0.27789852538E+02  0.00000000000E+00 0. -1.
</event>
<event>
 5    1  0.6336319E-005  0.4554102E+02  0.7818608E-02  0.1311091E+00
         21   -1    0    0  501  502  0.00000000000E+00  0.00000000000E+00  0.14251254949E+03  0.14251254949E+03  0.00000000000E+00 0.  1.
         -4   -1    0    0    0  501 -0.00000000000E+00 -0.00000000000E+00 -0.11923614019E+03  0.11923614019E+03  0.00000000000E+00 0. -1.
        -13    1    1    2    0    0 -0.38983033611E+02  0.37753320281E+02  0.74091631773E+02  0.91839921409E+02  0.10566000000E+00 0.  1.
         13    1    1    2    0    0  0.92604110297E+01 -0.44594356634E+02 -0.10121973622E+03  0.11099485583E+03  0.10566000000E+00 0. -1.
         -4    1    1    2    0  502  0.29722622581E+02  0.68410363534E+01  0.50404513756E+02  0.58913912435E+02  0.00000000000E+00 0. -1.
</event>
<event>
 5    1  0.6336319E-005  0.3708547E+02  0.7818608E-02  0.1355634E+00
         -4   -1    0    0    0  501 -0.00000000000E+00  0.00000000000E+00  0.83474895929E+02  0.83474895929E+02  0.00000000000E+00 0. -1.
         21   -1    0    0  501  502  0.00000000000E+00 -0.00000000000E+00 -0.86455470362E+02  0.86455470362E+02  0.00000000000E+00 0.  1.
        -13    1    1    2    0    0 -0.17178627393E+02  0.11381426542E+02 -0.49235854112E+02  0.53374362791E+02  0.10566000000E+00 0.  1.
         13    1    1    2    0    0  0.27220050864E+02 -0.27442144180E+02  0.73693377172E+02  0.83214947271E+02  0.10566000000E+00 0. -1.
         -4    1    1    2    0  502 -0.10041423472E+02  0.16060717637E+02 -0.27438097493E+02  0.33341056228E+02  0.00000000000E+00 0. -1.
</event>
<event>
 5    1  0.6336319E-005  0.1582891E+03  0.7818608E-02  0.1093213E+00
          4   -1    0    0  502    0 -0.00000000000E+00  0.00000000000E+00  0.42925013420E+03  0.42925013420E+03  0.00000000000E+00 0.  1.
         21   -1    0    0  501  502  0.00000000000E+00 -0.00000000000E+00 -0.56263811924E+03  0.56263811924E+03  0.00000000000E+00 0.  1.
        -13    1    1    2    0    0  0.74785722150E+02  0.14111010196E+03  0.36092673447E+03  0.39468099008E+03  0.10566000000E+00 0.  1.
         13    1    1    2    0    0 -0.12290040032E+03 -0.10027528112E+03 -0.79141838115E+02  0.17726556943E+03  0.10566000000E+00 0. -1.
          4    1    1    2  501    0  0.48114678171E+02 -0.40834820837E+02 -0.41517288140E+03  0.41994169393E+03  0.00000000000E+00 0.  1.
</event>
<event>
 5    1  0.6336319E-005  0.4957152E+03  0.7818608E-02  0.9620552E-01
         21   -1    0    0  501  502  0.00000000000E+00  0.00000000000E+00  0.45720258509E+03  0.45720258509E+03  0.00000000000E+00 0. -1.
         -4   -1    0    0    0  501 -0.00000000000E+00 -0.00000000000E+00 -0.17320454808E+04  0.17320454808E+04  0.00000000000E+00 0. -1.
        -13    1    1    2    0    0  0.83611849505E+02 -0.29567735466E+03 -0.10925370978E+04  0.11349243855E+04  0.10566000000E+00 0.  1.
         13    1    1    2    0    0 -0.27262653070E+03 -0.29489529000E+03 -0.16448212538E+03  0.43398483619E+03  0.10566000000E+00 0. -1.
         -4    1    1    2    0  502  0.18901468120E+03  0.59057264466E+03 -0.17823672469E+02  0.62033884421E+03  0.00000000000E+00 0. -1.
</event>
<event>
 5    1  0.6336319E-005  0.1794129E+03  0.7818608E-02  0.1075246E+00
         21   -1    0    0  501  502  0.00000000000E+00  0.00000000000E+00  0.37255557584E+03  0.37255557584E+03  0.00000000000E+00 0.  1.
         -4   -1    0    0    0  501 -0.00000000000E+00 -0.00000000000E+00 -0.14197855080E+03  0.14197855080E+03  0.00000000000E+00 0. -1.
        -13    1    1    2    0    0 -0.18676528366E+03  0.48932922635E+02  0.96537466698E+02  0.21585920351E+03  0.10566000000E+00 0.  1.
         13    1    1    2    0    0  0.15334052465E+03 -0.79647831866E+02  0.17583560190E+02  0.17368444482E+03  0.10566000000E+00 0. -1.
         -4    1    1    2    0  502  0.33424759013E+02  0.30714909231E+02  0.11645599815E+03  0.12499047831E+03  0.00000000000E+00 0. -1.
</event>
<event>
 5    1  0.6336319E-005  0.3137700E+02  0.7818608E-02  0.1394181E+00
         21   -1    0    0  501  502  0.00000000000E+00  0.00000000000E+00  0.53033253412E+02  0.53033253412E+02  0.00000000000E+00 0.  1.
          4   -1    0    0  502    0 -0.00000000000E+00 -0.00000000000E+00 -0.15077741747E+03  0.15077741747E+03  0.00000000000E+00 0.  1.
        -13    1    1    2    0    0  0.28014743042E+02 -0.17259398200E+02 -0.12906210682E+03  0.13319065746E+03  0.10566000000E+00 0.  1.
         13    1    1    2    0    0 -0.14471390359E+01  0.30402125773E+02  0.47304632160E+01  0.30802141308E+02  0.10566000000E+00 0. -1.
          4    1    1    2  501    0 -0.26567604006E+02 -0.13142727573E+02  0.26587479548E+02  0.39817872111E+02  0.00000000000E+00 0.  1.
</event>
<event>
 5    1  0.6336319E-005  0.3590798E+03  0.7818608E-02  0.1030125E+00
         21   -1    0    0  501  502  0.00000000000E+00  0.00000000000E+00  0.53440475462E+02  0.53440475462E+02  0.00000000000E+00 0. -1.
         -4   -1    0    0    0  501 -0.00000000000E+00 -0.00000000000E+00 -0.31255289808E+04  0.31255289808E+04  0.00000000000E+00 0. -1.
        -13    1    1    2    0    0  0.31867824322E+02 -0.78876435992E+02 -0.47361429561E+03  0.48119389289E+03  0.10566000000E+00 0.  1.
         13    1    1    2    0    0 -0.25846792315E+03 -0.22721878510E+03 -0.12002826609E+04  0.12486442732E+04  0.10566000000E+00 0. -1.
         -4    1    1    2    0  502  0.22660009882E+03  0.30609522109E+03 -0.13981915488E+04  0.14491312902E+04  0.00000000000E+00 0. -1.
</event>
<event>
 5    1  0.6336319E-005  0.4247133E+03  0.7818608E-02  0.9805631E-01
         -4   -1    0    0    0  501 -0.00000000000E+00  0.00000000000E+00  0.63725475187E+03  0.63725475187E+03  0.00000000000E+00 0. -1.
         21   -1    0    0  501  502  0.00000000000E+00 -0.00000000000E+00 -0.78771040560E+03  0.78771040560E+03  0.00000000000E+00 0. -1.
        -13    1    1    2    0    0  0.24187034083E+03 -0.86392995100E+02  0.25299689210E+03  0.36051692048E+03  0.10566000000E+00 0.  1.
         13    1    1    2    0    0 -0.51222488160E+03 -0.19596945135E+03 -0.74366990116E+02  0.55345172832E+03  0.10566000000E+00 0. -1.
         -4    1    1    2    0  502  0.27035454077E+03  0.28236244645E+03 -0.32908555571E+03  0.51099650866E+03  0.00000000000E+00 0. -1.
</event>
<event>
 5    1  0.6336319E-005  0.1218970E+03  0.7818608E-02  0.1132685E+00
         21   -1    0    0  501  502  0.00000000000E+00  0.00000000000E+00  0.57181038816E+02  0.57181038816E+02  0.00000000000E+00 0.  1.
         -4   -1    0    0    0  501 -0.00000000000E+00 -0.00000000000E+00 -0.54958058678E+03  0.54958058678E+03  0.00000000000E+00 0. -1.
        -13    1    1    2    0    0 -0.54854832113E+01 -0.89545497242E+02 -0.99459553453E+01  0.90263058857E+02  0.10566000000E+00 0.  1.
         13    1    1    2    0    0  0.29229023950E+02  0.12664614090E+03 -0.42291616930E+03  0.44243833272E+03  0.10566000000E+00 0. -1.
         -4    1    1    2    0  502 -0.23743540739E+02 -0.37100643658E+02 -0.59537423319E+02  0.74060234014E+02  0.00000000000E+00 0. -1.
</event>
<event>
 5    1  0.6336319E-005  0.3706714E+03  0.7818608E-02  0.9817793E-01
         21   -1    0    0  501  502  0.00000000000E+00  0.00000000000E+00  0.14999172242E+04  0.14999172242E+04  0.00000000000E+00 0. -1.
         -4   -1    0    0    0  501 -0.00000000000E+00 -0.00000000000E+00 -0.24855457117E+03  0.24855457117E+03  0.00000000000E+00 0. -1.
        -13    1    1    2    0    0 -0.18794520695E+03  0.32708520958E+03  0.15539252579E+03  0.40798895007E+03  0.10566000000E+00 0.  1.
         13    1    1    2    0    0  0.19764126112E+03 -0.30634775462E+03  0.14997785455E+03  0.39421362594E+03  0.10566000000E+00 0. -1.
         -4    1    1    2    0  502 -0.96960541674E+01 -0.20737454960E+02  0.94599227268E+03  0.94626921935E+03  0.00000000000E+00 0. -1.
</event>
<event>
 5    1  0.6336319E-005  0.4186837E+03  0.7818608E-02  0.9676585E-01
         21   -1    0    0  501  502  0.00000000000E+00  0.00000000000E+00  0.26282195011E+03  0.26282195011E+03  0.00000000000E+00 0.  1.
          4   -1    0    0  502    0 -0.00000000000E+00 -0.00000000000E+00 -0.13205602632E+04  0.13205602632E+04  0.00000000000E+00 0.  1.
        -13    1    1    2    0    0  0.47728672102E+03  0.81180442205E+02 -0.74303410718E+03  0.88684416549E+03  0.10566000000E+00 0.  1.
         13    1    1    2    0    0 -0.33033389191E+03 -0.14183281426E+03 -0.38141406949E+03  0.52413140615E+03  0.10566000000E+00 0. -1.
          4    1    1    2  501    0 -0.14695282911E+03  0.60652372054E+02  0.66709863527E+02  0.17240664172E+03  0.00000000000E+00 0.  1.
</event>
<event>
 5    1  0.6336319E-005  0.4087452E+03  0.7818608E-02  0.9704124E-01
          4   -1    0    0  502    0 -0.00000000000E+00  0.00000000000E+00  0.20099375767E+04  0.20099375767E+04  0.00000000000E+00 0.  1.
         21   -1    0    0  501  502  0.00000000000E+00 -0.00000000000E+00 -0.37649156597E+03  0.37649156597E+03  0.00000000000E+00 0. -1.
        -13    1    1    2    0    0  0.10413524547E+03  0.36658368576E+03  0.10205924447E+04  0.10894203492E+04  0.10566000000E+00 0.  1.
         13    1    1    2    0    0  0.22573388713E+03 -0.53268389092E+03  0.70927443861E+03  0.91530222106E+03  0.10566000000E+00 0. -1.
          4    1    1    2  501    0 -0.32986913260E+03  0.16610020516E+03 -0.96420872497E+02  0.38170657245E+03  0.00000000000E+00 0.  1.
</event>
<event>
 5    1  0.6336319E-005  0.9306207E+02  0.7818608E-02  0.1176574E+00
          4   -1    0    0  502    0 -0.00000000000E+00  0.00000000000E+00  0.35215601943E+03  0.35215601943E+03  0.00000000000E+00 0.  1.
         21   -1    0    0  501  502  0.00000000000E+00 -0.00000000000E+00 -0.12472458750E+03  0.12472458750E+03  0.00000000000E+00 0.  1.
        -13    1    1    2    0    0  0.72745127486E+02 -0.60090257302E+02  0.30592237243E+03  0.32014247096E+03  0.10566000000E+00 0.  1.
         13    1    1    2    0    0 -0.77309195949E+02  0.37909528614E+02 -0.12545572658E+02  0.87012911084E+02  0.10566000000E+00 0. -1.
          4    1    1    2  501    0  0.45640684630E+01  0.22180728688E+02 -0.65945367843E+02  0.69725224890E+02  0.00000000000E+00 0.  1.
</event>
<event>
 5    1  0.6336319E-005  0.3943741E+03  0.7818608E-02  0.9746809E-01
         21   -1    0    0  501  502  0.00000000000E+00  0.00000000000E+00  0.34216201102E+03  0.34216201102E+03  0.00000000000E+00 0.  1.
          4   -1    0    0  502    0 -0.00000000000E+00 -0.00000000000E+00 -0.19480254766E+04  0.19480254766E+04  0.00000000000E+00 0.  1.
        -13    1    1    2    0    0 -0.16128841178E+03 -0.27779069997E+03 -0.43230254596E+02  0.32411493462E+03  0.10566000000E+00 0.  1.
         13    1    1    2    0    0 -0.48793456826E+02 -0.39228682785E+03 -0.96902870740E+03  0.10465593168E+04  0.10566000000E+00 0. -1.
          4    1    1    2  501    0  0.21008186861E+03  0.67007752782E+03 -0.59360450357E+03  0.91951323616E+03  0.00000000000E+00 0.  1.
</event>
<event>
 5    1  0.6336319E-005  0.4059481E+03  0.7818608E-02  0.9979755E-01
          4   -1    0    0  502    0 -0.00000000000E+00  0.00000000000E+00  0.11893317027E+04  0.11893317027E+04  0.00000000000E+00 0.  1.
         21   -1    0    0  501  502  0.00000000000E+00 -0.00000000000E+00 -0.33232473370E+03  0.33232473370E+03  0.00000000000E+00 0.  1.
        -13    1    1    2    0    0 -0.28775381017E+03 -0.27479162311E+03 -0.56938046012E+02  0.40193860681E+03  0.10566000000E+00 0.  1.
         13    1    1    2    0    0  0.90640660247E+02 -0.13682266658E+03  0.40016303826E+03  0.43251201109E+03  0.10566000000E+00 0. -1.
          4    1    1    2  501    0  0.19711314992E+03  0.41161428968E+03  0.51378197675E+03  0.68720581850E+03  0.00000000000E+00 0.  1.
</event>
<event>
 5    1  0.6336319E-005  0.1627050E+03  0.7818608E-02  0.1093979E+00
          4   -1    0    0  502    0 -0.00000000000E+00  0.00000000000E+00  0.81344900850E+03  0.81344900850E+03  0.00000000000E+00 0.  1.
         21   -1    0    0  501  502  0.00000000000E+00 -0.00000000000E+00 -0.40557200228E+03  0.40557200228E+03  0.00000000000E+00 0.  1.
        -13    1    1    2    0    0  0.32053044025E+02  0.16128837526E+03 -0.30776032381E+03  0.34893805424E+03  0.10566000000E+00 0.  1.
         13    1    1    2    0    0  0.11282653382E+03 -0.87396291269E+02  0.68547305351E+01  0.14288084881E+03  0.10566000000E+00 0. -1.
          4    1    1    2  501    0 -0.14487957784E+03 -0.73892083988E+02  0.70878259949E+03  0.72720210773E+03  0.00000000000E+00 0.  1.
</event>
<event>
 5    1  0.6336319E-005  0.4965168E+03  0.7818608E-02  0.9667590E-01
          4   -1    0    0  502    0 -0.00000000000E+00  0.00000000000E+00  0.67953832383E+03  0.67953832383E+03  0.00000000000E+00 0.  1.
         21   -1    0    0  501  502  0.00000000000E+00 -0.00000000000E+00 -0.90975483444E+03  0.90975483444E+03  0.00000000000E+00 0.  1.
        -13    1    1    2    0    0 -0.78729840847E+02  0.62443543391E+03 -0.47743354062E+03  0.78997518684E+03  0.10566000000E+00 0.  1.
         13    1    1    2    0    0  0.25886622336E+02 -0.25777883892E+03  0.33018760756E+03  0.41969502542E+03  0.10566000000E+00 0. -1.
          4    1    1    2  501    0  0.52843218511E+02 -0.36665659499E+03 -0.82970577558E+02  0.37962294600E+03  0.00000000000E+00 0.  1.
</event>
<event>
 5    1  0.6336319E-005  0.5741259E+02  0.7818608E-02  0.1264239E+00
         -4   -1    0    0    0  501 -0.00000000000E+00  0.00000000000E+00  0.22449137705E+03  0.22449137705E+03  0.00000000000E+00 0. -1.
         21   -1    0    0  501  502  0.00000000000E+00 -0.00000000000E+00 -0.35895394062E+02  0.35895394062E+02  0.00000000000E+00 0.  1.
        -13    1    1    2    0    0 -0.10103736878E+01  0.70734610322E+02  0.24468412110E+02  0.74853993264E+02  0.10566000000E+00 0.  1.
         13    1    1    2    0    0  0.34683534807E+01 -0.54880729122E+02  0.15968133977E+03  0.16888476941E+03  0.10566000000E+00 0. -1.
         -4    1    1    2    0  502 -0.24579797928E+01 -0.15853881200E+02  0.44462311059E+01  0.16648008433E+02  0.00000000000E+00 0. -1.
</event>
<event>
 5    1  0.6336319E-005  0.8830665E+02  0.7818608E-02  0.1185502E+00
          4   -1    0    0  502    0 -0.00000000000E+00  0.00000000000E+00  0.11809496682E+03  0.11809496682E+03  0.00000000000E+00 0.  1.
         21   -1    0    0  501  502  0.00000000000E+00 -0.00000000000E+00 -0.38198647942E+03  0.38198647942E+03  0.00000000000E+00 0. -1.
        -13    1    1    2    0    0 -0.82410030817E+02 -0.38933610909E+02  0.93398869692E+02  0.13050133816E+03  0.10566000000E+00 0.  1.
         13    1    1    2    0    0  0.43348623535E+02  0.33158595371E+02 -0.22485381102E+03  0.23138246066E+03  0.10566000000E+00 0. -1.
          4    1    1    2  501    0  0.39061407282E+02  0.57750155382E+01 -0.13243657127E+03  0.13819764742E+03  0.00000000000E+00 0.  1.
</event>
<event>
 5    1  0.6336319E-005  0.4929892E+03  0.7818608E-02  0.9524358E-01
          4   -1    0    0  502    0 -0.00000000000E+00  0.00000000000E+00  0.32292875476E+04  0.32292875476E+04  0.00000000000E+00 0.  1.
         21   -1    0    0  501  502  0.00000000000E+00 -0.00000000000E+00 -0.18069746171E+03  0.18069746171E+03  0.00000000000E+00 0. -1.
        -13    1    1    2    0    0  0.97464597746E+02  0.47707543329E+03  0.12270013571E+04  0.13200881252E+04  0.10566000000E+00 0.  1.
         13    1    1    2    0    0  0.40011492437E+03 -0.18484819921E+03  0.90818859302E+03  0.10094886533E+04  0.10566000000E+00 0. -1.
          4    1    1    2  501    0 -0.49757952211E+03 -0.29222723408E+03  0.91340013580E+03  0.10804082308E+04  0.00000000000E+00 0.  1.
</event>
<event>
 5    1  0.6336319E-005  0.1161657E+03  0.7818608E-02  0.1140273E+00
          4   -1    0    0  502    0 -0.00000000000E+00  0.00000000000E+00  0.18284075009E+03  0.18284075009E+03  0.00000000000E+00 0.  1.
         21   -1    0    0  501  502  0.00000000000E+00 -0.00000000000E+00 -0.31029384075E+03  0.31029384075E+03  0.00000000000E+00 0. -1.
        -13    1    1    2    0    0  0.11955256139E+03  0.11861704867E+02  0.14668911503E+03  0.18960807633E+03  0.10566000000E+00 0.  1.
         13    1    1    2    0    0 -0.85973419570E+02  0.12504184679E+02 -0.15979075936E+03  0.18188150386E+03  0.10566000000E+00 0. -1.
          4    1    1    2  501    0 -0.33579141821E+02 -0.24365889546E+02 -0.11435144633E+03  0.12164501065E+03  0.00000000000E+00 0.  1.
</event>
<event>
 5    1  0.6336319E-005  0.5651936E+03  0.7818608E-02  0.9345493E-01
         21   -1    0    0  501  502  0.00000000000E+00  0.00000000000E+00  0.65882508170E+03  0.65882508170E+03  0.00000000000E+00 0.  1.
          4   -1    0    0  502    0 -0.00000000000E+00 -0.00000000000E+00 -0.18827842621E+04  0.18827842621E+04  0.00000000000E+00 0.  1.
        -13    1    1    2    0    0  0.77747295108E+03  0.18158319453E+02 -0.65549526614E+02  0.78044260893E+03  0.10566000000E+00 0.  1.
         13    1    1    2    0    0 -0.49667427742E+03 -0.21154088722E+03 -0.12878926096E+04  0.13964606224E+04  0.10566000000E+00 0. -1.
          4    1    1    2  501    0 -0.28079867366E+03  0.19338256776E+03  0.12948295581E+03  0.36470611249E+03  0.00000000000E+00 0.  1.
</event>
<event>
 5    1  0.6336319E-005  0.5206897E+03  0.7818608E-02  0.9447906E-01
         21   -1    0    0  501  502  0.00000000000E+00  0.00000000000E+00  0.51740970390E+03  0.51740970390E+03  0.00000000000E+00 0. -1.
          4   -1    0    0  502    0 -0.00000000000E+00 -0.00000000000E+00 -0.14161220158E+04  0.14161220158E+04  0.00000000000E+00 0.  1.
        -13    1    1    2    0    0 -0.23999270850E+03  0.63938257869E+02 -0.49533126221E+03  0.55410980089E+03  0.10566000000E+00 0.  1.
         13    1    1    2    0    0 -0.50268542619E+03  0.18145138139E+03 -0.12199462484E+03  0.54817874928E+03  0.10566000000E+00 0. -1.
          4    1    1    2  501    0  0.74267813469E+03 -0.24538963926E+03 -0.28138642485E+03  0.83124316953E+03  0.00000000000E+00 0.  1.
</event>
<event>
 5    1  0.6336319E-005  0.5583954E+03  0.7818608E-02  0.9358412E-01
          4   -1    0    0  502    0 -0.00000000000E+00  0.00000000000E+00  0.12478118268E+04  0.12478118268E+04  0.00000000000E+00 0.  1.
         21   -1    0    0  501  502  0.00000000000E+00 -0.00000000000E+00 -0.43653542595E+03  0.43653542595E+03  0.00000000000E+00 0.  1.
        -13    1    1    2    0    0  0.58106127443E+03 -0.44041276734E+01  0.80233685523E+03  0.99065435012E+03  0.10566000000E+00 0.  1.
         13    1    1    2    0    0 -0.51237641311E+03 -0.28424162687E+00  0.15240655622E+03  0.53456284855E+03  0.10566000000E+00 0. -1.
          4    1    1    2  501    0 -0.68684861317E+02  0.46883693003E+01 -0.14346701060E+03  0.15913005408E+03  0.00000000000E+00 0.  1.
</event>
<event>
 5    1  0.6336319E-005  0.4885278E+03  0.7818608E-02  0.9862919E-01
         21   -1    0    0  501  502  0.00000000000E+00  0.00000000000E+00  0.68103273132E+03  0.68103273132E+03  0.00000000000E+00 0.  1.
          4   -1    0    0  502    0 -0.00000000000E+00 -0.00000000000E+00 -0.53906938602E+03  0.53906938602E+03  0.00000000000E+00 0.  1.
        -13    1    1    2    0    0  0.14141912522E+03  0.50481569887E+03  0.28110773733E+03  0.59486118545E+03  0.10566000000E+00 0.  1.
         13    1    1    2    0    0 -0.12441070294E+03 -0.61926902460E+02 -0.11667695618E+03  0.18145657200E+03  0.10566000000E+00 0. -1.
          4    1    1    2  501    0 -0.17008422281E+02 -0.44288879641E+03 -0.22467435858E+02  0.44378435989E+03  0.00000000000E+00 0.  1.
</event>
<event>
 5    1  0.6336319E-005  0.1173718E+03  0.7818608E-02  0.1138637E+00
         -4   -1    0    0    0  501 -0.00000000000E+00  0.00000000000E+00  0.36684500957E+03  0.36684500957E+03  0.00000000000E+00 0. -1.
         21   -1    0    0  501  502  0.00000000000E+00 -0.00000000000E+00 -0.22546448791E+03  0.22546448791E+03  0.00000000000E+00 0. -1.
        -13    1    1    2    0    0  0.34877233721E+02  0.10745366972E+03  0.30541589804E+02  0.11702782763E+03  0.10566000000E+00 0.  1.
         13    1    1    2    0    0 -0.21512624351E+02 -0.11685083883E+03  0.28060933330E+03  0.30472696080E+03  0.10566000000E+00 0. -1.
         -4    1    1    2    0  502 -0.13364609370E+02  0.93971691174E+01 -0.16977040144E+03  0.17055470904E+03  0.00000000000E+00 0. -1.
</event>
<event>
 5    1  0.6336319E-005  0.7222243E+02  0.7818608E-02  0.1221014E+00
         -4   -1    0    0    0  501 -0.00000000000E+00  0.00000000000E+00  0.66447748295E+03  0.66447748295E+03  0.00000000000E+00 0. -1.
         21   -1    0    0  501  502  0.00000000000E+00 -0.00000000000E+00 -0.11925168556E+02  0.11925168556E+02  0.00000000000E+00 0.  1.
        -13    1    1    2    0    0 -0.50357575755E+02 -0.67028590450E+02  0.31079895477E+03  0.32190793533E+03  0.10566000000E+00 0.  1.
         13    1    1    2    0    0  0.43130817987E+02  0.48996468495E+02  0.31339336293E+03  0.32011924728E+03  0.10566000000E+00 0. -1.
         -4    1    1    2    0  502  0.72267577681E+01  0.18032121955E+02  0.28359996694E+02  0.34375468906E+02  0.00000000000E+00 0. -1.
</event>
<event>
 5    1  0.6336319E-005  0.3688026E+03  0.7818608E-02  0.1005611E+00
         -4   -1    0    0    0  501 -0.00000000000E+00  0.00000000000E+00  0.18057084679E+04  0.18057084679E+04  0.00000000000E+00 0. -1.
         21   -1    0    0  501  502  0.00000000000E+00 -0.00000000000E+00 -0.17481235648E+03  0.17481235648E+03  0.00000000000E+00 0. -1.
        -13    1    1    2    0    0 -0.83033426866E+01 -0.17037255381E+03  0.21739547153E+03  0.27632689844E+03  0.10566000000E+00 0.  1.
         13    1    1    2    0    0  0.36877403397E+03  0.67235252110E+02  0.18164882637E+03  0.41654672552E+03  0.10566000000E+00 0. -1.
         -4    1    1    2    0  502 -0.36047069128E+03  0.10313730170E+03  0.12318518135E+04  0.12876472004E+04  0.00000000000E+00 0. -1.
</event>
<event>
 5    1  0.6336319E-005  0.2751283E+02  0.7818608E-02  0.1472534E+00
          4   -1    0    0  502    0 -0.00000000000E+00  0.00000000000E+00  0.59100309765E+01  0.59100309765E+01  0.00000000000E+00 0.  1.
         21   -1    0    0  501  502  0.00000000000E+00 -0.00000000000E+00 -0.25426832642E+03  0.25426832642E+03  0.00000000000E+00 0.  1.
        -13    1    1    2    0    0 -0.81271262382E+01 -0.35951820251E+02 -0.87682922796E+02  0.95115139038E+02  0.10566000000E+00 0.  1.
         13    1    1    2    0    0  0.63453875977E+01  0.11710499704E+02 -0.49410934461E+02  0.51174714024E+02  0.10566000000E+00 0. -1.
          4    1    1    2  501    0  0.17817386405E+01  0.24241320547E+02 -0.11126443818E+03  0.11388850433E+03  0.00000000000E+00 0.  1.
</event>
<event>
 5    1  0.6336319E-005  0.4728879E+03  0.7818608E-02  0.9724602E-01
         21   -1    0    0  501  502  0.00000000000E+00  0.00000000000E+00  0.17351654702E+03  0.17351654702E+03  0.00000000000E+00 0.  1.
          4   -1    0    0  502    0 -0.00000000000E+00 -0.00000000000E+00 -0.23573535626E+04  0.23573535626E+04  0.00000000000E+00 0.  1.
        -13    1    1    2    0    0 -0.67473841579E+02  0.42350804975E+03 -0.60956363327E+03  0.74530505276E+03  0.10566000000E+00 0.  1.
         13    1    1    2    0    0 -0.23385496050E+03  0.75819072151E+02 -0.33107000605E+03  0.41236395856E+03  0.10566000000E+00 0. -1.
          4    1    1    2  501    0  0.30132880208E+03 -0.49932712190E+03 -0.12432033763E+04  0.13732010983E+04  0.00000000000E+00 0.  1.
</event>
<event>
 5    1  0.6336319E-005  0.3834496E+03  0.7818608E-02  0.9778099E-01
         21   -1    0    0  501  502  0.00000000000E+00  0.00000000000E+00  0.14917236475E+03  0.14917236475E+03  0.00000000000E+00 0. -1.
          4   -1    0    0  502    0 -0.00000000000E+00 -0.00000000000E+00 -0.37178917265E+04  0.37178917265E+04  0.00000000000E+00 0.  1.
        -13    1    1    2    0    0 -0.42485262697E+03 -0.99762338430E+02 -0.20887586944E+04  0.21338615638E+04  0.10566000000E+00 0.  1.
         13    1    1    2    0    0  0.26553048914E+03  0.23940555287E+03 -0.14787350031E+04  0.15213410794E+04  0.10566000000E+00 0. -1.
          4    1    1    2  501    0  0.15932213782E+03 -0.13964321444E+03 -0.12256643240E+01  0.21186144810E+03  0.00000000000E+00 0.  1.
</event>
<event>
 5    1  0.6336319E-005  0.2321204E+03  0.7818608E-02  0.1051556E+00
         -4   -1    0    0    0  501 -0.00000000000E+00  0.00000000000E+00  0.10299510656E+04  0.10299510656E+04  0.00000000000E+00 0. -1.
         21   -1    0    0  501  502  0.00000000000E+00 -0.00000000000E+00 -0.21431809065E+03  0.21431809065E+03  0.00000000000E+00 0. -1.
        -13    1    1    2    0    0  0.14880150068E+03  0.70495306726E+02  0.60593730556E+03  0.62791042698E+03  0.10566000000E+00 0.  1.
         13    1    1    2    0    0 -0.33284612802E+02  0.21624615153E+03 -0.35671783989E+02  0.22168164299E+03  0.10566000000E+00 0. -1.
         -4    1    1    2    0  502 -0.11551688788E+03 -0.28674145826E+03  0.24536745341E+03  0.39467708632E+03  0.00000000000E+00 0. -1.
</event>
<event>
 5    1  0.6336319E-005  0.3682255E+03  0.7818608E-02  0.1005293E+00
         21   -1    0    0  501  502  0.00000000000E+00  0.00000000000E+00  0.68549173697E+03  0.68549173697E+03  0.00000000000E+00 0. -1.
         -4   -1    0    0    0  501 -0.00000000000E+00 -0.00000000000E+00 -0.12067875793E+04  0.12067875793E+04  0.00000000000E+00 0. -1.
        -13    1    1    2    0    0 -0.42655014376E+02  0.16781461974E+03 -0.81114950276E+03  0.82942433280E+03  0.10566000000E+00 0.  1.
         13    1    1    2    0    0  0.13834583117E+03  0.21249737985E+03 -0.27574042812E+03  0.37460312373E+03  0.10566000000E+00 0. -1.
         -4    1    1    2    0  502 -0.95690816796E+02 -0.38031199959E+03  0.56559408854E+03  0.68825185974E+03  0.00000000000E+00 0. -1.
</event>
<event>
 5    1  0.6336319E-005  0.4137971E+03  0.7818608E-02  0.9690023E-01
          4   -1    0    0  502    0 -0.00000000000E+00  0.00000000000E+00  0.32378056804E+03  0.32378056804E+03  0.00000000000E+00 0.  1.
         21   -1    0    0  501  502  0.00000000000E+00 -0.00000000000E+00 -0.96740876172E+03  0.96740876172E+03  0.00000000000E+00 0. -1.
        -13    1    1    2    0    0 -0.33741065321E+03 -0.35520317804E+03 -0.29453119740E+02  0.49079806847E+03  0.10566000000E+00 0.  1.
         13    1    1    2    0    0  0.14845480170E+03  0.24095203852E+03 -0.41936164543E+03  0.50592579875E+03  0.10566000000E+00 0. -1.
          4    1    1    2  501    0  0.18895585151E+03  0.11425113952E+03 -0.19481342851E+03  0.29446546254E+03  0.00000000000E+00 0.  1.
</event>
<event>
 5    1  0.6336319E-005  0.4990775E+03  0.7818608E-02  0.9479996E-01
         21   -1    0    0  501  502  0.00000000000E+00  0.00000000000E+00  0.37115054477E+03  0.37115054477E+03  0.00000000000E+00 0.  1.
         -4   -1    0    0    0  501 -0.00000000000E+00 -0.00000000000E+00 -0.21897603084E+04  0.21897603084E+04  0.00000000000E+00 0. -1.
        -13    1    1    2    0    0 -0.29645367745E+03  0.23020618172E+03  0.10294349345E+03  0.38920051771E+03  0.10566000000E+00 0.  1.
         13    1    1    2    0    0  0.11548776286E+03 -0.52087641541E+03 -0.16517663274E+04  0.17357942490E+04  0.10566000000E+00 0. -1.
         -4    1    1    2    0  502  0.18096591459E+03  0.29067023369E+03 -0.26978692976E+03  0.43591608650E+03  0.00000000000E+00 0. -1.
</event>
<event>
 5    1  0.6336319E-005  0.9495214E+03  0.7818608E-02  0.8823522E-01
          4   -1    0    0  502    0 -0.00000000000E+00  0.00000000000E+00  0.12199400906E+04  0.12199400906E+04  0.00000000000E+00 0.  1.
         21   -1    0    0  501  502  0.00000000000E+00 -0.00000000000E+00 -0.11610697141E+04  0.11610697141E+04  0.00000000000E+00 0. -1.
        -13    1    1    2    0    0 -0.91258870574E+03  0.33274461951E+03  0.84658461705E+02  0.97504061144E+03  0.10566000000E+00 0.  1.
         13    1    1    2    0    0  0.68598958321E+03 -0.69249846797E+03  0.40867428923E+02  0.97560545013E+03  0.10566000000E+00 0. -1.
          4    1    1    2  501    0  0.22659912253E+03  0.35975384846E+03 -0.66655514151E+02  0.43036374310E+03  0.00000000000E+00 0.  1.
</event>
<event>
 5    1  0.6336319E-005  0.1165491E+03  0.7818608E-02  0.1139750E+00
         -4   -1    0    0    0  501 -0.00000000000E+00  0.00000000000E+00  0.40534294723E+02  0.40534294723E+02  0.00000000000E+00 0. -1.
         21   -1    0    0  501  502  0.00000000000E+00 -0.00000000000E+00 -0.57485151897E+03  0.57485151897E+03  0.00000000000E+00 0.  1.
        -13    1    1    2    0    0  0.11026545794E+03 -0.46469592855E+02 -0.37213346805E+03  0.39089797068E+03  0.10566000000E+00 0.  1.
         13    1    1    2    0    0 -0.88241537139E+02  0.76848010393E+02 -0.13144099330E+03  0.17597991778E+03  0.10566000000E+00 0. -1.
         -4    1    1    2    0  502 -0.22023920804E+02 -0.30378417538E+02 -0.30742762888E+02  0.48507925225E+02  0.00000000000E+00 0. -1.
</event>
<event>
 5    1  0.6336319E-005  0.3714909E+03  0.7818608E-02  0.9815196E-01
         21   -1    0    0  501  502  0.00000000000E+00  0.00000000000E+00  0.41514171795E+03  0.41514171795E+03  0.00000000000E+00 0.  1.
          4   -1    0    0  502    0 -0.00000000000E+00 -0.00000000000E+00 -0.12013783276E+04  0.12013783276E+04  0.00000000000E+00 0.  1.
        -13    1    1    2    0    0 -0.52860692338E+03 -0.32113838843E+03 -0.18066437395E+02  0.61877423290E+03  0.10566000000E+00 0.  1.
         13    1    1    2    0    0  0.23078125492E+03  0.22705920089E+03 -0.36870087332E+03  0.49066914869E+03  0.10566000000E+00 0. -1.
          4    1    1    2  501    0  0.29782566847E+03  0.94079187542E+02 -0.39946929891E+03  0.50707666392E+03  0.00000000000E+00 0.  1.
</event>
<event>
 5    1  0.6336319E-005  0.3048606E+03  0.7818608E-02  0.1007844E+00
          4   -1    0    0  502    0 -0.00000000000E+00  0.00000000000E+00  0.32236707660E+04  0.32236707660E+04  0.00000000000E+00 0.  1.
         21   -1    0    0  501  502  0.00000000000E+00 -0.00000000000E+00 -0.13196363894E+03  0.13196363894E+03  0.00000000000E+00 0.  1.
        -13    1    1    2    0    0 -0.29285643644E+03 -0.42440668558E+03  0.19486707833E+04  0.20157390108E+04  0.10566000000E+00 0.  1.
         13    1    1    2    0    0  0.52636508264E+02  0.27597574114E+03  0.96735512407E+03  0.10073277316E+04  0.10566000000E+00 0. -1.
          4    1    1    2  501    0  0.24021992817E+03  0.14843094445E+03  0.17568121978E+03  0.33256766251E+03  0.00000000000E+00 0.  1.
</event>
<event>
 5    1  0.6336319E-005  0.2378570E+03  0.7818608E-02  0.1036885E+00
         -4   -1    0    0    0  501 -0.00000000000E+00  0.00000000000E+00  0.17310185305E+04  0.17310185305E+04  0.00000000000E+00 0. -1.
         21   -1    0    0  501  502  0.00000000000E+00 -0.00000000000E+00 -0.74945976337E+02  0.74945976337E+02  0.00000000000E+00 0.  1.
        -13    1    1    2    0    0 -0.84273539410E+02  0.20406448874E+03  0.13295173269E+03  0.25772178681E+03  0.10566000000E+00 0.  1.
         13    1    1    2    0    0  0.73251273564E+02 -0.22924693065E+03  0.14552550984E+04  0.14750211242E+04  0.10566000000E+00 0. -1.
         -4    1    1    2    0  502  0.11022265845E+02  0.25182441911E+02  0.67865723071E+02  0.73221595810E+02  0.00000000000E+00 0. -1.
</event>
<event>
 5    1  0.6336319E-005  0.2494302E+03  0.7818608E-02  0.1033217E+00
         21   -1    0    0  501  502  0.00000000000E+00  0.00000000000E+00  0.30398048171E+03  0.30398048171E+03  0.00000000000E+00 0.  1.
          4   -1    0    0  502    0 -0.00000000000E+00 -0.00000000000E+00 -0.22285670714E+04  0.22285670714E+04  0.00000000000E+00 0.  1.
        -13    1    1    2    0    0 -0.54060025702E+02  0.22872375128E+03  0.17245056843E+03  0.29150686183E+03  0.10566000000E+00 0.  1.
         13    1    1    2    0    0 -0.11130841656E+03  0.20212866648E+03 -0.12976124710E+04  0.13179695358E+04  0.10566000000E+00 0. -1.
          4    1    1    2  501    0  0.16536844226E+03 -0.43085241776E+03 -0.79942468719E+03  0.92307115548E+03  0.00000000000E+00 0.  1.
</event>
<event>
 5    1  0.6336319E-005  0.6139413E+02  0.7818608E-02  0.1251298E+00
         -4   -1    0    0    0  501 -0.00000000000E+00  0.00000000000E+00  0.28666231836E+02  0.28666231836E+02  0.00000000000E+00 0. -1.
         21   -1    0    0  501  502  0.00000000000E+00 -0.00000000000E+00 -0.51725303268E+03  0.51725303268E+03  0.00000000000E+00 0.  1.
        -13    1    1    2    0    0  0.46229545117E+02  0.65163775401E+02 -0.28169476252E+03  0.29280614553E+03  0.10566000000E+00 0.  1.
         13    1    1    2    0    0 -0.33072335123E+02 -0.48757053434E+02 -0.15977336769E+02  0.61043558745E+02  0.10566000000E+00 0. -1.
         -4    1    1    2    0  502 -0.13157209994E+02 -0.16406721967E+02 -0.19091470155E+03  0.19206956023E+03  0.00000000000E+00 0. -1.
</event>
<event>
 5    1  0.6336319E-005  0.4782603E+03  0.7818608E-02  0.9772114E-01
         21   -1    0    0  501  502  0.00000000000E+00  0.00000000000E+00  0.94126752336E+03  0.94126752336E+03  0.00000000000E+00 0. -1.
          4   -1    0    0  502    0 -0.00000000000E+00 -0.00000000000E+00 -0.40633137782E+03  0.40633137782E+03  0.00000000000E+00 0.  1.
        -13    1    1    2    0    0  0.13395464232E+03 -0.52492246554E+03  0.55590668825E+03  0.77622142345E+03  0.10566000000E+00 0.  1.
         13    1    1    2    0    0  0.29071882502E+02  0.19961782952E+03  0.30046898464E+02  0.20394920810E+03  0.10566000000E+00 0. -1.
          4    1    1    2  501    0 -0.16302652482E+03  0.32530463602E+03 -0.51017441168E+02  0.36742826962E+03  0.00000000000E+00 0.  1.
</event>
<event>
 5    1  0.6336319E-005  0.3005276E+03  0.7818608E-02  0.1007088E+00
         21   -1    0    0  501  502  0.00000000000E+00  0.00000000000E+00  0.40429642782E+03  0.40429642782E+03  0.00000000000E+00 0.  1.
          4   -1    0    0  502    0 -0.00000000000E+00 -0.00000000000E+00 -0.21339343863E+04  0.21339343863E+04  0.00000000000E+00 0.  1.
        -13    1    1    2    0    0 -0.29514072777E+03 -0.10314311554E+03 -0.17542967290E+04  0.17819381516E+04  0.10566000000E+00 0.  1.
         13    1    1    2    0    0  0.28128192112E+03 -0.11010681709E+03 -0.26123456261E+03  0.39935765698E+03  0.10566000000E+00 0. -1.
          4    1    1    2  501    0  0.13858806649E+02  0.21324993263E+03  0.28589333313E+03  0.35693500559E+03  0.00000000000E+00 0.  1.
</event>
<event>
 5    1  0.6336319E-005  0.2278592E+03  0.7818608E-02  0.1042551E+00
         -4   -1    0    0    0  501 -0.00000000000E+00  0.00000000000E+00  0.10990085142E+04  0.10990085142E+04  0.00000000000E+00 0. -1.
         21   -1    0    0  501  502  0.00000000000E+00 -0.00000000000E+00 -0.42672984330E+03  0.42672984330E+03  0.00000000000E+00 0. -1.
        -13    1    1    2    0    0  0.19000981318E+03 -0.12313358700E+03  0.40521515739E+03  0.46418201634E+03  0.10566000000E+00 0.  1.
         13    1    1    2    0    0 -0.23724902739E+03  0.87575477264E+02 -0.35545324522E+03  0.43623799229E+03  0.10566000000E+00 0. -1.
         -4    1    1    2    0  502  0.47239214206E+02  0.35558109738E+02  0.62251675871E+03  0.62531834884E+03  0.00000000000E+00 0. -1.
</event>
<event>
 5    1  0.6336319E-005  0.5127027E+03  0.7818608E-02  0.1020392E+00
         21   -1    0    0  501  502  0.00000000000E+00  0.00000000000E+00  0.14726950180E+03  0.14726950180E+03  0.00000000000E+00 0.  1.
          4   -1    0    0  502    0 -0.00000000000E+00 -0.00000000000E+00 -0.19836944101E+04  0.19836944101E+04  0.00000000000E+00 0.  1.
        -13    1    1    2    0    0  0.37131155019E+03 -0.37501900566E+03 -0.76985199204E+03  0.93337217803E+03  0.10566000000E+00 0.  1.
         13    1    1    2    0    0 -0.38935492868E+02  0.71748224449E+01 -0.15445068902E+03  0.15944427612E+03  0.10566000000E+00 0. -1.
          4    1    1    2  501    0 -0.33237605732E+03  0.36784418322E+03 -0.91212222721E+03  0.10381474577E+04  0.00000000000E+00 0.  1.
</event>
<event>
 5    1  0.6336319E-005  0.4344462E+03  0.7818608E-02  0.9947292E-01
          4   -1    0    0  502    0 -0.00000000000E+00  0.00000000000E+00  0.17175665126E+04  0.17175665126E+04  0.00000000000E+00 0.  1.
         21   -1    0    0  501  502  0.00000000000E+00 -0.00000000000E+00 -0.26952547223E+03  0.26952547223E+03  0.00000000000E+00 0.  1.
        -13    1    1    2    0    0 -0.20697114856E+03  0.26049696195E+03  0.53157936463E+03  0.62711430823E+03  0.10566000000E+00 0.  1.
         13    1    1    2    0    0 -0.93217934848E+02  0.11630020174E+03  0.86241359138E+03  0.87519856836E+03  0.10566000000E+00 0. -1.
          4    1    1    2  501    0  0.30018908341E+03 -0.37679716369E+03  0.54048084365E+02  0.48477910825E+03  0.00000000000E+00 0.  1.
</event>
<event>
 5    1  0.6336319E-005  0.4700846E+03  0.7818608E-02  0.9699003E-01
         -4   -1    0    0    0  501 -0.00000000000E+00  0.00000000000E+00  0.59050495042E+03  0.59050495042E+03  0.00000000000E+00 0. -1.
         21   -1    0    0  501  502  0.00000000000E+00 -0.00000000000E+00 -0.96370779862E+03  0.96370779862E+03  0.00000000000E+00 0. -1.
        -13    1    1    2    0    0 -0.11254711518E+03 -0.24931597324E+03  0.23084979585E+03  0.35793427757E+03  0.10566000000E+00 0.  1.
         13    1    1    2    0    0  0.12394244593E+03  0.54573062716E+03 -0.68907732651E+03  0.88769996080E+03  0.10566000000E+00 0. -1.
         -4    1    1    2    0  502 -0.11395330741E+02 -0.29641465392E+03  0.85024682463E+02  0.30857851067E+03  0.00000000000E+00 0. -1.
</event>
<event>
 5    1  0.6336319E-005  0.5843007E+03  0.7818608E-02  0.9310186E-01
          4   -1    0    0  502    0 -0.00000000000E+00  0.00000000000E+00  0.15476550853E+04  0.15476550853E+04  0.00000000000E+00 0.  1.
         21   -1    0    0  501  502  0.00000000000E+00 -0.00000000000E+00 -0.50500594835E+03  0.50500594835E+03  0.00000000000E+00 0. -1.
        -13    1    1    2    0    0  0.48904391243E+03  0.62131048422E+03  0.11166978456E+03  0.79853667294E+03  0.10566000000E+00 0.  1.
         13    1    1    2    0    0 -0.42321803378E+03 -0.32038948988E+03  0.62419889710E+03  0.81938220852E+03  0.10566000000E+00 0. -1.
          4    1    1    2  501    0 -0.65825878658E+02 -0.30092099434E+03  0.30678045530E+03  0.43474215219E+03  0.00000000000E+00 0.  1.
</event>
<event>
 5    1  0.6336319E-005  0.4974863E+03  0.7818608E-02  0.9608564E-01
          4   -1    0    0  502    0 -0.00000000000E+00  0.00000000000E+00  0.47423736337E+03  0.47423736337E+03  0.00000000000E+00 0.  1.
         21   -1    0    0  501  502  0.00000000000E+00 -0.00000000000E+00 -0.12859883514E+04  0.12859883514E+04  0.00000000000E+00 0.  1.
        -13    1    1    2    0    0  0.41101214865E+03  0.42902792247E+03 -0.55947502750E+03  0.81609329256E+03  0.10566000000E+00 0.  1.
         13    1    1    2    0    0 -0.31681478875E+03  0.15719603847E+02  0.13709670616E+03  0.34556364727E+03  0.10566000000E+00 0. -1.
          4    1    1    2  501    0 -0.94197359902E+02 -0.44474752632E+03 -0.38937266673E+03  0.59856877497E+03  0.00000000000E+00 0.  1.
</event>
<event>
 5    1  0.6336319E-005  0.2411527E+03  0.7818608E-02  0.1035082E+00
         21   -1    0    0  501  502  0.00000000000E+00  0.00000000000E+00  0.35281901183E+03  0.35281901183E+03  0.00000000000E+00 0.  1.
         -4   -1    0    0    0  501 -0.00000000000E+00 -0.00000000000E+00 -0.20750224855E+03  0.20750224855E+03  0.00000000000E+00 0. -1.
        -13    1    1    2    0    0 -0.21081612171E+03 -0.13735811319E+03  0.15869977268E+03  0.29748330617E+03  0.10566000000E+00 0.  1.
         13    1    1    2    0    0  0.20482598728E+03  0.11811953576E+03 -0.27784045610E+02  0.23807115354E+03  0.10566000000E+00 0. -1.
         -4    1    1    2    0  502  0.59901344311E+01  0.19238577431E+02  0.14401036202E+02  0.24766800677E+02  0.00000000000E+00 0. -1.
</event>
<event>
 5    1  0.6336319E-005  0.3145204E+02  0.7818608E-02  0.1416059E+00
         21   -1    0    0  501  502  0.00000000000E+00  0.00000000000E+00  0.47469221474E+03  0.47469221474E+03  0.00000000000E+00 0. -1.
         -4   -1    0    0    0  501 -0.00000000000E+00 -0.00000000000E+00 -0.80580283563E+02  0.80580283563E+02  0.00000000000E+00 0. -1.
        -13    1    1    2    0    0 -0.17261897046E+02  0.13091093449E+02  0.26825335072E+00  0.21666401206E+02  0.10566000000E+00 0.  1.
         13    1    1    2    0    0  0.48457254735E+02 -0.15771905604E+02 -0.59979238270E+02  0.78704375548E+02  0.10566000000E+00 0. -1.
         -4    1    1    2    0  502 -0.31195357689E+02  0.26808121553E+01  0.45382291609E+03  0.45490172155E+03  0.00000000000E+00 0. -1.
</event>
<event>
 5    1  0.6336319E-005  0.4719296E+03  0.7818608E-02  0.9671434E-01
          4   -1    0    0  502    0 -0.00000000000E+00  0.00000000000E+00  0.27064169392E+04  0.27064169392E+04  0.00000000000E+00 0.  1.
         21   -1    0    0  501  502  0.00000000000E+00 -0.00000000000E+00 -0.16434776544E+03  0.16434776544E+03  0.00000000000E+00 0.  1.
        -13    1    1    2    0    0  0.22746251197E+03  0.29772181114E+03  0.13856225372E+04  0.14353840245E+04  0.10566000000E+00 0.  1.
         13    1    1    2    0    0 -0.16916511341E+03  0.24493790025E+03  0.49752531441E+03  0.57977828539E+03  0.10566000000E+00 0. -1.
          4    1    1    2  501    0 -0.58297398561E+02 -0.54265971139E+03  0.65892132221E+03  0.85560239475E+03  0.00000000000E+00 0.  1.
</event>
<event>
 5    1  0.6336319E-005  0.5026687E+03  0.7818608E-02  0.9577604E-01
         -4   -1    0    0    0  501 -0.00000000000E+00  0.00000000000E+00  0.53891373788E+03  0.53891373788E+03  0.00000000000E+00 0. -1.
         21   -1    0    0  501  502  0.00000000000E+00 -0.00000000000E+00 -0.12091002130E+04  0.12091002130E+04  0.00000000000E+00 0. -1.
        -13    1    1    2    0    0  0.75913557979E+02 -0.33485495361E+03  0.17959542747E+03  0.38748578938E+03  0.10566000000E+00 0.  1.
         13    1    1    2    0    0  0.46363489183E+03  0.15011930476E+03 -0.32700716367E+03  0.58687887578E+03  0.10566000000E+00 0. -1.
         -4    1    1    2    0  502 -0.53954844980E+03  0.18473564884E+03 -0.52277473891E+03  0.77364928571E+03  0.00000000000E+00 0. -1.
</event>
<event>
 5    1  0.6336319E-005  0.6839664E+03  0.7818608E-02  0.9146567E-01
         21   -1    0    0  501  502  0.00000000000E+00  0.00000000000E+00  0.48773054646E+03  0.48773054646E+03  0.00000000000E+00 0.  1.
         -4   -1    0    0    0  501 -0.00000000000E+00 -0.00000000000E+00 -0.26754839534E+04  0.26754839534E+04  0.00000000000E+00 0. -1.
        -13    1    1    2    0    0  0.55906020905E+03  0.44829234586E+03 -0.16883479917E+04  0.18341301199E+04  0.10566000000E+00 0.  1.
         13    1    1    2    0    0 -0.13417785668E+03 -0.66122057979E+03 -0.52538423462E+02  0.67673972062E+03  0.10566000000E+00 0. -1.
         -4    1    1    2    0  502 -0.42488235237E+03  0.21292823393E+03 -0.44686699184E+03  0.65234465933E+03  0.00000000000E+00 0. -1.
</event>
<event>
 5    1  0.6336319E-005  0.2545511E+03  0.7818608E-02  0.1028061E+00
         -4   -1    0    0    0  501 -0.00000000000E+00  0.00000000000E+00  0.14695036065E+04  0.14695036065E+04  0.00000000000E+00 0. -1.
         21   -1    0    0  501  502  0.00000000000E+00 -0.00000000000E+00 -0.10593858886E+03  0.10593858886E+03  0.00000000000E+00 0. -1.
        -13    1    1    2    0    0  0.15112556257E+03  0.21921243569E+03  0.75133739603E+03  0.79712039332E+03  0.10566000000E+00 0.  1.
         13    1    1    2    0    0 -0.27247985809E+03 -0.64950742291E+02  0.40958248070E+03  0.49620730713E+03  0.10566000000E+00 0. -1.
         -4    1    1    2    0  502  0.12135429552E+03 -0.15426169339E+03  0.20264514087E+03  0.28211449486E+03  0.00000000000E+00 0. -1.
</event>
<event>
 5    1  0.6336319E-005  0.4643054E+03  0.7818608E-02  0.9806396E-01
          4   -1    0    0  502    0 -0.00000000000E+00  0.00000000000E+00  0.53110046466E+03  0.53110046466E+03  0.00000000000E+00 0.  1.
         21   -1    0    0  501  502  0.00000000000E+00 -0.00000000000E+00 -0.75888561590E+03  0.75888561590E+03  0.00000000000E+00 0.  1.
        -13    1    1    2    0    0  0.50655116045E+03 -0.41517579845E+01 -0.44160760080E+03  0.67203318333E+03  0.10566000000E+00 0.  1.
         13    1    1    2    0    0 -0.14723555776E+03 -0.12947314339E+03  0.82662802877E+02  0.21277865135E+03  0.10566000000E+00 0. -1.
          4    1    1    2  501    0 -0.35931560269E+03  0.13362490137E+03  0.13115964669E+03  0.40517424587E+03  0.00000000000E+00 0.  1.
</event>
<event>
 5    1  0.6336319E-005  0.1683142E+03  0.7818608E-02  0.1084332E+00
         21   -1    0    0  501  502  0.00000000000E+00  0.00000000000E+00  0.16709038468E+03  0.16709038468E+03  0.00000000000E+00 0. -1.
         -4   -1    0    0    0  501 -0.00000000000E+00 -0.00000000000E+00 -0.55111460112E+03  0.55111460112E+03  0.00000000000E+00 0. -1.
        -13    1    1    2    0    0 -0.99340032239E+02 -0.15229954299E+03 -0.21963623651E+03  0.28513800229E+03  0.10566000000E+00 0.  1.
         13    1    1    2    0    0  0.98239686755E+02  0.12591055940E+03 -0.27572730028E+03  0.31863781996E+03  0.10566000000E+00 0. -1.
         -4    1    1    2    0  502  0.11003454836E+01  0.26388983584E+02  0.11133932035E+03  0.11442916355E+03  0.00000000000E+00 0. -1.
</event>
<event>
 5    1  0.6336319E-005  0.4467941E+03  0.7818608E-02  0.9906860E-01
          4   -1    0    0  502    0 -0.00000000000E+00  0.00000000000E+00  0.10028466514E+04  0.10028466514E+04  0.00000000000E+00 0.  1.
         21   -1    0    0  501  502  0.00000000000E+00 -0.00000000000E+00 -0.34977858091E+03  0.34977858091E+03  0.00000000000E+00 0.  1.
        -13    1    1    2    0    0 -0.42610385475E+03 -0.18516796290E+03 -0.22552110493E+02  0.46514543787E+03  0.10566000000E+00 0.  1.
         13    1    1    2    0    0  0.98256450071E+01  0.15645003951E+03  0.15732129663E+03  0.22208818001E+03  0.10566000000E+00 0. -1.
          4    1    1    2  501    0  0.41627820974E+03  0.28717923387E+02  0.51829888436E+03  0.66539161443E+03  0.00000000000E+00 0.  1.
</event>
<event>
 5    1  0.6336319E-005  0.7988204E+03  0.7818608E-02  0.8990782E-01
         21   -1    0    0  501  502  0.00000000000E+00  0.00000000000E+00  0.77790074759E+03  0.77790074759E+03  0.00000000000E+00 0.  1.
         -4   -1    0    0    0  501 -0.00000000000E+00 -0.00000000000E+00 -0.13464440865E+04  0.13464440865E+04  0.00000000000E+00 0. -1.
        -13    1    1    2    0    0  0.13904196805E+03 -0.73250959702E+03 -0.45342613457E+03  0.87263867052E+03  0.10566000000E+00 0.  1.
         13    1    1    2    0    0  0.10673056788E+03  0.91294063563E+03 -0.18808275502E+03  0.93820421668E+03  0.10566000000E+00 0. -1.
         -4    1    1    2    0  502 -0.24577253593E+03 -0.18043103861E+03  0.72965550694E+02  0.31350194689E+03  0.00000000000E+00 0. -1.
</event>
<event>
 5    1  0.6336319E-005  0.5236629E+03  0.7818608E-02  0.9427563E-01
         21   -1    0    0  501  502  0.00000000000E+00  0.00000000000E+00  0.19924901141E+03  0.19924901141E+03  0.00000000000E+00 0. -1.
          4   -1    0    0  502    0 -0.00000000000E+00 -0.00000000000E+00 -0.30327387978E+04  0.30327387978E+04  0.00000000000E+00 0.  1.
        -13    1    1    2    0    0  0.25106805000E+03  0.51871703202E+03 -0.20049178784E+04  0.20860964108E+04  0.10566000000E+00 0.  1.
         13    1    1    2    0    0 -0.30209012319E+03 -0.34543255014E+03 -0.84800755871E+03  0.96420896077E+03  0.10566000000E+00 0. -1.
          4    1    1    2  501    0  0.51022073189E+02 -0.17328448188E+03  0.19435650717E+02  0.18168243760E+03  0.00000000000E+00 0.  1.
</event>
<event>
 5    1  0.6336319E-005  0.4798165E+03  0.7818608E-02  0.9805281E-01
          4   -1    0    0  502    0 -0.00000000000E+00  0.00000000000E+00  0.89702000088E+03  0.89702000088E+03  0.00000000000E+00 0.  1.
         21   -1    0    0  501  502  0.00000000000E+00 -0.00000000000E+00 -0.63746813483E+03  0.63746813483E+03  0.00000000000E+00 0.  1.
        -13    1    1    2    0    0 -0.51506652170E+03  0.25527484031E+03 -0.10543157601E+03  0.58444383328E+03  0.10566000000E+00 0.  1.
         13    1    1    2    0    0  0.17827565554E+03 -0.46272626485E+01  0.48223521299E+03  0.51415409435E+03  0.10566000000E+00 0. -1.
          4    1    1    2  501    0  0.33679086617E+03 -0.25064757766E+03 -0.11725177093E+03  0.43589020809E+03  0.00000000000E+00 0.  1.
</event>
<event>
 5    1  0.6336319E-005  0.7328155E+02  0.7818608E-02  0.1218372E+00
         21   -1    0    0  501  502  0.00000000000E+00  0.00000000000E+00  0.23055433340E+03  0.23055433340E+03  0.00000000000E+00 0. -1.
         -4   -1    0    0    0  501 -0.00000000000E+00 -0.00000000000E+00 -0.60654383060E+02  0.60654383060E+02  0.00000000000E+00 0. -1.
        -13    1    1    2    0    0  0.31597632142E+02 -0.60082909526E+02  0.13869833045E+02  0.69287443356E+02  0.10566000000E+00 0.  1.
         13    1    1    2    0    0 -0.15556128706E+02  0.80471252873E+02  0.21255357066E+02  0.84672410189E+02  0.10566000000E+00 0. -1.
         -4    1    1    2    0  502 -0.16041503435E+02 -0.20388343346E+02  0.13477476023E+03  0.13724886292E+03  0.00000000000E+00 0. -1.
</event>
<event>
 5    1  0.6336319E-005  0.4236927E+03  0.7818608E-02  0.9836766E-01
         -4   -1    0    0    0  501 -0.00000000000E+00  0.00000000000E+00  0.86500610649E+03  0.86500610649E+03  0.00000000000E+00 0. -1.
         21   -1    0    0  501  502  0.00000000000E+00 -0.00000000000E+00 -0.46624151291E+03  0.46624151291E+03  0.00000000000E+00 0.  1.
        -13    1    1    2    0    0  0.22964797406E+03  0.37664546082E+02  0.42732620497E+02  0.23660705408E+03  0.10566000000E+00 0.  1.
         13    1    1    2    0    0 -0.76480621120E+02  0.38252506089E+03  0.49135646762E+03  0.62738018541E+03  0.10566000000E+00 0. -1.
         -4    1    1    2    0  502 -0.15316735294E+03 -0.42018960697E+03 -0.13532449453E+03  0.46726037991E+03  0.00000000000E+00 0. -1.
</event>
<event>
 5    1  0.6336319E-005  0.5001847E+03  0.7818608E-02  0.9620244E-01
         21   -1    0    0  501  502  0.00000000000E+00  0.00000000000E+00  0.33327879457E+03  0.33327879457E+03  0.00000000000E+00 0. -1.
         -4   -1    0    0    0  501 -0.00000000000E+00 -0.00000000000E+00 -0.20769299824E+04  0.20769299824E+04  0.00000000000E+00 0. -1.
        -13    1    1    2    0    0  0.29683326893E+03  0.39382708589E+02 -0.11913005832E+04  0.12283558434E+04  0.10566000000E+00 0.  1.
         13    1    1    2    0    0 -0.40659024000E+03  0.40616950783E+03 -0.22048570753E+03  0.61555117638E+03  0.10566000000E+00 0. -1.
         -4    1    1    2    0  502  0.10975697107E+03 -0.44555221641E+03 -0.33186489702E+03  0.56630175713E+03  0.00000000000E+00 0. -1.
</event>
<event>
 5    1  0.6336319E-005  0.4267877E+03  0.7818608E-02  0.1011663E+00
         21   -1    0    0  501  502  0.00000000000E+00  0.00000000000E+00  0.88734010471E+03  0.88734010471E+03  0.00000000000E+00 0.  1.
          4   -1    0    0  502    0 -0.00000000000E+00 -0.00000000000E+00 -0.35999395715E+03  0.35999395715E+03  0.00000000000E+00 0.  1.
        -13    1    1    2    0    0 -0.18584204321E+03 -0.36694654794E+03  0.52441751939E+03  0.66648389319E+03  0.10566000000E+00 0.  1.
         13    1    1    2    0    0  0.32012156862E+02 -0.84721743784E+02 -0.45314845440E+02  0.10127190350E+03  0.10566000000E+00 0. -1.
          4    1    1    2  501    0  0.15382988635E+03  0.45166829172E+03  0.48243473602E+02  0.47957826517E+03  0.00000000000E+00 0.  1.
</event>
<event>
 5    1  0.6336319E-005  0.2570118E+03  0.7818608E-02  0.1026822E+00
         21   -1    0    0  501  502  0.00000000000E+00  0.00000000000E+00  0.34774900250E+03  0.34774900250E+03  0.00000000000E+00 0.  1.
          4   -1    0    0  502    0 -0.00000000000E+00 -0.00000000000E+00 -0.18239127648E+04  0.18239127648E+04  0.00000000000E+00 0.  1.
        -13    1    1    2    0    0  0.17992574374E+03 -0.21309204331E+03 -0.29737335600E+03  0.40769156995E+03  0.10566000000E+00 0.  1.
         13    1    1    2    0    0 -0.22720489553E+03  0.11811241762E+03 -0.14501613263E+04  0.14725965134E+04  0.10566000000E+00 0. -1.
          4    1    1    2  501    0  0.47279151795E+02  0.94979625692E+02  0.27137092000E+03  0.29137368397E+03  0.00000000000E+00 0.  1.
</event>
<event>
 5    1  0.6336319E-005  0.4158347E+02  0.7818608E-02  0.1330443E+00
         21   -1    0    0  501  502  0.00000000000E+00  0.00000000000E+00  0.12741197072E+03  0.12741197072E+03  0.00000000000E+00 0. -1.
         -4   -1    0    0    0  501 -0.00000000000E+00 -0.00000000000E+00 -0.74199389926E+02  0.74199389926E+02  0.00000000000E+00 0. -1.
        -13    1    1    2    0    0  0.14239393815E+02  0.27131370397E+02  0.42835112195E+02  0.52666209249E+02  0.10566000000E+00 0.  1.
         13    1    1    2    0    0 -0.10052238213E+02 -0.42089630575E+02 -0.61616789275E+02  0.75294251969E+02  0.10566000000E+00 0. -1.
         -4    1    1    2    0  502 -0.41871556016E+01  0.14958260177E+02  0.71994257874E+02  0.73650899427E+02  0.00000000000E+00 0. -1.
</event>
<event>
 5    1  0.6336319E-005  0.8404536E+02  0.7818608E-02  0.1202368E+00
         21   -1    0    0  501  502  0.00000000000E+00  0.00000000000E+00  0.32121077221E+03  0.32121077221E+03  0.00000000000E+00 0.  1.
          4   -1    0    0  502    0 -0.00000000000E+00 -0.00000000000E+00 -0.67346858670E+02  0.67346858670E+02  0.00000000000E+00 0.  1.
        -13    1    1    2    0    0  0.14629821179E+02  0.13656616326E+03  0.90563724548E+02  0.16451792602E+03  0.10566000000E+00 0.  1.
         13    1    1    2    0    0  0.79439220729E+01 -0.69046575856E+02  0.36213765712E+02  0.78370807872E+02  0.10566000000E+00 0. -1.
          4    1    1    2  501    0 -0.22573743252E+02 -0.67519587400E+02  0.12708642328E+03  0.14566889698E+03  0.00000000000E+00 0.  1.
</event>
<event>
 5    1  0.6336319E-005  0.4932402E+03  0.7818608E-02  0.9886662E-01
         -4   -1    0    0    0  501 -0.00000000000E+00  0.00000000000E+00  0.16210410669E+04  0.16210410669E+04  0.00000000000E+00 0. -1.
         21   -1    0    0  501  502  0.00000000000E+00 -0.00000000000E+00 -0.26904971968E+03  0.26904971968E+03  0.00000000000E+00 0. -1.
        -13    1    1    2    0    0 -0.76153690289E+02  0.98700452100E+02  0.64802138270E+03  0.65990369554E+03  0.10566000000E+00 0.  1.
         13    1    1    2    0    0  0.52374649190E+03 -0.82904550649E+01  0.23014339734E+03  0.57214081652E+03  0.10566000000E+00 0. -1.
         -4    1    1    2    0  502 -0.44759280161E+03 -0.90409997035E+02  0.47382656714E+03  0.65804627447E+03  0.00000000000E+00 0. -1.
</event>
<event>
 5    1  0.6336319E-005  0.3933900E+03  0.7818608E-02  0.9754442E-01
         -4   -1    0    0    0  501 -0.00000000000E+00  0.00000000000E+00  0.20509421743E+04  0.20509421743E+04  0.00000000000E+00 0. -1.
         21   -1    0    0  501  502  0.00000000000E+00 -0.00000000000E+00 -0.21518935302E+03  0.21518935302E+03  0.00000000000E+00 0.  1.
        -13    1    1    2    0    0 -0.13588069566E+03  0.36042764672E+03  0.27666139322E+03  0.47425013403E+03  0.10566000000E+00 0.  1.
         13    1    1    2    0    0  0.44252869355E+03 -0.58919822529E+02  0.90432971121E+03  0.10085214067E+04  0.10566000000E+00 0. -1.
         -4    1    1    2    0  502 -0.30664799789E+03 -0.30150782419E+03  0.65476171683E+03  0.78335998652E+03  0.00000000000E+00 0. -1.
</event>
<event>
 5    1  0.6336319E-005  0.4302929E+03  0.7818608E-02  0.9677957E-01
         21   -1    0    0  501  502  0.00000000000E+00  0.00000000000E+00  0.66706737017E+03  0.66706737017E+03  0.00000000000E+00 0.  1.
          4   -1    0    0  502    0 -0.00000000000E+00 -0.00000000000E+00 -0.24584201133E+04  0.24584201133E+04  0.00000000000E+00 0.  1.
        -13    1    1    2    0    0 -0.32816504483E+03 -0.74765611927E+02  0.15287121292E+03  0.36966445904E+03  0.10566000000E+00 0.  1.
         13    1    1    2    0    0 -0.36494321971E+03 -0.11899682096E+03 -0.19976170020E+04  0.20341626029E+04  0.10566000000E+00 0. -1.
          4    1    1    2  501    0  0.69310826454E+03  0.19376243288E+03  0.53393045908E+02  0.72166042161E+03  0.00000000000E+00 0.  1.
</event>
<event>
 5    1  0.6336319E-005  0.3099249E+03  0.7818608E-02  0.1009842E+00
         21   -1    0    0  501  502  0.00000000000E+00  0.00000000000E+00  0.45394701726E+03  0.45394701726E+03  0.00000000000E+00 0.  1.
          4   -1    0    0  502    0 -0.00000000000E+00 -0.00000000000E+00 -0.10744171100E+04  0.10744171100E+04  0.00000000000E+00 0.  1.
        -13    1    1    2    0    0 -0.22539347499E+03  0.34615305817E+03 -0.49319125031E+03  0.64332089877E+03  0.10566000000E+00 0.  1.
         13    1    1    2    0    0 -0.62932333158E+02 -0.24271070537E+03 -0.40186279791E+03  0.47366938319E+03  0.10566000000E+00 0. -1.
          4    1    1    2  501    0  0.28832580815E+03 -0.10344235280E+03  0.27458395548E+03  0.41137384531E+03  0.00000000000E+00 0.  1.
</event>
<event>
 5    1  0.6336319E-005  0.3694757E+03  0.7818608E-02  0.9821593E-01
         21   -1    0    0  501  502  0.00000000000E+00  0.00000000000E+00  0.22150570070E+03  0.22150570070E+03  0.00000000000E+00 0.  1.
          4   -1    0    0  502    0 -0.00000000000E+00 -0.00000000000E+00 -0.30617823252E+04  0.30617823252E+04  0.00000000000E+00 0.  1.
        -13    1    1    2    0    0  0.30387152924E+03  0.35771621031E+03 -0.93583549219E+02  0.47859866825E+03  0.10566000000E+00 0.  1.
         13    1    1    2    0    0 -0.32724487241E+03 -0.15686766458E+03 -0.16394592298E+04  0.16791436055E+04  0.10566000000E+00 0. -1.
          4    1    1    2  501    0  0.23373343172E+02 -0.20084854573E+03 -0.11072338455E+04  0.11255457521E+04  0.00000000000E+00 0.  1.
</event>
<event>
 5    1  0.6336319E-005  0.9831150E+02  0.7818608E-02  0.1167380E+00
         21   -1    0    0  501  502  0.00000000000E+00  0.00000000000E+00  0.11294146933E+03  0.11294146933E+03  0.00000000000E+00 0.  1.
         -4   -1    0    0    0  501 -0.00000000000E+00 -0.00000000000E+00 -0.25735018859E+03  0.25735018859E+03  0.00000000000E+00 0. -1.
        -13    1    1    2    0    0  0.38427764306E+01 -0.10069225535E+03  0.40744543150E+01  0.10084795268E+03  0.10566000000E+00 0.  1.
         13    1    1    2    0    0  0.54091105936E+02  0.85715928456E+02 -0.17637532954E+03  0.20342403045E+03  0.10566000000E+00 0. -1.
         -4    1    1    2    0  502 -0.57933882367E+02  0.14976326895E+02  0.27892155964E+02  0.66019674777E+02  0.00000000000E+00 0. -1.
</event>
<event>
 5    1  0.6336319E-005  0.7093898E+02  0.7818608E-02  0.1224285E+00
         -4   -1    0    0    0  501 -0.00000000000E+00  0.00000000000E+00  0.15501501730E+03  0.15501501730E+03  0.00000000000E+00 0. -1.
         21   -1    0    0  501  502  0.00000000000E+00 -0.00000000000E+00 -0.50015863522E+02  0.50015863522E+02  0.00000000000E+00 0.  1.
        -13    1    1    2    0    0  0.73376881332E+02  0.28384670633E+02  0.59424788321E+02  0.98596008397E+02  0.10566000000E+00 0.  1.
         13    1    1    2    0    0 -0.61942433960E+02 -0.20413937285E+02  0.58361496663E+02  0.87519537345E+02  0.10566000000E+00 0. -1.
         -4    1    1    2    0  502 -0.11434447372E+02 -0.79707333479E+01 -0.12787131204E+02  0.18915335081E+02  0.00000000000E+00 0. -1.
</event>
<event>
 5    1  0.6336319E-005  0.3526189E+03  0.7818608E-02  0.9876853E-01
         -4   -1    0    0    0  501 -0.00000000000E+00  0.00000000000E+00  0.41634594161E+03  0.41634594161E+03  0.00000000000E+00 0. -1.
         21   -1    0    0  501  502  0.00000000000E+00 -0.00000000000E+00 -0.39920928773E+03  0.39920928773E+03  0.00000000000E+00 0.  1.
        -13    1    1    2    0    0  0.44992980877E+02 -0.32747632130E+03 -0.65593542986E+01  0.33061782413E+03  0.10566000000E+00 0.  1.
         13    1    1    2    0    0 -0.13091145415E+03  0.35368021265E+03  0.70478140128E+02  0.38365959006E+03  0.10566000000E+00 0. -1.
         -4    1    1    2    0  502  0.85918473271E+02 -0.26203891353E+02 -0.46782131947E+02  0.10127781515E+03  0.00000000000E+00 0. -1.
</event>
<event>
 5    1  0.6336319E-005  0.4203484E+03  0.7818608E-02  0.9672052E-01
         -4   -1    0    0    0  501 -0.00000000000E+00  0.00000000000E+00  0.62340180297E+03  0.62340180297E+03  0.00000000000E+00 0. -1.
         21   -1    0    0  501  502  0.00000000000E+00 -0.00000000000E+00 -0.39548136046E+03  0.39548136046E+03  0.00000000000E+00 0.  1.
        -13    1    1    2    0    0 -0.37239129176E+03  0.17318523785E+03 -0.72384080762E+01  0.41075638340E+03  0.10566000000E+00 0.  1.
         13    1    1    2    0    0  0.40293868380E+03 -0.13879312042E+03  0.30530280773E+03  0.52424510369E+03  0.10566000000E+00 0. -1.
         -4    1    1    2    0  502 -0.30547392033E+02 -0.34392117428E+02 -0.70143957144E+02  0.83881676337E+02  0.00000000000E+00 0. -1.
</event>
<event>
 5    1  0.6336319E-005  0.4900341E+03  0.7818608E-02  0.9573256E-01
         -4   -1    0    0    0  501 -0.00000000000E+00  0.00000000000E+00  0.12482328781E+04  0.12482328781E+04  0.00000000000E+00 0. -1.
         21   -1    0    0  501  502  0.00000000000E+00 -0.00000000000E+00 -0.49756213917E+03  0.49756213917E+03  0.00000000000E+00 0. -1.
        -13    1    1    2    0    0 -0.18672068079E+03  0.32683038795E+03  0.53263412271E+03  0.65221302882E+03  0.10566000000E+00 0.  1.
         13    1    1    2    0    0  0.13321982964E+03  0.29122136878E+03  0.33372345253E+03  0.46252433728E+03  0.10566000000E+00 0. -1.
         -4    1    1    2    0  502  0.53500851149E+02 -0.61805175673E+03 -0.11568683626E+03  0.63105765121E+03  0.00000000000E+00 0. -1.
</event>
<event>
 5    1  0.6336319E-005  0.5712847E+03  0.7818608E-02  0.9334079E-01
         21   -1    0    0  501  502  0.00000000000E+00  0.00000000000E+00  0.32953296359E+03  0.32953296359E+03  0.00000000000E+00 0. -1.
         -4   -1    0    0    0  501 -0.00000000000E+00 -0.00000000000E+00 -0.20194710316E+04  0.20194710316E+04  0.00000000000E+00 0. -1.
        -13    1    1    2    0    0 -0.45816817494E+03  0.20095394191E+03 -0.68757903643E+03  0.85033258540E+03  0.10566000000E+00 0.  1.
         13    1    1    2    0    0  0.51040568366E+03 -0.43171452305E+03 -0.10618039882E+04  0.12547187382E+04  0.10566000000E+00 0. -1.
         -4    1    1    2    0  502 -0.52237508724E+02  0.23076058114E+03  0.59444956634E+02  0.24395267163E+03  0.00000000000E+00 0. -1.
</event>
<event>
 5    1  0.6336319E-005  0.9489736E+02  0.7818608E-02  0.1173286E+00
         21   -1    0    0  501  502  0.00000000000E+00  0.00000000000E+00  0.22599210341E+03  0.22599210341E+03  0.00000000000E+00 0.  1.
          4   -1    0    0  502    0 -0.00000000000E+00 -0.00000000000E+00 -0.92139914744E+02  0.92139914744E+02  0.00000000000E+00 0.  1.
        -13    1    1    2    0    0 -0.74165200419E+02  0.72085127083E+02 -0.27536692461E+02  0.10702814161E+03  0.10566000000E+00 0.  1.
         13    1    1    2    0    0  0.52778178985E+02 -0.60655861321E+02  0.44844865219E+02  0.92063797392E+02  0.10566000000E+00 0. -1.
          4    1    1    2  501    0  0.21387021434E+02 -0.11429265762E+02  0.11654401591E+03  0.11904007916E+03  0.00000000000E+00 0.  1.
</event>
<event>
 5    1  0.6336319E-005  0.2919327E+03  0.7818608E-02  0.1026963E+00
         21   -1    0    0  501  502  0.00000000000E+00  0.00000000000E+00  0.17942237530E+03  0.17942237530E+03  0.00000000000E+00 0. -1.
         -4   -1    0    0    0  501 -0.00000000000E+00 -0.00000000000E+00 -0.25008216945E+04  0.25008216945E+04  0.00000000000E+00 0. -1.
        -13    1    1    2    0    0  0.51764181693E+02 -0.16675387864E+03 -0.98502119820E+03  0.10003765084E+04  0.10566000000E+00 0.  1.
         13    1    1    2    0    0 -0.32319916987E+03  0.56839442070E+02 -0.13474291240E+04  0.13868142201E+04  0.10566000000E+00 0. -1.
         -4    1    1    2    0  502  0.27143498817E+03  0.10991443657E+03  0.11051003034E+02  0.29305334129E+03  0.00000000000E+00 0. -1.
</event>
<event>
 5    1  0.6336319E-005  0.1650080E+03  0.7818608E-02  0.1087185E+00
         21   -1    0    0  501  502  0.00000000000E+00  0.00000000000E+00  0.86190796237E+02  0.86190796237E+02  0.00000000000E+00 0.  1.
          4   -1    0    0  502    0 -0.00000000000E+00 -0.00000000000E+00 -0.95445106082E+03  0.95445106082E+03  0.00000000000E+00 0.  1.
        -13    1    1    2    0    0 -0.39959550568E+02  0.15681746882E+03 -0.39038201194E+03  0.42259509063E+03  0.10566000000E+00 0.  1.
         13    1    1    2    0    0  0.53822339683E+02 -0.15889537380E+03 -0.53424334376E+03  0.55996477173E+03  0.10566000000E+00 0. -1.
          4    1    1    2  501    0 -0.13862789115E+02  0.20779049742E+01  0.56365091121E+02  0.58081994699E+02  0.00000000000E+00 0.  1.
</event>
<event>
 5    1  0.6336319E-005  0.2552863E+02  0.7818608E-02  0.1471186E+00
          4   -1    0    0  502    0 -0.00000000000E+00  0.00000000000E+00  0.43448107446E+02  0.43448107446E+02  0.00000000000E+00 0.  1.
         21   -1    0    0  501  502  0.00000000000E+00 -0.00000000000E+00 -0.17958777117E+03  0.17958777117E+03  0.00000000000E+00 0.  1.
        -13    1    1    2    0    0  0.15764860783E+02 -0.51882299101E+01  0.39144596380E+02  0.42517751056E+02  0.10566000000E+00 0.  1.
         13    1    1    2    0    0 -0.20590691457E+01 -0.16891417322E+02 -0.62155054847E+02  0.64442390955E+02  0.10566000000E+00 0. -1.
          4    1    1    2  501    0 -0.13705791637E+02  0.22079647232E+02 -0.11312920525E+03  0.11607573660E+03  0.00000000000E+00 0.  1.
</event>
<event>
 5    1  0.6336319E-005  0.3729440E+03  0.7818608E-02  0.9853738E-01
         21   -1    0    0  501  502  0.00000000000E+00  0.00000000000E+00  0.11945887449E+04  0.11945887449E+04  0.00000000000E+00 0. -1.
         -4   -1    0    0    0  501 -0.00000000000E+00 -0.00000000000E+00 -0.41477260777E+03  0.41477260777E+03  0.00000000000E+00 0. -1.
        -13    1    1    2    0    0  0.21809820152E+03  0.23714952691E+03  0.40010043483E+03  0.51369941866E+03  0.10566000000E+00 0.  1.
         13    1    1    2    0    0 -0.79099117654E+02 -0.55425394248E+03 -0.28248353334E+02  0.56058191533E+03  0.10566000000E+00 0. -1.
         -4    1    1    2    0  502 -0.13899908386E+03  0.31710441557E+03  0.40796405561E+03  0.53508001865E+03  0.00000000000E+00 0. -1.
</event>
<event>
 5    1  0.6336319E-005  0.7805198E+02  0.7818608E-02  0.1221932E+00
          4   -1    0    0  502    0 -0.00000000000E+00  0.00000000000E+00  0.11502579925E+03  0.11502579925E+03  0.00000000000E+00 0.  1.
         21   -1    0    0  501  502  0.00000000000E+00 -0.00000000000E+00 -0.37692212662E+03  0.37692212662E+03  0.00000000000E+00 0.  1.
        -13    1    1    2    0    0  0.44381360005E+02  0.34456538334E+02  0.80047415073E+02  0.97798558137E+02  0.10566000000E+00 0.  1.
         13    1    1    2    0    0  0.78019568877E+01 -0.92499737131E+02 -0.85905882970E+02  0.12647886698E+03  0.10566000000E+00 0. -1.
          4    1    1    2  501    0 -0.52183316892E+02  0.58043198797E+02 -0.25603785947E+03  0.26767050075E+03  0.00000000000E+00 0.  1.
</event>
<event>
 5    1  0.6336319E-005  0.4986979E+03  0.7818608E-02  0.9742071E-01
          4   -1    0    0  502    0 -0.00000000000E+00  0.00000000000E+00  0.95822091435E+03  0.95822091435E+03  0.00000000000E+00 0.  1.
         21   -1    0    0  501  502  0.00000000000E+00 -0.00000000000E+00 -0.39428625658E+03  0.39428625658E+03  0.00000000000E+00 0.  1.
        -13    1    1    2    0    0 -0.42836612742E+03 -0.49836244906E+02  0.31503927454E+03  0.53407016963E+03  0.10566000000E+00 0.  1.
         13    1    1    2    0    0 -0.14015303091E+03  0.13889344654E+03  0.17109283480E+02  0.19805807308E+03  0.10566000000E+00 0. -1.
          4    1    1    2  501    0  0.56851915833E+03 -0.89057201637E+02  0.23178609976E+03  0.62037892823E+03  0.00000000000E+00 0.  1.
</event>
<event>
 5    1  0.6336319E-005  0.1989526E+03  0.7818608E-02  0.1060856E+00
         21   -1    0    0  501  502  0.00000000000E+00  0.00000000000E+00  0.69740251513E+03  0.69740251513E+03  0.00000000000E+00 0. -1.
          4   -1    0    0  502    0 -0.00000000000E+00 -0.00000000000E+00 -0.28642360363E+03  0.28642360363E+03  0.00000000000E+00 0.  1.
        -13    1    1    2    0    0  0.17520691864E+03  0.81197987484E+02 -0.19054798320E+03  0.27129158221E+03  0.10566000000E+00 0.  1.
         13    1    1    2    0    0 -0.24639031477E+03 -0.13427386711E+03  0.52513515442E+03  0.59540288895E+03  0.10566000000E+00 0. -1.
          4    1    1    2  501    0  0.71183396134E+02  0.53075879629E+02  0.76391740288E+02  0.11713164759E+03  0.00000000000E+00 0.  1.
</event>
<event>
 5    1  0.6336319E-005  0.1183941E+03  0.7818608E-02  0.1137267E+00
         21   -1    0    0  501  502  0.00000000000E+00  0.00000000000E+00  0.27151173375E+03  0.27151173375E+03  0.00000000000E+00 0. -1.
          4   -1    0    0  502    0 -0.00000000000E+00 -0.00000000000E+00 -0.14934771151E+03  0.14934771151E+03  0.00000000000E+00 0.  1.
        -13    1    1    2    0    0 -0.50123511579E+02 -0.11115985152E+03  0.64557851582E+02  0.13797320888E+03  0.10566000000E+00 0.  1.
         13    1    1    2    0    0  0.62895418082E+02  0.99360537510E+02 -0.81257891601E+02  0.14293777017E+03  0.10566000000E+00 0. -1.
          4    1    1    2  501    0 -0.12771906503E+02  0.11799314011E+02  0.13886406226E+03  0.13994846621E+03  0.00000000000E+00 0.  1.
</event>
<event>
 5    1  0.6336319E-005  0.3680888E+03  0.7818608E-02  0.9826021E-01
          4   -1    0    0  502    0 -0.00000000000E+00  0.00000000000E+00  0.64792748860E+03  0.64792748860E+03  0.00000000000E+00 0.  1.
         21   -1    0    0  501  502  0.00000000000E+00 -0.00000000000E+00 -0.83490733686E+03  0.83490733686E+03  0.00000000000E+00 0.  1.
        -13    1    1    2    0    0 -0.28340415187E+03  0.33043378815E+03  0.23281267356E+03  0.49366603467E+03  0.10566000000E+00 0.  1.
         13    1    1    2    0    0  0.13994919021E+03 -0.29269268308E+03  0.18019718259E+03  0.37111429283E+03  0.10566000000E+00 0. -1.
          4    1    1    2  501    0  0.14345496166E+03 -0.37741105076E+02 -0.59998970442E+03  0.61805449795E+03  0.00000000000E+00 0.  1.
</event>
<event>
 5    1  0.6336319E-005  0.2301397E+03  0.7818608E-02  0.1041232E+00
         21   -1    0    0  501  502  0.00000000000E+00  0.00000000000E+00  0.16355863663E+03  0.16355863663E+03  0.00000000000E+00 0.  1.
          4   -1    0    0  502    0 -0.00000000000E+00 -0.00000000000E+00 -0.14855839546E+04  0.14855839546E+04  0.00000000000E+00 0.  1.
        -13    1    1    2    0    0  0.20431393117E+02 -0.25194143996E+03 -0.47667932575E+03  0.53955085187E+03  0.10566000000E+00 0.  1.
         13    1    1    2    0    0  0.58762712533E-01  0.22132356745E+03 -0.96206591014E+03  0.98719549815E+03  0.10566000000E+00 0. -1.
          4    1    1    2  501    0 -0.20490155829E+02  0.30617872507E+02  0.11671991796E+03  0.12239624117E+03  0.00000000000E+00 0.  1.
</event>
<event>
 5    1  0.6336319E-005  0.4645105E+03  0.7818608E-02  0.9570146E-01
          4   -1    0    0  502    0 -0.00000000000E+00  0.00000000000E+00  0.13323329253E+04  0.13323329253E+04  0.00000000000E+00 0.  1.
         21   -1    0    0  501  502  0.00000000000E+00 -0.00000000000E+00 -0.54258856575E+03  0.54258856575E+03  0.00000000000E+00 0.  1.
        -13    1    1    2    0    0  0.25669552681E+03  0.38403412685E+02  0.45045890334E+03  0.51988522806E+03  0.10566000000E+00 0.  1.
         13    1    1    2    0    0 -0.42327010538E+00  0.47358863397E+03  0.56708822658E+03  0.73883383874E+03  0.10566000000E+00 0. -1.
          4    1    1    2  501    0 -0.25627225671E+03 -0.51199204665E+03 -0.22780277041E+03  0.61620242421E+03  0.00000000000E+00 0.  1.
</event>
<event>
 5    1  0.6336319E-005  0.7369660E+02  0.7818608E-02  0.1228444E+00
         21   -1    0    0  501  502  0.00000000000E+00  0.00000000000E+00  0.13245005929E+03  0.13245005929E+03  0.00000000000E+00 0. -1.
         -4   -1    0    0    0  501 -0.00000000000E+00 -0.00000000000E+00 -0.20153159992E+03  0.20153159992E+03  0.00000000000E+00 0. -1.
        -13    1    1    2    0    0 -0.46260043754E+01  0.57602702296E+02  0.77620270452E+02  0.96769772023E+02  0.10566000000E+00 0.  1.
         13    1    1    2    0    0  0.61439712915E+02 -0.90460304420E+02 -0.12924480435E+03  0.16929895338E+03  0.10566000000E+00 0. -1.
         -4    1    1    2    0  502 -0.56813708539E+02  0.32857602124E+02 -0.17457006732E+02  0.67912933815E+02  0.00000000000E+00 0. -1.
</event>
<event>
 5    1  0.6336319E-005  0.2539839E+03  0.7818608E-02  0.1028349E+00
         21   -1    0    0  501  502  0.00000000000E+00  0.00000000000E+00  0.83359725392E+03  0.83359725392E+03  0.00000000000E+00 0.  1.
         -4   -1    0    0    0  501 -0.00000000000E+00 -0.00000000000E+00 -0.31967331423E+03  0.31967331423E+03  0.00000000000E+00 0. -1.
        -13    1    1    2    0    0 -0.29601663905E+03 -0.33452031707E+01  0.58958755092E+03  0.65973519866E+03  0.10566000000E+00 0.  1.
         13    1    1    2    0    0  0.24945947639E+03  0.20310909291E+02 -0.22477746448E+03  0.33640375012E+03  0.10566000000E+00 0. -1.
         -4    1    1    2    0  502  0.46557162663E+02 -0.16965706120E+02  0.14911385324E+03  0.15713161938E+03  0.00000000000E+00 0. -1.
</event>
<event>
 5    1  0.6336319E-005  0.2937640E+02  0.7818608E-02  0.1416041E+00
         21   -1    0    0  501  502  0.00000000000E+00  0.00000000000E+00  0.54381000882E+03  0.54381000882E+03  0.00000000000E+00 0. -1.
         -4   -1    0    0    0  501 -0.00000000000E+00 -0.00000000000E+00 -0.47895290846E+01  0.47895290846E+01  0.00000000000E+00 0. -1.
        -13    1    1    2    0    0 -0.24246388026E+02 -0.10931746306E+02  0.95074875770E+02  0.98725040270E+02  0.10566000000E+00 0.  1.
         13    1    1    2    0    0 -0.44141661894E+01  0.26982763135E+02  0.81934643045E+02  0.86376219322E+02  0.10566000000E+00 0. -1.
         -4    1    1    2    0  502  0.28660554216E+02 -0.16051016829E+02  0.36201096092E+03  0.36349827832E+03  0.00000000000E+00 0. -1.
</event>
<event>
 5    1  0.6336319E-005  0.8155117E+02  0.7818608E-02  0.1199311E+00
         21   -1    0    0  501  502  0.00000000000E+00  0.00000000000E+00  0.20091745844E+02  0.20091745844E+02  0.00000000000E+00 0. -1.
          4   -1    0    0  502    0 -0.00000000000E+00 -0.00000000000E+00 -0.39468642271E+03  0.39468642271E+03  0.00000000000E+00 0.  1.
        -13    1    1    2    0    0  0.45407469572E+02  0.72997231386E+02 -0.21999137476E+03  0.23619197746E+03  0.10566000000E+00 0.  1.
         13    1    1    2    0    0 -0.46630505166E+02 -0.60044102975E+02 -0.12592579021E+03  0.14709525525E+03  0.10566000000E+00 0. -1.
          4    1    1    2  501    0  0.12230355944E+01 -0.12953128411E+02 -0.28677511901E+02  0.31490935847E+02  0.00000000000E+00 0.  1.
</event>
<event>
 5    1  0.6336319E-005  0.3704436E+03  0.7818608E-02  0.1000841E+00
         21   -1    0    0  501  502  0.00000000000E+00  0.00000000000E+00  0.17693339874E+04  0.17693339874E+04  0.00000000000E+00 0. -1.
         -4   -1    0    0    0  501 -0.00000000000E+00 -0.00000000000E+00 -0.20396175106E+03  0.20396175106E+03  0.00000000000E+00 0. -1.
        -13    1    1    2    0    0 -0.16102291465E+03 -0.11279485802E+03  0.28056136631E+02  0.19859057632E+03  0.10566000000E+00 0.  1.
         13    1    1    2    0    0  0.48507493870E+03  0.11872897667E+02  0.56448040689E+03  0.74436335401E+03  0.10566000000E+00 0. -1.
         -4    1    1    2    0  502 -0.32405202405E+03  0.10092196035E+03  0.97283569285E+03  0.10303418082E+04  0.00000000000E+00 0. -1.
</event>
<event>
 5    1  0.6336319E-005  0.3444840E+03  0.7818608E-02  0.1012064E+00
         21   -1    0    0  501  502  0.00000000000E+00  0.00000000000E+00  0.18215746416E+03  0.18215746416E+03  0.00000000000E+00 0.  1.
          4   -1    0    0  502    0 -0.00000000000E+00 -0.00000000000E+00 -0.19930501090E+04  0.19930501090E+04  0.00000000000E+00 0.  1.
        -13    1    1    2    0    0  0.24430374244E+03 -0.13393483304E+03 -0.14595852397E+04  0.14859380677E+04  0.10566000000E+00 0.  1.
         13    1    1    2    0    0  0.11428830866E+03  0.12588963344E+03 -0.27381530676E+03  0.32231172905E+03  0.10566000000E+00 0. -1.
          4    1    1    2  501    0 -0.35859205111E+03  0.80451996066E+01 -0.77492098432E+02  0.36695777642E+03  0.00000000000E+00 0.  1.
</event>
<event>
 5    1  0.6336319E-005  0.1927588E+03  0.7818608E-02  0.1065217E+00
          4   -1    0    0  502    0 -0.00000000000E+00  0.00000000000E+00  0.46069802353E+03  0.46069802353E+03  0.00000000000E+00 0.  1.
         21   -1    0    0  501  502  0.00000000000E+00 -0.00000000000E+00 -0.73333498496E+03  0.73333498496E+03  0.00000000000E+00 0. -1.
        -13    1    1    2    0    0  0.18099011453E+03  0.58243911673E+02  0.39633483271E+03  0.43958057917E+03  0.10566000000E+00 0.  1.
         13    1    1    2    0    0 -0.21181380210E+03 -0.12026477245E+03 -0.33985243028E+03  0.41812484713E+03  0.10566000000E+00 0. -1.
          4    1    1    2  501    0  0.30823687565E+02  0.62020860775E+02 -0.32911936385E+03  0.33632758219E+03  0.00000000000E+00 0.  1.
</event>
<event>
 5    1  0.6336319E-005  0.1175353E+03  0.7818608E-02  0.1138417E+00
         21   -1    0    0  501  502  0.00000000000E+00  0.00000000000E+00  0.66137276759E+03  0.66137276759E+03  0.00000000000E+00 0. -1.
          4   -1    0    0  502    0 -0.00000000000E+00 -0.00000000000E+00 -0.54326915669E+02  0.54326915669E+02  0.00000000000E+00 0.  1.
        -13    1    1    2    0    0 -0.77824470886E+02  0.78036993179E+02  0.48100264239E+02  0.12025001936E+03  0.10566000000E+00 0.  1.
         13    1    1    2    0    0  0.11740935666E+03 -0.88354453815E+02  0.30876046435E+03  0.34194224958E+03  0.10566000000E+00 0. -1.
          4    1    1    2  501    0 -0.39584885771E+02  0.10317460636E+02  0.25018512333E+03  0.25350741432E+03  0.00000000000E+00 0.  1.
</event>
